<event>
 7    1  0.1486782E-008  0.4614233E+02  0.7816164E-02  0.1320468E+00
        -11   -1    0    0    0    0  0.00000000000E+00  0.00000000000E+00  0.45593999997E+02  0.45594000000E+02  0.51100000000E-03 0.  1.
         11   -1    0    0    0    0 -0.00000000000E+00 -0.00000000000E+00 -0.45593999997E+02  0.45594000000E+02  0.51100000000E-03 0. -1.
    9900012    2    1    2    0    0 -0.25757945308E+02 -0.31227207200E+02 -0.19761137795E+02  0.46142325591E+02  0.10000071401E+02 0.  0.
        -12    1    1    2    0    0  0.25757945308E+02  0.31227207200E+02  0.19761137795E+02  0.45045674409E+02  0.00000000000E+00 0.  1.
         11    1    3    3    0    0 -0.85024799089E+01 -0.11693784644E+02 -0.86976915273E+01  0.16872658417E+02  0.51100000000E-03 0. -1.
        -11    1    3    3    0    0 -0.13746336287E+02 -0.10482345250E+02 -0.83009325684E+01  0.19176725607E+02  0.51100000000E-03 0.  1.
        -12    1    3    3    0    0 -0.35091291121E+01 -0.90510773065E+01 -0.27625136989E+01  0.10092941567E+02  0.00000000000E+00 0.  1.
</event>
<event>
 7    1  0.2175201E-008  0.4614232E+02  0.7816164E-02  0.1320468E+00
        -11   -1    0    0    0    0  0.00000000000E+00  0.00000000000E+00  0.45593999997E+02  0.45594000000E+02  0.51100000000E-03 0. -1.
         11   -1    0    0    0    0 -0.00000000000E+00 -0.00000000000E+00 -0.45593999997E+02  0.45594000000E+02  0.51100000000E-03 0.  1.
    9900012    2    1    2    0    0 -0.59665898281E+01  0.32237578526E+02  0.30890969526E+02  0.46142315838E+02  0.99999824648E+01 0.  0.
        -12    1    1    2    0    0  0.59665898281E+01 -0.32237578526E+02 -0.30890969526E+02  0.45045684162E+02  0.00000000000E+00 0.  1.
         11    1    3    3    0    0 -0.36270496539E+01  0.28335586370E+02  0.27405518612E+02  0.39586909386E+02  0.51100000000E-03 0. -1.
        -11    1    3    3    0    0 -0.56905864657E-02 -0.46298437207E+00  0.79942723796E+00  0.92383498606E+00  0.51100000000E-03 0.  1.
         12    1    3    3    0    0 -0.23338495877E+01  0.43649765279E+01  0.26860236760E+01  0.56315714659E+01  0.00000000000E+00 0. -1.
</event>
<event>
 7    1  0.1486782E-008  0.4614232E+02  0.7816164E-02  0.1320468E+00
        -11   -1    0    0    0    0  0.00000000000E+00  0.00000000000E+00  0.45593999997E+02  0.45594000000E+02  0.51100000000E-03 0.  1.
         11   -1    0    0    0    0 -0.00000000000E+00 -0.00000000000E+00 -0.45593999997E+02  0.45594000000E+02  0.51100000000E-03 0. -1.
    9900012    2    1    2    0    0  0.13809857595E+02  0.42100558915E+02  0.81206076667E+01  0.46142317669E+02  0.99999991613E+01 0.  0.
        -12    1    1    2    0    0 -0.13809857595E+02 -0.42100558915E+02 -0.81206076667E+01  0.45045682331E+02  0.00000000000E+00 0.  1.
         11    1    3    3    0    0  0.39280737582E+01  0.14276931928E+02  0.26150348612E+01  0.15036587256E+02  0.51100000000E-03 0. -1.
        -11    1    3    3    0    0  0.48029578892E+01  0.23345007611E+02  0.46033090798E+01  0.24274435927E+02  0.51100000000E-03 0.  1.
        -12    1    3    3    0    0  0.50788259472E+01  0.44786193770E+01  0.90226372568E+00  0.68312944862E+01  0.00000000000E+00 0.  1.
</event>
<event>
 7    1  0.1486782E-008  0.4614232E+02  0.7816164E-02  0.1320468E+00
        -11   -1    0    0    0    0  0.00000000000E+00  0.00000000000E+00  0.45593999997E+02  0.45594000000E+02  0.51100000000E-03 0. -1.
         11   -1    0    0    0    0 -0.00000000000E+00 -0.00000000000E+00 -0.45593999997E+02  0.45594000000E+02  0.51100000000E-03 0.  1.
    9900012    2    1    2    0    0  0.33665407763E+02 -0.36653928537E+01  0.29703849703E+02  0.46142317945E+02  0.10000001677E+02 0.  0.
        -12    1    1    2    0    0 -0.33665407763E+02  0.36653928537E+01 -0.29703849703E+02  0.45045682055E+02  0.00000000000E+00 0.  1.
         11    1    3    3    0    0  0.18749882634E+02 -0.46961587136E+01  0.19713103047E+02  0.27608303777E+02  0.51100000000E-03 0. -1.
        -11    1    3    3    0    0  0.71218760151E+01  0.25318547980E+01  0.59990909395E+01  0.96498963235E+01  0.51100000000E-03 0.  1.
        -12    1    3    3    0    0  0.77936491139E+01 -0.15010889382E+01  0.39916557162E+01  0.88841178441E+01  0.00000000000E+00 0.  1.
</event>
<event>
 7    1  0.1486782E-008  0.4614232E+02  0.7816164E-02  0.1320468E+00
        -11   -1    0    0    0    0  0.00000000000E+00  0.00000000000E+00  0.45593999997E+02  0.45594000000E+02  0.51100000000E-03 0.  1.
         11   -1    0    0    0    0 -0.00000000000E+00 -0.00000000000E+00 -0.45593999997E+02  0.45594000000E+02  0.51100000000E-03 0. -1.
    9900012    2    1    2    0    0 -0.21628313577E+02  0.30698610271E+02  0.24878195350E+02  0.46142320688E+02  0.10000026692E+02 0.  0.
        -12    1    1    2    0    0  0.21628313577E+02 -0.30698610271E+02 -0.24878195350E+02  0.45045679312E+02  0.00000000000E+00 0.  1.
         11    1    3    3    0    0 -0.66284907838E+01  0.15808841623E+02  0.84152839796E+01  0.19096422918E+02  0.51100000000E-03 0. -1.
        -11    1    3    3    0    0  0.28518686040E-01  0.45131167005E+00  0.99374808878E+00  0.10918017513E+01  0.51100000000E-03 0.  1.
         12    1    3    3    0    0 -0.15028341480E+02  0.14438456978E+02  0.15469163282E+02  0.25954096019E+02  0.00000000000E+00 0. -1.
</event>
<event>
 7    1  0.1486782E-008  0.4614232E+02  0.7816164E-02  0.1320468E+00
        -11   -1    0    0    0    0  0.00000000000E+00  0.00000000000E+00  0.45593999997E+02  0.45594000000E+02  0.51100000000E-03 0.  1.
         11   -1    0    0    0    0 -0.00000000000E+00 -0.00000000000E+00 -0.45593999997E+02  0.45594000000E+02  0.51100000000E-03 0. -1.
    9900012    2    1    2    0    0 -0.65528669678E+01 -0.18333714599E+01 -0.44528778572E+02  0.46142318325E+02  0.10000005146E+02 0.  0.
        -12    1    1    2    0    0  0.65528669678E+01  0.18333714599E+01  0.44528778572E+02  0.45045681675E+02  0.00000000000E+00 0.  1.
         11    1    3    3    0    0 -0.42200660688E+01 -0.15670833511E+01 -0.94269655178E+01  0.10446644772E+02  0.51100000000E-03 0. -1.
        -11    1    3    3    0    0 -0.70104141303E+00 -0.31168538401E+01 -0.17997073981E+02  0.18278427423E+02  0.51100000000E-03 0.  1.
        -12    1    3    3    0    0 -0.16317594860E+01  0.28505657313E+01 -0.17104739073E+02  0.17417246130E+02  0.00000000000E+00 0.  1.
</event>
<event>
 7    1  0.1486782E-008  0.4614232E+02  0.7816164E-02  0.1320468E+00
        -11   -1    0    0    0    0  0.00000000000E+00  0.00000000000E+00  0.45593999997E+02  0.45594000000E+02  0.51100000000E-03 0.  1.
         11   -1    0    0    0    0 -0.00000000000E+00 -0.00000000000E+00 -0.45593999997E+02  0.45594000000E+02  0.51100000000E-03 0. -1.
    9900012    2    1    2    0    0 -0.36716475186E+02 -0.85416538399E+01 -0.24658752968E+02  0.46142317650E+02  0.99999989891E+01 0.  0.
        -12    1    1    2    0    0  0.36716475186E+02  0.85416538399E+01  0.24658752968E+02  0.45045682350E+02  0.00000000000E+00 0.  1.
         11    1    3    3    0    0 -0.18789713095E+02 -0.50677241956E+01 -0.15761735001E+02  0.25043311227E+02  0.51100000000E-03 0. -1.
        -11    1    3    3    0    0 -0.22940634422E+01  0.14424409454E+01 -0.17133208847E+01  0.32060617076E+01  0.51100000000E-03 0.  1.
         12    1    3    3    0    0 -0.15632698649E+02 -0.49163705898E+01 -0.71836970825E+01  0.17892944716E+02  0.00000000000E+00 0. -1.
</event>
<event>
 7    1  0.1486782E-008  0.4614232E+02  0.7816164E-02  0.1320468E+00
        -11   -1    0    0    0    0  0.00000000000E+00  0.00000000000E+00  0.45593999997E+02  0.45594000000E+02  0.51100000000E-03 0.  1.
         11   -1    0    0    0    0 -0.00000000000E+00 -0.00000000000E+00 -0.45593999997E+02  0.45594000000E+02  0.51100000000E-03 0. -1.
    9900012    2    1    2    0    0  0.36727714453E+02 -0.11470639474E+02 -0.23422488774E+02  0.46142316975E+02  0.99999928273E+01 0.  0.
        -12    1    1    2    0    0 -0.36727714453E+02  0.11470639474E+02  0.23422488774E+02  0.45045683025E+02  0.00000000000E+00 0.  1.
         11    1    3    3    0    0  0.57169352148E+01 -0.47617691690E+01 -0.37281083901E+01  0.83220542115E+01  0.51100000000E-03 0. -1.
        -11    1    3    3    0    0  0.23151511194E+02 -0.22805066961E+01 -0.14431732765E+02  0.27376414889E+02  0.51100000000E-03 0.  1.
         12    1    3    3    0    0  0.78592680440E+01 -0.44283636090E+01 -0.52626476193E+01  0.10443847874E+02  0.00000000000E+00 0. -1.
</event>
<event>
 7    1  0.1486782E-008  0.4614232E+02  0.7816164E-02  0.1320468E+00
        -11   -1    0    0    0    0  0.00000000000E+00  0.00000000000E+00  0.45593999997E+02  0.45594000000E+02  0.51100000000E-03 0.  1.
         11   -1    0    0    0    0 -0.00000000000E+00 -0.00000000000E+00 -0.45593999997E+02  0.45594000000E+02  0.51100000000E-03 0. -1.
    9900012    2    1    2    0    0 -0.21610162732E+02 -0.20682028143E+02 -0.33680380080E+02  0.46142318479E+02  0.10000006548E+02 0.  0.
        -12    1    1    2    0    0  0.21610162732E+02  0.20682028143E+02  0.33680380080E+02  0.45045681521E+02  0.00000000000E+00 0.  1.
         11    1    3    3    0    0 -0.11811113245E+02 -0.17123692292E+02 -0.21669114466E+02  0.30037872025E+02  0.51100000000E-03 0. -1.
        -11    1    3    3    0    0 -0.38017332973E+01 -0.19506484207E+01 -0.32614427447E+01  0.53754269005E+01  0.51100000000E-03 0.  1.
         12    1    3    3    0    0 -0.59973161892E+01 -0.16076874303E+01 -0.87498228691E+01  0.10729019554E+02  0.00000000000E+00 0. -1.
</event>
<event>
 7    1  0.1486782E-008  0.4614232E+02  0.7816164E-02  0.1320468E+00
        -11   -1    0    0    0    0  0.00000000000E+00  0.00000000000E+00  0.45593999997E+02  0.45594000000E+02  0.51100000000E-03 0.  1.
         11   -1    0    0    0    0 -0.00000000000E+00 -0.00000000000E+00 -0.45593999997E+02  0.45594000000E+02  0.51100000000E-03 0. -1.
    9900012    2    1    2    0    0 -0.27515799061E+02  0.31161546153E+02 -0.17347974766E+02  0.46142318908E+02  0.10000010455E+02 0.  0.
        -12    1    1    2    0    0  0.27515799061E+02 -0.31161546153E+02  0.17347974766E+02  0.45045681092E+02  0.00000000000E+00 0.  1.
         11    1    3    3    0    0 -0.55826244975E+01  0.52020594173E+01 -0.12658195596E+01  0.77349478265E+01  0.51100000000E-03 0. -1.
        -11    1    3    3    0    0 -0.75374010984E+01  0.10001690829E+02 -0.19225102088E+01  0.12670528029E+02  0.51100000000E-03 0.  1.
         12    1    3    3    0    0 -0.14395773465E+02  0.15957795906E+02 -0.14159644998E+02  0.25736843053E+02  0.00000000000E+00 0. -1.
</event>
<event>
 7    1  0.1486782E-008  0.4614232E+02  0.7816164E-02  0.1320468E+00
        -11   -1    0    0    0    0  0.00000000000E+00  0.00000000000E+00  0.45593999997E+02  0.45594000000E+02  0.51100000000E-03 0.  1.
         11   -1    0    0    0    0 -0.00000000000E+00 -0.00000000000E+00 -0.45593999997E+02  0.45594000000E+02  0.51100000000E-03 0. -1.
    9900012    2    1    2    0    0 -0.25366375780E+02 -0.31232131728E+02 -0.20253750549E+02  0.46142317812E+02  0.10000000467E+02 0.  0.
        -12    1    1    2    0    0  0.25366375780E+02  0.31232131728E+02  0.20253750549E+02  0.45045682188E+02  0.00000000000E+00 0.  1.
         11    1    3    3    0    0 -0.43783799583E+01 -0.71310025368E+01 -0.94297957888E+00  0.84208443155E+01  0.51100000000E-03 0. -1.
        -11    1    3    3    0    0 -0.12231873829E+01 -0.19657082192E+01  0.18917082927E-02  0.23152105772E+01  0.51100000000E-03 0.  1.
         12    1    3    3    0    0 -0.19764808439E+02 -0.22135420972E+02 -0.19312662678E+02  0.35406262920E+02  0.00000000000E+00 0. -1.
</event>
<event>
 7    1  0.1486782E-008  0.4614232E+02  0.7816164E-02  0.1320468E+00
        -11   -1    0    0    0    0  0.00000000000E+00  0.00000000000E+00  0.45593999997E+02  0.45594000000E+02  0.51100000000E-03 0. -1.
         11   -1    0    0    0    0 -0.00000000000E+00 -0.00000000000E+00 -0.45593999997E+02  0.45594000000E+02  0.51100000000E-03 0.  1.
    9900012    2    1    2    0    0 -0.24681685877E+02 -0.32796274818E+02 -0.18556192718E+02  0.46142317101E+02  0.99999939791E+01 0.  0.
        -12    1    1    2    0    0  0.24681685877E+02  0.32796274818E+02  0.18556192718E+02  0.45045682899E+02  0.00000000000E+00 0.  1.
         11    1    3    3    0    0 -0.17131036186E+02 -0.20744134813E+02 -0.71735241276E+01  0.27843329158E+02  0.51100000000E-03 0. -1.
        -11    1    3    3    0    0 -0.16880899198E+01 -0.24634140696E+01 -0.33303539138E+01  0.44731771603E+01  0.51100000000E-03 0.  1.
         12    1    3    3    0    0 -0.58625597713E+01 -0.95887259349E+01 -0.80523146767E+01  0.13825810782E+02  0.00000000000E+00 0. -1.
</event>
<event>
 7    1  0.1486782E-008  0.4614232E+02  0.7816164E-02  0.1320468E+00
        -11   -1    0    0    0    0  0.00000000000E+00  0.00000000000E+00  0.45593999997E+02  0.45594000000E+02  0.51100000000E-03 0.  1.
         11   -1    0    0    0    0 -0.00000000000E+00 -0.00000000000E+00 -0.45593999997E+02  0.45594000000E+02  0.51100000000E-03 0. -1.
    9900012    2    1    2    0    0 -0.38690040378E+02  0.21225216958E+02  0.90379351678E+01  0.46142319503E+02  0.10000015886E+02 0.  0.
        -12    1    1    2    0    0  0.38690040378E+02 -0.21225216958E+02 -0.90379351678E+01  0.45045680497E+02  0.00000000000E+00 0.  1.
         11    1    3    3    0    0 -0.13287530759E+02  0.31873780883E+01  0.26499610345E+01  0.13919056954E+02  0.51100000000E-03 0. -1.
        -11    1    3    3    0    0 -0.16306120322E+02  0.98453986234E+01  0.60179866284E+01  0.19975925444E+02  0.51100000000E-03 0.  1.
         12    1    3    3    0    0 -0.90963892969E+01  0.81924402461E+01  0.36998750494E+00  0.12247337106E+02  0.00000000000E+00 0. -1.
</event>
<event>
 7    1  0.1486782E-008  0.4614232E+02  0.7816164E-02  0.1320468E+00
        -11   -1    0    0    0    0  0.00000000000E+00  0.00000000000E+00  0.45593999997E+02  0.45594000000E+02  0.51100000000E-03 0.  1.
         11   -1    0    0    0    0 -0.00000000000E+00 -0.00000000000E+00 -0.45593999997E+02  0.45594000000E+02  0.51100000000E-03 0. -1.
    9900012    2    1    2    0    0  0.20419740823E+02  0.29284992933E+02 -0.27468833350E+02  0.46142318388E+02  0.10000005714E+02 0.  0.
        -12    1    1    2    0    0 -0.20419740823E+02 -0.29284992933E+02  0.27468833350E+02  0.45045681612E+02  0.00000000000E+00 0.  1.
         11    1    3    3    0    0  0.16003193090E+02  0.19667072551E+02 -0.20842789117E+02  0.32822519559E+02  0.51100000000E-03 0. -1.
        -11    1    3    3    0    0  0.98885437927E+00  0.17859351651E+01  0.59791632311E+00  0.21271816067E+01  0.51100000000E-03 0.  1.
         12    1    3    3    0    0  0.34276933538E+01  0.78319852165E+01 -0.72239605560E+01  0.11192617222E+02  0.00000000000E+00 0. -1.
</event>
<event>
 7    1  0.1486782E-008  0.4614232E+02  0.7816164E-02  0.1320468E+00
        -11   -1    0    0    0    0  0.00000000000E+00  0.00000000000E+00  0.45593999997E+02  0.45594000000E+02  0.51100000000E-03 0. -1.
         11   -1    0    0    0    0 -0.00000000000E+00 -0.00000000000E+00 -0.45593999997E+02  0.45594000000E+02  0.51100000000E-03 0.  1.
    9900012    2    1    2    0    0  0.62644091283E+01  0.43237596997E+02  0.10971821369E+02  0.46142317854E+02  0.10000000846E+02 0.  0.
        -12    1    1    2    0    0 -0.62644091283E+01 -0.43237596997E+02 -0.10971821369E+02  0.45045682146E+02  0.00000000000E+00 0.  1.
         11    1    3    3    0    0  0.93002082175E-01  0.17697167108E+02  0.40070500066E+01  0.18145380212E+02  0.51100000000E-03 0. -1.
        -11    1    3    3    0    0  0.16427324607E+01  0.12079324997E+02  0.27062801620E-01  0.12190545311E+02  0.51100000000E-03 0.  1.
        -12    1    3    3    0    0  0.45286745855E+01  0.13461104892E+02  0.69377085612E+01  0.15806392330E+02  0.00000000000E+00 0.  1.
</event>
<event>
 7    1  0.1486782E-008  0.4614232E+02  0.7816164E-02  0.1320468E+00
        -11   -1    0    0    0    0  0.00000000000E+00  0.00000000000E+00  0.45593999997E+02  0.45594000000E+02  0.51100000000E-03 0.  1.
         11   -1    0    0    0    0 -0.00000000000E+00 -0.00000000000E+00 -0.45593999997E+02  0.45594000000E+02  0.51100000000E-03 0. -1.
    9900012    2    1    2    0    0  0.28284260027E+02 -0.35438159273E+01 -0.34879154551E+02  0.46142318533E+02  0.10000007042E+02 0.  0.
        -12    1    1    2    0    0 -0.28284260027E+02  0.35438159273E+01  0.34879154551E+02  0.45045681467E+02  0.00000000000E+00 0.  1.
         11    1    3    3    0    0  0.10327375422E+02 -0.93724926339E+00 -0.62366942734E+01  0.12100804726E+02  0.51100000000E-03 0. -1.
        -11    1    3    3    0    0  0.86477487401E+01  0.76039169996E-01 -0.14891959830E+02  0.17220911941E+02  0.51100000000E-03 0.  1.
         12    1    3    3    0    0  0.93091358650E+01 -0.26826058339E+01 -0.13750500447E+02  0.16820601867E+02  0.00000000000E+00 0. -1.
</event>
<event>
 7    1  0.1486782E-008  0.4614232E+02  0.7816164E-02  0.1320468E+00
        -11   -1    0    0    0    0  0.00000000000E+00  0.00000000000E+00  0.45593999997E+02  0.45594000000E+02  0.51100000000E-03 0.  1.
         11   -1    0    0    0    0 -0.00000000000E+00 -0.00000000000E+00 -0.45593999997E+02  0.45594000000E+02  0.51100000000E-03 0. -1.
    9900012    2    1    2    0    0 -0.40346110570E+02  0.14227356410E+01 -0.19982008735E+02  0.46142317766E+02  0.10000000047E+02 0.  0.
        -12    1    1    2    0    0  0.40346110570E+02 -0.14227356410E+01  0.19982008735E+02  0.45045682234E+02  0.00000000000E+00 0.  1.
         11    1    3    3    0    0 -0.16183576187E+02  0.38417386269E+01 -0.52350144437E+01  0.17437673880E+02  0.51100000000E-03 0. -1.
        -11    1    3    3    0    0 -0.12091286001E+02 -0.25513048775E+01 -0.92716392618E+01  0.15449001541E+02  0.51100000000E-03 0.  1.
        -12    1    3    3    0    0 -0.12071248382E+02  0.13230189160E+00 -0.54753550296E+01  0.13255642345E+02  0.00000000000E+00 0.  1.
</event>
<event>
 7    1  0.1486782E-008  0.4614232E+02  0.7816164E-02  0.1320468E+00
        -11   -1    0    0    0    0  0.00000000000E+00  0.00000000000E+00  0.45593999997E+02  0.45594000000E+02  0.51100000000E-03 0. -1.
         11   -1    0    0    0    0 -0.00000000000E+00 -0.00000000000E+00 -0.45593999997E+02  0.45594000000E+02  0.51100000000E-03 0.  1.
    9900012    2    1    2    0    0 -0.21919556166E+02  0.27547579896E+01  0.39256308725E+02  0.46142318644E+02  0.10000008053E+02 0.  0.
        -12    1    1    2    0    0  0.21919556166E+02 -0.27547579896E+01 -0.39256308725E+02  0.45045681356E+02  0.00000000000E+00 0.  1.
         11    1    3    3    0    0 -0.12737238929E+02 -0.20428437537E+00  0.18255408335E+02  0.22260703524E+02  0.51100000000E-03 0. -1.
        -11    1    3    3    0    0 -0.19240238388E+01 -0.18105717345E+01  0.58261304735E+01  0.63971739302E+01  0.51100000000E-03 0.  1.
         12    1    3    3    0    0 -0.72582933981E+01  0.47696140995E+01  0.15174769917E+02  0.17484441190E+02  0.00000000000E+00 0. -1.
</event>
<event>
 7    1  0.1486782E-008  0.4614232E+02  0.7816164E-02  0.1320468E+00
        -11   -1    0    0    0    0  0.00000000000E+00  0.00000000000E+00  0.45593999997E+02  0.45594000000E+02  0.51100000000E-03 0.  1.
         11   -1    0    0    0    0 -0.00000000000E+00 -0.00000000000E+00 -0.45593999997E+02  0.45594000000E+02  0.51100000000E-03 0. -1.
    9900012    2    1    2    0    0  0.18466809683E+02 -0.79030173096E+01 -0.40319134151E+02  0.46142319617E+02  0.10000016924E+02 0.  0.
        -12    1    1    2    0    0 -0.18466809683E+02  0.79030173096E+01  0.40319134151E+02  0.45045680383E+02  0.00000000000E+00 0.  1.
         11    1    3    3    0    0  0.39031663637E+01 -0.91583974739E+00 -0.24634259903E+01  0.47055220727E+01  0.51100000000E-03 0.  1.
        -11    1    3    3    0    0  0.10573696865E+02 -0.25388723433E+01 -0.24198616363E+02  0.26529643275E+02  0.51100000000E-03 0. -1.
         12    1    3    3    0    0  0.39899464543E+01 -0.44483052189E+01 -0.13657091798E+02  0.14907154269E+02  0.00000000000E+00 0. -1.
</event>
<event>
 7    1  0.1486782E-008  0.4614232E+02  0.7816164E-02  0.1320468E+00
        -11   -1    0    0    0    0  0.00000000000E+00  0.00000000000E+00  0.45593999997E+02  0.45594000000E+02  0.51100000000E-03 0. -1.
         11   -1    0    0    0    0 -0.00000000000E+00 -0.00000000000E+00 -0.45593999997E+02  0.45594000000E+02  0.51100000000E-03 0.  1.
    9900012    2    1    2    0    0 -0.36091120579E+02 -0.86241238451E+00  0.26940688535E+02  0.46142318315E+02  0.10000005047E+02 0.  0.
        -12    1    1    2    0    0  0.36091120579E+02  0.86241238451E+00 -0.26940688535E+02  0.45045681685E+02  0.00000000000E+00 0.  1.
         11    1    3    3    0    0 -0.25166820995E+02 -0.43113602163E+01  0.18421168491E+02  0.31484855959E+02  0.51100000000E-03 0. -1.
        -11    1    3    3    0    0 -0.39893859976E+01  0.21738276871E+01  0.50699258047E+01  0.68077070572E+01  0.51100000000E-03 0.  1.
         12    1    3    3    0    0 -0.69349135857E+01  0.12751201447E+01  0.34495942390E+01  0.78497552980E+01  0.00000000000E+00 0. -1.
</event>
<event>
 7    1  0.1486782E-008  0.4614232E+02  0.7816164E-02  0.1320468E+00
        -11   -1    0    0    0    0  0.00000000000E+00  0.00000000000E+00  0.45593999997E+02  0.45594000000E+02  0.51100000000E-03 0. -1.
         11   -1    0    0    0    0 -0.00000000000E+00 -0.00000000000E+00 -0.45593999997E+02  0.45594000000E+02  0.51100000000E-03 0.  1.
    9900012    2    1    2    0    0  0.17443986553E+02 -0.22002552500E+02  0.35223693423E+02  0.46142316947E+02  0.99999925766E+01 0.  0.
        -12    1    1    2    0    0 -0.17443986553E+02  0.22002552500E+02 -0.35223693423E+02  0.45045683053E+02  0.00000000000E+00 0.  1.
         11    1    3    3    0    0  0.60375844188E+01 -0.93086922894E+01  0.17881569870E+02  0.21044113643E+02  0.51100000000E-03 0. -1.
        -11    1    3    3    0    0  0.51980493881E+01 -0.61974538167E+01  0.40300253689E+01  0.90371044027E+01  0.51100000000E-03 0.  1.
        -12    1    3    3    0    0  0.62083527457E+01 -0.64964063937E+01  0.13312098184E+02  0.16061098901E+02  0.00000000000E+00 0.  1.
</event>
<event>
 7    1  0.1486782E-008  0.4614232E+02  0.7816164E-02  0.1320468E+00
        -11   -1    0    0    0    0  0.00000000000E+00  0.00000000000E+00  0.45593999997E+02  0.45594000000E+02  0.51100000000E-03 0.  1.
         11   -1    0    0    0    0 -0.00000000000E+00 -0.00000000000E+00 -0.45593999997E+02  0.45594000000E+02  0.51100000000E-03 0. -1.
    9900012    2    1    2    0    0  0.17734468319E+02 -0.35201208933E+02 -0.21805435581E+02  0.46142317656E+02  0.99999990459E+01 0.  0.
        -12    1    1    2    0    0 -0.17734468319E+02  0.35201208933E+02  0.21805435581E+02  0.45045682344E+02  0.00000000000E+00 0.  1.
         11    1    3    3    0    0  0.79190773290E+00 -0.78558518262E+01 -0.72812164963E+01  0.10740467387E+02  0.51100000000E-03 0. -1.
        -11    1    3    3    0    0  0.99408530155E+01 -0.17148407590E+02 -0.76169029024E+01  0.21234539120E+02  0.51100000000E-03 0.  1.
         12    1    3    3    0    0  0.70017075706E+01 -0.10196949517E+02 -0.69073161825E+01  0.14167311149E+02  0.00000000000E+00 0. -1.
</event>
<event>
 7    1  0.1486782E-008  0.4614231E+02  0.7816164E-02  0.1320468E+00
        -11   -1    0    0    0    0  0.00000000000E+00  0.00000000000E+00  0.45593999997E+02  0.45594000000E+02  0.51100000000E-03 0.  1.
         11   -1    0    0    0    0 -0.00000000000E+00 -0.00000000000E+00 -0.45593999997E+02  0.45594000000E+02  0.51100000000E-03 0. -1.
    9900012    2    1    2    0    0  0.12436342155E+02  0.27027124388E+02 -0.33822862972E+02  0.46142310767E+02  0.99999362195E+01 0.  0.
        -12    1    1    2    0    0 -0.12436342155E+02 -0.27027124388E+02  0.33822862972E+02  0.45045689233E+02  0.00000000000E+00 0.  1.
         11    1    3    3    0    0 -0.57601183081E+00  0.83842245704E+01 -0.74770660218E+01  0.11248712274E+02  0.51100000000E-03 0.  1.
        -11    1    3    3    0    0  0.79400464610E+01  0.11721725770E+02 -0.18237444335E+02  0.23087822958E+02  0.51100000000E-03 0. -1.
        -12    1    3    3    0    0  0.50723075253E+01  0.69211740476E+01 -0.81083526154E+01  0.11805775534E+02  0.00000000000E+00 0.  1.
</event>
<event>
 7    1  0.1486782E-008  0.4614232E+02  0.7816164E-02  0.1320468E+00
        -11   -1    0    0    0    0  0.00000000000E+00  0.00000000000E+00  0.45593999997E+02  0.45594000000E+02  0.51100000000E-03 0. -1.
         11   -1    0    0    0    0 -0.00000000000E+00 -0.00000000000E+00 -0.45593999997E+02  0.45594000000E+02  0.51100000000E-03 0.  1.
    9900012    2    1    2    0    0  0.52773011417E+01  0.25171700055E+02  0.36981740747E+02  0.46142317192E+02  0.99999948117E+01 0.  0.
        -12    1    1    2    0    0 -0.52773011417E+01 -0.25171700055E+02 -0.36981740747E+02  0.45045682808E+02  0.00000000000E+00 0.  1.
         11    1    3    3    0    0  0.22592063298E+01  0.57442662264E+01  0.17088158265E+02  0.18168812863E+02  0.51100000000E-03 0. -1.
        -11    1    3    3    0    0  0.28346024864E+01  0.17285672561E+02  0.17749354433E+02  0.24937301983E+02  0.51100000000E-03 0.  1.
         12    1    3    3    0    0  0.18349232550E+00  0.21417612676E+01  0.21442280484E+01  0.30362023458E+01  0.00000000000E+00 0. -1.
</event>
<event>
 7    1  0.1486782E-008  0.4614232E+02  0.7816164E-02  0.1320468E+00
        -11   -1    0    0    0    0  0.00000000000E+00  0.00000000000E+00  0.45593999997E+02  0.45594000000E+02  0.51100000000E-03 0.  1.
         11   -1    0    0    0    0 -0.00000000000E+00 -0.00000000000E+00 -0.45593999997E+02  0.45594000000E+02  0.51100000000E-03 0. -1.
    9900012    2    1    2    0    0 -0.44834492760E+02  0.40747745521E+01 -0.15420632078E+01  0.46142317769E+02  0.10000000073E+02 0.  0.
        -12    1    1    2    0    0  0.44834492760E+02 -0.40747745521E+01  0.15420632078E+01  0.45045682231E+02  0.00000000000E+00 0.  1.
         11    1    3    3    0    0 -0.42106217448E+02  0.35965269587E+01 -0.25169129735E+01  0.42334423406E+02  0.51100000000E-03 0. -1.
        -11    1    3    3    0    0 -0.83225190287E+00  0.78644220028E+00  0.14318295975E+01  0.18333768902E+01  0.51100000000E-03 0.  1.
         12    1    3    3    0    0 -0.18960234095E+01 -0.30819460694E+00 -0.45697983179E+00  0.19745174731E+01  0.00000000000E+00 0. -1.
</event>
<event>
 7    1  0.1486782E-008  0.4614232E+02  0.7816164E-02  0.1320468E+00
        -11   -1    0    0    0    0  0.00000000000E+00  0.00000000000E+00  0.45593999997E+02  0.45594000000E+02  0.51100000000E-03 0. -1.
         11   -1    0    0    0    0 -0.00000000000E+00 -0.00000000000E+00 -0.45593999997E+02  0.45594000000E+02  0.51100000000E-03 0.  1.
    9900012    2    1    2    0    0  0.37903891029E+02 -0.22657117534E+02 -0.88917595305E+01  0.46142319657E+02  0.10000017287E+02 0.  0.
        -12    1    1    2    0    0 -0.37903891029E+02  0.22657117534E+02  0.88917595305E+01  0.45045680343E+02  0.00000000000E+00 0.  1.
         11    1    3    3    0    0  0.85785537218E+01 -0.29781216057E+01  0.90518956841E+00  0.91257964404E+01  0.51100000000E-03 0. -1.
        -11    1    3    3    0    0  0.25756062777E+00 -0.88188234868E+00 -0.87615394705E+00  0.12695274530E+01  0.51100000000E-03 0.  1.
         12    1    3    3    0    0  0.29067776679E+02 -0.18797113579E+02 -0.89207951518E+01  0.35746995763E+02  0.00000000000E+00 0. -1.
</event>
<event>
 7    1  0.1486782E-008  0.4614232E+02  0.7816164E-02  0.1320468E+00
        -11   -1    0    0    0    0  0.00000000000E+00  0.00000000000E+00  0.45593999997E+02  0.45594000000E+02  0.51100000000E-03 0. -1.
         11   -1    0    0    0    0 -0.00000000000E+00 -0.00000000000E+00 -0.45593999997E+02  0.45594000000E+02  0.51100000000E-03 0.  1.
    9900012    2    1    2    0    0 -0.98156267322E+01 -0.41070078689E+02  0.15684891414E+02  0.46142315298E+02  0.99999775357E+01 0.  0.
        -12    1    1    2    0    0  0.98156267322E+01  0.41070078689E+02 -0.15684891414E+02  0.45045684702E+02  0.00000000000E+00 0.  1.
         11    1    3    3    0    0 -0.19602327169E+01 -0.19323600985E+02  0.39996666014E+01  0.19830315190E+02  0.51100000000E-03 0. -1.
        -11    1    3    3    0    0 -0.39270502980E+01 -0.89487473272E+01  0.73921624286E+01  0.12253402319E+02  0.51100000000E-03 0.  1.
        -12    1    3    3    0    0 -0.39283437173E+01 -0.12797730376E+02  0.42930623836E+01  0.14058597788E+02  0.00000000000E+00 0.  1.
</event>
<event>
 7    1  0.1486782E-008  0.4614232E+02  0.7816164E-02  0.1320468E+00
        -11   -1    0    0    0    0  0.00000000000E+00  0.00000000000E+00  0.45593999997E+02  0.45594000000E+02  0.51100000000E-03 0.  1.
         11   -1    0    0    0    0 -0.00000000000E+00 -0.00000000000E+00 -0.45593999997E+02  0.45594000000E+02  0.51100000000E-03 0. -1.
    9900012    2    1    2    0    0  0.29602217696E+02  0.28786171924E+02  0.18004958913E+02  0.46142317277E+02  0.99999955849E+01 0.  0.
        -12    1    1    2    0    0 -0.29602217696E+02 -0.28786171924E+02 -0.18004958913E+02  0.45045682723E+02  0.00000000000E+00 0.  1.
         11    1    3    3    0    0  0.10726771973E+00  0.20286249529E+01  0.14029428132E+01  0.24688204393E+01  0.51100000000E-03 0. -1.
        -11    1    3    3    0    0  0.46544948544E+01  0.19828667393E+01  0.38003010427E+01  0.63275880975E+01  0.51100000000E-03 0.  1.
         12    1    3    3    0    0  0.24840455122E+02  0.24774680231E+02  0.12801715057E+02  0.37345908740E+02  0.00000000000E+00 0. -1.
</event>
<event>
 7    1  0.1486782E-008  0.4614232E+02  0.7816164E-02  0.1320468E+00
        -11   -1    0    0    0    0  0.00000000000E+00  0.00000000000E+00  0.45593999997E+02  0.45594000000E+02  0.51100000000E-03 0.  1.
         11   -1    0    0    0    0 -0.00000000000E+00 -0.00000000000E+00 -0.45593999997E+02  0.45594000000E+02  0.51100000000E-03 0. -1.
    9900012    2    1    2    0    0  0.44873264041E+02 -0.43670463348E+00 -0.39131905912E+01  0.46142316553E+02  0.99999889835E+01 0.  0.
        -12    1    1    2    0    0 -0.44873264041E+02  0.43670463348E+00  0.39131905912E+01  0.45045683447E+02  0.00000000000E+00 0.  1.
         11    1    3    3    0    0  0.12782274530E+02  0.38500785436E+01 -0.27135318891E+01  0.13622514545E+02  0.51100000000E-03 0. -1.
        -11    1    3    3    0    0  0.12553694376E+02 -0.23234802033E+01  0.74133354564E+00  0.12788407970E+02  0.51100000000E-03 0.  1.
         12    1    3    3    0    0  0.19537295135E+02 -0.19633029738E+01 -0.19409922477E+01  0.19731394038E+02  0.00000000000E+00 0. -1.
</event>
<event>
 7    1  0.1486782E-008  0.4614232E+02  0.7816164E-02  0.1320468E+00
        -11   -1    0    0    0    0  0.00000000000E+00  0.00000000000E+00  0.45593999997E+02  0.45594000000E+02  0.51100000000E-03 0. -1.
         11   -1    0    0    0    0 -0.00000000000E+00 -0.00000000000E+00 -0.45593999997E+02  0.45594000000E+02  0.51100000000E-03 0.  1.
    9900012    2    1    2    0    0 -0.88007789567E+01  0.24263545910E+02  0.36918018318E+02  0.46142318221E+02  0.10000004195E+02 0.  0.
        -12    1    1    2    0    0  0.88007789567E+01 -0.24263545910E+02 -0.36918018318E+02  0.45045681779E+02  0.00000000000E+00 0.  1.
         11    1    3    3    0    0 -0.40313083801E+01  0.34695498044E+01  0.11598481609E+02  0.12759858894E+02  0.51100000000E-03 0. -1.
        -11    1    3    3    0    0 -0.38536236242E+01  0.19574977676E+02  0.24663678372E+02  0.31722660625E+02  0.51100000000E-03 0.  1.
        -12    1    3    3    0    0 -0.91584695242E+00  0.12190184294E+01  0.65585833763E+00  0.16597987018E+01  0.00000000000E+00 0.  1.
</event>
<event>
 7    1  0.1486782E-008  0.4614232E+02  0.7816164E-02  0.1320468E+00
        -11   -1    0    0    0    0  0.00000000000E+00  0.00000000000E+00  0.45593999997E+02  0.45594000000E+02  0.51100000000E-03 0.  1.
         11   -1    0    0    0    0 -0.00000000000E+00 -0.00000000000E+00 -0.45593999997E+02  0.45594000000E+02  0.51100000000E-03 0. -1.
    9900012    2    1    2    0    0  0.18065044531E+01 -0.32718819454E+02 -0.30908395622E+02  0.46142317358E+02  0.99999963256E+01 0.  0.
        -12    1    1    2    0    0 -0.18065044531E+01  0.32718819454E+02  0.30908395622E+02  0.45045682642E+02  0.00000000000E+00 0.  1.
         11    1    3    3    0    0 -0.17823543994E+01 -0.18563396607E+02 -0.15049470079E+02  0.23963785818E+02  0.51100000000E-03 0. -1.
        -11    1    3    3    0    0  0.38382779708E+01 -0.48330797982E+01 -0.59961800763E+01  0.86049528695E+01  0.51100000000E-03 0.  1.
        -12    1    3    3    0    0 -0.24941911830E+00 -0.93223430480E+01 -0.98627454663E+01  0.13573578671E+02  0.00000000000E+00 0.  1.
</event>
<event>
 7    1  0.1486782E-008  0.4614232E+02  0.7816164E-02  0.1320468E+00
        -11   -1    0    0    0    0  0.00000000000E+00  0.00000000000E+00  0.45593999997E+02  0.45594000000E+02  0.51100000000E-03 0. -1.
         11   -1    0    0    0    0 -0.00000000000E+00 -0.00000000000E+00 -0.45593999997E+02  0.45594000000E+02  0.51100000000E-03 0.  1.
    9900012    2    1    2    0    0  0.39304664071E+02  0.12349706380E+02 -0.18213775492E+02  0.46142317820E+02  0.10000000534E+02 0.  0.
        -12    1    1    2    0    0 -0.39304664071E+02 -0.12349706380E+02  0.18213775492E+02  0.45045682180E+02  0.00000000000E+00 0.  1.
         11    1    3    3    0    0  0.64025998563E+01  0.26367147594E+01 -0.25320701019E+01  0.73727151650E+01  0.51100000000E-03 0. -1.
        -11    1    3    3    0    0  0.95255690994E+01  0.57604804553E+01 -0.84727396017E+01  0.13989528883E+02  0.51100000000E-03 0.  1.
        -12    1    3    3    0    0  0.23376495116E+02  0.39525111651E+01 -0.72089657884E+01  0.24780073772E+02  0.00000000000E+00 0.  1.
</event>
<event>
 7    1  0.1486782E-008  0.4614232E+02  0.7816164E-02  0.1320468E+00
        -11   -1    0    0    0    0  0.00000000000E+00  0.00000000000E+00  0.45593999997E+02  0.45594000000E+02  0.51100000000E-03 0.  1.
         11   -1    0    0    0    0 -0.00000000000E+00 -0.00000000000E+00 -0.45593999997E+02  0.45594000000E+02  0.51100000000E-03 0. -1.
    9900012    2    1    2    0    0 -0.28086034652E+02  0.27990536891E+02 -0.21373301910E+02  0.46142317272E+02  0.99999955357E+01 0.  0.
        -12    1    1    2    0    0  0.28086034652E+02 -0.27990536891E+02  0.21373301910E+02  0.45045682728E+02  0.00000000000E+00 0.  1.
         11    1    3    3    0    0 -0.90371339095E+01  0.85116008158E+01 -0.10197802365E+02  0.16065874115E+02  0.51100000000E-03 0. -1.
        -11    1    3    3    0    0 -0.32758905194E+01  0.65388909061E+01 -0.13707047291E+01  0.74409263330E+01  0.51100000000E-03 0.  1.
         12    1    3    3    0    0 -0.15773010223E+02  0.12940045169E+02 -0.98047948166E+01  0.22635516824E+02  0.00000000000E+00 0. -1.
</event>
<event>
 7    1  0.1486782E-008  0.4614232E+02  0.7816164E-02  0.1320468E+00
        -11   -1    0    0    0    0  0.00000000000E+00  0.00000000000E+00  0.45593999997E+02  0.45594000000E+02  0.51100000000E-03 0. -1.
         11   -1    0    0    0    0 -0.00000000000E+00 -0.00000000000E+00 -0.45593999997E+02  0.45594000000E+02  0.51100000000E-03 0.  1.
    9900012    2    1    2    0    0 -0.41483172148E+02 -0.15813169169E+02  0.76291382521E+01  0.46142316066E+02  0.99999845429E+01 0.  0.
        -12    1    1    2    0    0  0.41483172148E+02  0.15813169169E+02 -0.76291382521E+01  0.45045683934E+02  0.00000000000E+00 0.  1.
         11    1    3    3    0    0 -0.20612564339E+02 -0.64401296158E+01  0.30147399551E+01  0.21804626467E+02  0.51100000000E-03 0. -1.
        -11    1    3    3    0    0 -0.15088935449E+02 -0.32342801498E+01  0.35818335237E+01  0.15841908746E+02  0.51100000000E-03 0.  1.
        -12    1    3    3    0    0 -0.57816723599E+01 -0.61387594039E+01  0.10325647732E+01  0.84957808533E+01  0.00000000000E+00 0.  1.
</event>
<event>
 7    1  0.1486782E-008  0.4614232E+02  0.7816164E-02  0.1320468E+00
        -11   -1    0    0    0    0  0.00000000000E+00  0.00000000000E+00  0.45593999997E+02  0.45594000000E+02  0.51100000000E-03 0.  1.
         11   -1    0    0    0    0 -0.00000000000E+00 -0.00000000000E+00 -0.45593999997E+02  0.45594000000E+02  0.51100000000E-03 0. -1.
    9900012    2    1    2    0    0 -0.20865829408E+02 -0.24181348040E+02 -0.31764646242E+02  0.46142321175E+02  0.10000031132E+02 0.  0.
        -12    1    1    2    0    0  0.20865829408E+02  0.24181348040E+02  0.31764646242E+02  0.45045678825E+02  0.00000000000E+00 0.  1.
         11    1    3    3    0    0 -0.62369043739E+01 -0.33112236563E+01 -0.58741522483E+01  0.91852513939E+01  0.51100000000E-03 0. -1.
        -11    1    3    3    0    0 -0.41243131783E+00 -0.51604556034E+01 -0.47216412360E+01  0.70067323232E+01  0.51100000000E-03 0.  1.
        -12    1    3    3    0    0 -0.14216493716E+02 -0.15709668780E+02 -0.21168852758E+02  0.29950337458E+02  0.00000000000E+00 0.  1.
</event>
<event>
 7    1  0.1486782E-008  0.4614232E+02  0.7816164E-02  0.1320468E+00
        -11   -1    0    0    0    0  0.00000000000E+00  0.00000000000E+00  0.45593999997E+02  0.45594000000E+02  0.51100000000E-03 0.  1.
         11   -1    0    0    0    0 -0.00000000000E+00 -0.00000000000E+00 -0.45593999997E+02  0.45594000000E+02  0.51100000000E-03 0. -1.
    9900012    2    1    2    0    0  0.18431428494E+02 -0.82613338211E+01 -0.40263455344E+02  0.46142322859E+02  0.10000046485E+02 0.  0.
        -12    1    1    2    0    0 -0.18431428494E+02  0.82613338211E+01  0.40263455344E+02  0.45045677141E+02  0.00000000000E+00 0.  1.
         11    1    3    3    0    0  0.69645065388E+01 -0.48314381378E+01 -0.97139960214E+01  0.12892201704E+02  0.51100000000E-03 0. -1.
        -11    1    3    3    0    0  0.23842761644E+01  0.14473622534E+00 -0.21272089173E+01  0.31985527105E+01  0.51100000000E-03 0.  1.
         12    1    3    3    0    0  0.90826457910E+01 -0.35746319086E+01 -0.28422250406E+02  0.30051568444E+02  0.00000000000E+00 0. -1.
</event>
<event>
 7    1  0.1486782E-008  0.4614232E+02  0.7816164E-02  0.1320468E+00
        -11   -1    0    0    0    0  0.00000000000E+00  0.00000000000E+00  0.45593999997E+02  0.45594000000E+02  0.51100000000E-03 0. -1.
         11   -1    0    0    0    0 -0.00000000000E+00 -0.00000000000E+00 -0.45593999997E+02  0.45594000000E+02  0.51100000000E-03 0.  1.
    9900012    2    1    2    0    0 -0.18177132564E+02 -0.40053791073E+02  0.97159214382E+01  0.46142318109E+02  0.10000003177E+02 0.  0.
        -12    1    1    2    0    0  0.18177132564E+02  0.40053791073E+02 -0.97159214382E+01  0.45045681891E+02  0.00000000000E+00 0.  1.
         11    1    3    3    0    0 -0.71730949458E+01 -0.14796144798E+02  0.78267673196E+00  0.16461827818E+02  0.51100000000E-03 0. -1.
        -11    1    3    3    0    0 -0.21837415577E+01 -0.74167309633E+01 -0.30755562156E+00  0.77376492615E+01  0.51100000000E-03 0.  1.
        -12    1    3    3    0    0 -0.88202960604E+01 -0.17840915312E+02  0.92408003278E+01  0.21942841030E+02  0.00000000000E+00 0.  1.
</event>
<event>
 7    1  0.1486782E-008  0.4614232E+02  0.7816164E-02  0.1320468E+00
        -11   -1    0    0    0    0  0.00000000000E+00  0.00000000000E+00  0.45593999997E+02  0.45594000000E+02  0.51100000000E-03 0.  1.
         11   -1    0    0    0    0 -0.00000000000E+00 -0.00000000000E+00 -0.45593999997E+02  0.45594000000E+02  0.51100000000E-03 0. -1.
    9900012    2    1    2    0    0  0.41907533411E+02  0.43826884570E+01 -0.15926837336E+02  0.46142318051E+02  0.10000002646E+02 0.  0.
        -12    1    1    2    0    0 -0.41907533411E+02 -0.43826884570E+01  0.15926837336E+02  0.45045681949E+02  0.00000000000E+00 0.  1.
         11    1    3    3    0    0  0.11884330073E+02  0.12706500466E+01 -0.82852969751E+01  0.14542970778E+02  0.51100000000E-03 0.  1.
        -11    1    3    3    0    0  0.23407112508E+02  0.20978819841E+01 -0.35853345540E+01  0.23772855296E+02  0.51100000000E-03 0. -1.
        -12    1    3    3    0    0  0.66160908295E+01  0.10141564263E+01 -0.40562058068E+01  0.78264919771E+01  0.00000000000E+00 0.  1.
</event>
<event>
 7    1  0.1486782E-008  0.4614232E+02  0.7816164E-02  0.1320468E+00
        -11   -1    0    0    0    0  0.00000000000E+00  0.00000000000E+00  0.45593999997E+02  0.45594000000E+02  0.51100000000E-03 0.  1.
         11   -1    0    0    0    0 -0.00000000000E+00 -0.00000000000E+00 -0.45593999997E+02  0.45594000000E+02  0.51100000000E-03 0. -1.
    9900012    2    1    2    0    0  0.34606581424E+02 -0.25421775669E+02 -0.13609966962E+02  0.46142319222E+02  0.10000013318E+02 0.  0.
        -12    1    1    2    0    0 -0.34606581424E+02  0.25421775669E+02  0.13609966962E+02  0.45045680778E+02  0.00000000000E+00 0.  1.
         11    1    3    3    0    0 -0.42235517176E+00 -0.10531317088E+00 -0.34863358846E+00  0.55769202540E+00  0.51100000000E-03 0. -1.
        -11    1    3    3    0    0  0.10572128753E+02 -0.48456512746E+01 -0.48514209690E+01  0.12601052667E+02  0.51100000000E-03 0.  1.
         12    1    3    3    0    0  0.24456807844E+02 -0.20470811224E+02 -0.84099124049E+01  0.32983574529E+02  0.00000000000E+00 0. -1.
</event>
<event>
 7    1  0.1486782E-008  0.4614232E+02  0.7816164E-02  0.1320468E+00
        -11   -1    0    0    0    0  0.00000000000E+00  0.00000000000E+00  0.45593999997E+02  0.45594000000E+02  0.51100000000E-03 0.  1.
         11   -1    0    0    0    0 -0.00000000000E+00 -0.00000000000E+00 -0.45593999997E+02  0.45594000000E+02  0.51100000000E-03 0. -1.
    9900012    2    1    2    0    0  0.26327750421E+02  0.28355798185E+02 -0.23063209256E+02  0.46142319251E+02  0.10000013585E+02 0.  0.
        -12    1    1    2    0    0 -0.26327750421E+02 -0.28355798185E+02  0.23063209256E+02  0.45045680749E+02  0.00000000000E+00 0.  1.
         11    1    3    3    0    0  0.13572227004E+01  0.24719113941E+01 -0.85025652344E+00  0.29453923025E+01  0.51100000000E-03 0. -1.
        -11    1    3    3    0    0  0.23531951292E+02  0.25355859244E+02 -0.18608811494E+02  0.39280532011E+02  0.51100000000E-03 0.  1.
        -12    1    3    3    0    0  0.14385764288E+01  0.52802754676E+00 -0.36041412395E+01  0.39163949374E+01  0.00000000000E+00 0.  1.
</event>
<event>
 7    1  0.1486782E-008  0.4614232E+02  0.7816164E-02  0.1320468E+00
        -11   -1    0    0    0    0  0.00000000000E+00  0.00000000000E+00  0.45593999997E+02  0.45594000000E+02  0.51100000000E-03 0.  1.
         11   -1    0    0    0    0 -0.00000000000E+00 -0.00000000000E+00 -0.45593999997E+02  0.45594000000E+02  0.51100000000E-03 0. -1.
    9900012    2    1    2    0    0  0.19949871770E+02  0.40383436817E+02 -0.54242753124E+00  0.46142316739E+02  0.99999906810E+01 0.  0.
        -12    1    1    2    0    0 -0.19949871770E+02 -0.40383436817E+02  0.54242753124E+00  0.45045683261E+02  0.00000000000E+00 0.  1.
         11    1    3    3    0    0  0.10925491909E+01  0.10624886412E+02 -0.86511478525E+00  0.10715890017E+02  0.51100000000E-03 0. -1.
        -11    1    3    3    0    0  0.74994192506E+01  0.13111888324E+02  0.18421148975E+01  0.15216973814E+02  0.51100000000E-03 0.  1.
         12    1    3    3    0    0  0.11357903328E+02  0.16646662082E+02 -0.15194276435E+01  0.20209452908E+02  0.00000000000E+00 0. -1.
</event>
<event>
 7    1  0.1486782E-008  0.4614232E+02  0.7816164E-02  0.1320468E+00
        -11   -1    0    0    0    0  0.00000000000E+00  0.00000000000E+00  0.45593999997E+02  0.45594000000E+02  0.51100000000E-03 0.  1.
         11   -1    0    0    0    0 -0.00000000000E+00 -0.00000000000E+00 -0.45593999997E+02  0.45594000000E+02  0.51100000000E-03 0. -1.
    9900012    2    1    2    0    0 -0.35020764531E+02  0.12898553213E+02 -0.25224726424E+02  0.46142318226E+02  0.10000004237E+02 0.  0.
        -12    1    1    2    0    0  0.35020764531E+02 -0.12898553213E+02  0.25224726424E+02  0.45045681774E+02  0.00000000000E+00 0.  1.
         11    1    3    3    0    0 -0.15814426860E+02  0.79281420522E+01 -0.10224357572E+02  0.20432548087E+02  0.51100000000E-03 0.  1.
        -11    1    3    3    0    0 -0.99471554035E+01  0.29882166190E+01 -0.11787603660E+02  0.15710599591E+02  0.51100000000E-03 0. -1.
        -12    1    3    3    0    0 -0.92591822682E+01  0.19821945417E+01 -0.32127651916E+01  0.99991705483E+01  0.00000000000E+00 0.  1.
</event>
<event>
 7    1  0.1486782E-008  0.4614232E+02  0.7816164E-02  0.1320468E+00
        -11   -1    0    0    0    0  0.00000000000E+00  0.00000000000E+00  0.45593999997E+02  0.45594000000E+02  0.51100000000E-03 0.  1.
         11   -1    0    0    0    0 -0.00000000000E+00 -0.00000000000E+00 -0.45593999997E+02  0.45594000000E+02  0.51100000000E-03 0. -1.
    9900012    2    1    2    0    0 -0.10795302408E+02  0.15516044991E+02 -0.40887983971E+02  0.46142318304E+02  0.10000004954E+02 0.  0.
        -12    1    1    2    0    0  0.10795302408E+02 -0.15516044991E+02  0.40887983971E+02  0.45045681696E+02  0.00000000000E+00 0.  1.
         11    1    3    3    0    0 -0.67185795839E+01  0.12052732583E+02 -0.18967604259E+02  0.23455866770E+02  0.51100000000E-03 0. -1.
        -11    1    3    3    0    0 -0.43159208940E+01  0.28834935240E+01 -0.20167297419E+02  0.20824543056E+02  0.51100000000E-03 0.  1.
         12    1    3    3    0    0  0.23919807002E+00  0.57981888374E+00 -0.17530822930E+01  0.18619084780E+01  0.00000000000E+00 0. -1.
</event>
<event>
 7    1  0.1486782E-008  0.4614232E+02  0.7816164E-02  0.1320468E+00
        -11   -1    0    0    0    0  0.00000000000E+00  0.00000000000E+00  0.45593999997E+02  0.45594000000E+02  0.51100000000E-03 0. -1.
         11   -1    0    0    0    0 -0.00000000000E+00 -0.00000000000E+00 -0.45593999997E+02  0.45594000000E+02  0.51100000000E-03 0.  1.
    9900012    2    1    2    0    0  0.83704480792E+01 -0.43136499594E+02  0.99142020434E+01  0.46142318738E+02  0.10000008906E+02 0.  0.
        -12    1    1    2    0    0 -0.83704480792E+01  0.43136499594E+02 -0.99142020434E+01  0.45045681262E+02  0.00000000000E+00 0.  1.
         11    1    3    3    0    0  0.35559574398E+01 -0.21149027523E+02  0.56913809510E+00  0.21453440678E+02  0.51100000000E-03 0. -1.
        -11    1    3    3    0    0  0.43720197776E+01 -0.12759794108E+02  0.42666879632E+01  0.14146785114E+02  0.51100000000E-03 0.  1.
        -12    1    3    3    0    0  0.44247086172E+00 -0.92276779626E+01  0.50783759851E+01  0.10542092946E+02  0.00000000000E+00 0.  1.
</event>
<event>
 7    1  0.1486782E-008  0.4614232E+02  0.7816164E-02  0.1320468E+00
        -11   -1    0    0    0    0  0.00000000000E+00  0.00000000000E+00  0.45593999997E+02  0.45594000000E+02  0.51100000000E-03 0.  1.
         11   -1    0    0    0    0 -0.00000000000E+00 -0.00000000000E+00 -0.45593999997E+02  0.45594000000E+02  0.51100000000E-03 0. -1.
    9900012    2    1    2    0    0  0.13162921349E+02  0.38443420536E+02 -0.19441047731E+02  0.46142318544E+02  0.10000007135E+02 0.  0.
        -12    1    1    2    0    0 -0.13162921349E+02 -0.38443420536E+02  0.19441047731E+02  0.45045681456E+02  0.00000000000E+00 0.  1.
         11    1    3    3    0    0  0.31231778690E+01  0.80297463335E+01 -0.75414773239E+01  0.11450106841E+02  0.51100000000E-03 0. -1.
        -11    1    3    3    0    0  0.45629821977E+01  0.21385786116E+02 -0.96201115939E+01  0.23889730046E+02  0.51100000000E-03 0.  1.
         12    1    3    3    0    0  0.54767612826E+01  0.90278880872E+01 -0.22794588133E+01  0.10802481657E+02  0.00000000000E+00 0. -1.
</event>
<event>
 7    1  0.1486782E-008  0.4614232E+02  0.7816164E-02  0.1320468E+00
        -11   -1    0    0    0    0  0.00000000000E+00  0.00000000000E+00  0.45593999997E+02  0.45594000000E+02  0.51100000000E-03 0. -1.
         11   -1    0    0    0    0 -0.00000000000E+00 -0.00000000000E+00 -0.45593999997E+02  0.45594000000E+02  0.51100000000E-03 0.  1.
    9900012    2    1    2    0    0  0.10618745796E+02  0.38786293180E+02  0.20297269579E+02  0.46142318150E+02  0.10000003550E+02 0.  0.
        -12    1    1    2    0    0 -0.10618745796E+02 -0.38786293180E+02 -0.20297269579E+02  0.45045681850E+02  0.00000000000E+00 0.  1.
         11    1    3    3    0    0  0.13614225675E+01  0.86928665527E+01  0.71411286297E+01  0.11332039476E+02  0.51100000000E-03 0. -1.
        -11    1    3    3    0    0  0.60936490264E+01  0.13948897707E+02  0.31175309220E+01  0.15537802451E+02  0.51100000000E-03 0.  1.
        -12    1    3    3    0    0  0.31636742017E+01  0.16144528921E+02  0.10038610027E+02  0.19272476224E+02  0.00000000000E+00 0.  1.
</event>
<event>
 7    1  0.1486782E-008  0.4614232E+02  0.7816164E-02  0.1320468E+00
        -11   -1    0    0    0    0  0.00000000000E+00  0.00000000000E+00  0.45593999997E+02  0.45594000000E+02  0.51100000000E-03 0.  1.
         11   -1    0    0    0    0 -0.00000000000E+00 -0.00000000000E+00 -0.45593999997E+02  0.45594000000E+02  0.51100000000E-03 0. -1.
    9900012    2    1    2    0    0 -0.22042331086E+02  0.32918950295E+02 -0.21438092490E+02  0.46142318100E+02  0.10000003094E+02 0.  0.
        -12    1    1    2    0    0  0.22042331086E+02 -0.32918950295E+02  0.21438092490E+02  0.45045681900E+02  0.00000000000E+00 0.  1.
         11    1    3    3    0    0 -0.85008354888E+01  0.10967575795E+02 -0.61100688568E+01  0.15161954508E+02  0.51100000000E-03 0. -1.
        -11    1    3    3    0    0 -0.12213093512E+02  0.20252600774E+02 -0.16186940494E+02  0.28659109094E+02  0.51100000000E-03 0.  1.
        -12    1    3    3    0    0 -0.13284020855E+01  0.16987737260E+01  0.85891686069E+00  0.23212544984E+01  0.00000000000E+00 0.  1.
</event>
<event>
 7    1  0.1486782E-008  0.4614232E+02  0.7816164E-02  0.1320468E+00
        -11   -1    0    0    0    0  0.00000000000E+00  0.00000000000E+00  0.45593999997E+02  0.45594000000E+02  0.51100000000E-03 0.  1.
         11   -1    0    0    0    0 -0.00000000000E+00 -0.00000000000E+00 -0.45593999997E+02  0.45594000000E+02  0.51100000000E-03 0. -1.
    9900012    2    1    2    0    0  0.18173856268E+00 -0.42978257667E+02  0.13488881410E+02  0.46142316715E+02  0.99999904572E+01 0.  0.
        -12    1    1    2    0    0 -0.18173856268E+00  0.42978257667E+02 -0.13488881410E+02  0.45045683285E+02  0.00000000000E+00 0.  1.
         11    1    3    3    0    0 -0.15732153501E+01 -0.16213137221E+02  0.49747772896E+01  0.17032006177E+02  0.51100000000E-03 0. -1.
        -11    1    3    3    0    0  0.38801590596E+01 -0.13239346545E+02  0.19738464088E+01  0.13936714146E+02  0.51100000000E-03 0.  1.
        -12    1    3    3    0    0 -0.21252051469E+01 -0.13525773900E+02  0.65402577116E+01  0.15173596392E+02  0.00000000000E+00 0.  1.
</event>
<event>
 7    1  0.1486782E-008  0.4614232E+02  0.7816164E-02  0.1320468E+00
        -11   -1    0    0    0    0  0.00000000000E+00  0.00000000000E+00  0.45593999997E+02  0.45594000000E+02  0.51100000000E-03 0. -1.
         11   -1    0    0    0    0 -0.00000000000E+00 -0.00000000000E+00 -0.45593999997E+02  0.45594000000E+02  0.51100000000E-03 0.  1.
    9900012    2    1    2    0    0 -0.23317029570E+02 -0.35365965568E+02  0.15319207289E+02  0.46142317626E+02  0.99999987712E+01 0.  0.
        -12    1    1    2    0    0  0.23317029570E+02  0.35365965568E+02 -0.15319207289E+02  0.45045682374E+02  0.00000000000E+00 0.  1.
         11    1    3    3    0    0 -0.14853553588E+02 -0.17569488543E+02  0.10276262299E+02  0.25197550456E+02  0.51100000000E-03 0. -1.
        -11    1    3    3    0    0 -0.40598953771E+01 -0.63019667572E+01 -0.35308201566E+00  0.75048119665E+01  0.51100000000E-03 0.  1.
        -12    1    3    3    0    0 -0.44035806041E+01 -0.11494510268E+02  0.53960270058E+01  0.13439955204E+02  0.00000000000E+00 0.  1.
</event>
<event>
 7    1  0.1486782E-008  0.4614232E+02  0.7816164E-02  0.1320468E+00
        -11   -1    0    0    0    0  0.00000000000E+00  0.00000000000E+00  0.45593999997E+02  0.45594000000E+02  0.51100000000E-03 0. -1.
         11   -1    0    0    0    0 -0.00000000000E+00 -0.00000000000E+00 -0.45593999997E+02  0.45594000000E+02  0.51100000000E-03 0.  1.
    9900012    2    1    2    0    0 -0.13316647675E+02  0.42594848396E+02 -0.61203732927E+01  0.46142321135E+02  0.10000030767E+02 0.  0.
        -12    1    1    2    0    0  0.13316647675E+02 -0.42594848396E+02  0.61203732927E+01  0.45045678865E+02  0.00000000000E+00 0.  1.
         11    1    3    3    0    0 -0.64399513787E+00  0.10399655065E+02  0.14178918523E+01  0.10515606154E+02  0.51100000000E-03 0. -1.
        -11    1    3    3    0    0 -0.11462764275E+02  0.24871680505E+02 -0.63002885422E+01  0.28101407295E+02  0.51100000000E-03 0.  1.
        -12    1    3    3    0    0 -0.12098882619E+01  0.73235128254E+01 -0.12379766027E+01  0.75253076866E+01  0.00000000000E+00 0.  1.
</event>
<event>
 7    1  0.1486782E-008  0.4614232E+02  0.7816164E-02  0.1320468E+00
        -11   -1    0    0    0    0  0.00000000000E+00  0.00000000000E+00  0.45593999997E+02  0.45594000000E+02  0.51100000000E-03 0.  1.
         11   -1    0    0    0    0 -0.00000000000E+00 -0.00000000000E+00 -0.45593999997E+02  0.45594000000E+02  0.51100000000E-03 0. -1.
    9900012    2    1    2    0    0  0.13897629552E+02 -0.24838124900E+02 -0.34914708708E+02  0.46142318299E+02  0.10000004906E+02 0.  0.
        -12    1    1    2    0    0 -0.13897629552E+02  0.24838124900E+02  0.34914708708E+02  0.45045681701E+02  0.00000000000E+00 0.  1.
         11    1    3    3    0    0  0.39281835588E+01 -0.12408888654E+02 -0.19452494694E+02  0.23405356092E+02  0.51100000000E-03 0. -1.
        -11    1    3    3    0    0  0.62522348762E+01 -0.10734782104E+02 -0.10191114912E+02  0.16068130295E+02  0.51100000000E-03 0.  1.
         12    1    3    3    0    0  0.37172111172E+01 -0.16944541420E+01 -0.52710991019E+01  0.66688319120E+01  0.00000000000E+00 0. -1.
</event>
<event>
 7    1  0.1486782E-008  0.4614232E+02  0.7816164E-02  0.1320468E+00
        -11   -1    0    0    0    0  0.00000000000E+00  0.00000000000E+00  0.45593999997E+02  0.45594000000E+02  0.51100000000E-03 0. -1.
         11   -1    0    0    0    0 -0.00000000000E+00 -0.00000000000E+00 -0.45593999997E+02  0.45594000000E+02  0.51100000000E-03 0.  1.
    9900012    2    1    2    0    0  0.16715012397E+02  0.44310404096E+01  0.41594322487E+02  0.46142318501E+02  0.10000006747E+02 0.  0.
        -12    1    1    2    0    0 -0.16715012397E+02 -0.44310404096E+01 -0.41594322487E+02  0.45045681499E+02  0.00000000000E+00 0.  1.
         11    1    3    3    0    0  0.13708099897E+02  0.62367681006E+01  0.32428886948E+02  0.35755307132E+02  0.51100000000E-03 0. -1.
        -11    1    3    3    0    0  0.23190473183E+01 -0.16181739485E+01  0.92466871872E+01  0.96694204372E+01  0.51100000000E-03 0.  1.
        -12    1    3    3    0    0  0.68786518206E+00 -0.18755374245E+00 -0.81251648640E-01  0.71759093180E+00  0.00000000000E+00 0.  1.
</event>
<event>
 7    1  0.1486782E-008  0.4614232E+02  0.7816164E-02  0.1320468E+00
        -11   -1    0    0    0    0  0.00000000000E+00  0.00000000000E+00  0.45593999997E+02  0.45594000000E+02  0.51100000000E-03 0. -1.
         11   -1    0    0    0    0 -0.00000000000E+00 -0.00000000000E+00 -0.45593999997E+02  0.45594000000E+02  0.51100000000E-03 0.  1.
    9900012    2    1    2    0    0  0.15232286598E+02  0.39449414647E+02  0.15518841431E+02  0.46142319737E+02  0.10000018018E+02 0.  0.
        -12    1    1    2    0    0 -0.15232286598E+02 -0.39449414647E+02 -0.15518841431E+02  0.45045680263E+02  0.00000000000E+00 0.  1.
         11    1    3    3    0    0  0.33188772635E+01  0.20185267899E+01  0.79675608281E+00  0.39653773097E+01  0.51100000000E-03 0. -1.
        -11    1    3    3    0    0 -0.28956093187E-01  0.44059504421E+01  0.16791638651E+01  0.47151701242E+01  0.51100000000E-03 0.  1.
         12    1    3    3    0    0  0.11942365428E+02  0.33024937415E+02  0.13042921483E+02  0.37461772303E+02  0.00000000000E+00 0. -1.
</event>
<event>
 7    1  0.1486782E-008  0.4614232E+02  0.7816164E-02  0.1320468E+00
        -11   -1    0    0    0    0  0.00000000000E+00  0.00000000000E+00  0.45593999997E+02  0.45594000000E+02  0.51100000000E-03 0. -1.
         11   -1    0    0    0    0 -0.00000000000E+00 -0.00000000000E+00 -0.45593999997E+02  0.45594000000E+02  0.51100000000E-03 0.  1.
    9900012    2    1    2    0    0  0.18022698357E+02  0.17786408933E+02  0.37255059753E+02  0.46142317898E+02  0.10000001253E+02 0.  0.
        -12    1    1    2    0    0 -0.18022698357E+02 -0.17786408933E+02 -0.37255059753E+02  0.45045682102E+02  0.00000000000E+00 0.  1.
         11    1    3    3    0    0  0.40821343066E+01  0.67911730954E+01  0.11540194488E+02  0.13998569269E+02  0.51100000000E-03 0. -1.
        -11    1    3    3    0    0  0.12605176311E+02  0.12103417613E+02  0.22486109587E+02  0.28478207674E+02  0.51100000000E-03 0.  1.
        -12    1    3    3    0    0  0.13353877402E+01 -0.11081817751E+01  0.32287556782E+01  0.36655409551E+01  0.00000000000E+00 0.  1.
</event>
<event>
 7    1  0.1486782E-008  0.4614232E+02  0.7816164E-02  0.1320468E+00
        -11   -1    0    0    0    0  0.00000000000E+00  0.00000000000E+00  0.45593999997E+02  0.45594000000E+02  0.51100000000E-03 0.  1.
         11   -1    0    0    0    0 -0.00000000000E+00 -0.00000000000E+00 -0.45593999997E+02  0.45594000000E+02  0.51100000000E-03 0. -1.
    9900012    2    1    2    0    0 -0.33759886304E+02  0.26566591890E+02 -0.13549897280E+02  0.46142318251E+02  0.10000004469E+02 0.  0.
        -12    1    1    2    0    0  0.33759886304E+02 -0.26566591890E+02  0.13549897280E+02  0.45045681749E+02  0.00000000000E+00 0.  1.
         11    1    3    3    0    0 -0.17175429752E+02  0.10351056783E+02 -0.19506423535E+01  0.20148071112E+02  0.51100000000E-03 0. -1.
        -11    1    3    3    0    0 -0.74047603280E+01  0.77114722138E+01 -0.44289740461E+01  0.11572082379E+02  0.51100000000E-03 0.  1.
         12    1    3    3    0    0 -0.91796962234E+01  0.85040628939E+01 -0.71702808807E+01  0.14422164760E+02  0.00000000000E+00 0. -1.
</event>
<event>
 7    1  0.1486782E-008  0.4614232E+02  0.7816164E-02  0.1320468E+00
        -11   -1    0    0    0    0  0.00000000000E+00  0.00000000000E+00  0.45593999997E+02  0.45594000000E+02  0.51100000000E-03 0.  1.
         11   -1    0    0    0    0 -0.00000000000E+00 -0.00000000000E+00 -0.45593999997E+02  0.45594000000E+02  0.51100000000E-03 0. -1.
    9900012    2    1    2    0    0 -0.33734195360E+02  0.45687858372E+01 -0.29499894157E+02  0.46142317678E+02  0.99999992394E+01 0.  0.
        -12    1    1    2    0    0  0.33734195360E+02 -0.45687858372E+01  0.29499894157E+02  0.45045682322E+02  0.00000000000E+00 0.  1.
         11    1    3    3    0    0 -0.34576605242E+01 -0.94134096325E+00 -0.39001272349E+01  0.52964640865E+01  0.51100000000E-03 0. -1.
        -11    1    3    3    0    0 -0.82472471612E+01 -0.20790743946E+01 -0.75424693252E+01  0.11367870507E+02  0.51100000000E-03 0.  1.
        -12    1    3    3    0    0 -0.22029287674E+02  0.75892011950E+01 -0.18057297597E+02  0.29477983084E+02  0.00000000000E+00 0.  1.
</event>
<event>
 7    1  0.1486782E-008  0.4614232E+02  0.7816164E-02  0.1320468E+00
        -11   -1    0    0    0    0  0.00000000000E+00  0.00000000000E+00  0.45593999997E+02  0.45594000000E+02  0.51100000000E-03 0.  1.
         11   -1    0    0    0    0 -0.00000000000E+00 -0.00000000000E+00 -0.45593999997E+02  0.45594000000E+02  0.51100000000E-03 0. -1.
    9900012    2    1    2    0    0 -0.37176557824E+02  0.18954570542E+02 -0.16962942617E+02  0.46142316318E+02  0.99999868438E+01 0.  0.
        -12    1    1    2    0    0  0.37176557824E+02 -0.18954570542E+02  0.16962942617E+02  0.45045683682E+02  0.00000000000E+00 0.  1.
         11    1    3    3    0    0 -0.15434359321E+02  0.76597780454E+01 -0.78656112697E+01  0.18940947396E+02  0.51100000000E-03 0. -1.
        -11    1    3    3    0    0 -0.87590521848E+01  0.11919091263E+01 -0.10946589559E+01  0.89072959439E+01  0.51100000000E-03 0.  1.
         12    1    3    3    0    0 -0.12983146318E+02  0.10102883370E+02 -0.80026723918E+01  0.18294072978E+02  0.00000000000E+00 0. -1.
</event>
<event>
 7    1  0.1486782E-008  0.4614232E+02  0.7816164E-02  0.1320468E+00
        -11   -1    0    0    0    0  0.00000000000E+00  0.00000000000E+00  0.45593999997E+02  0.45594000000E+02  0.51100000000E-03 0.  1.
         11   -1    0    0    0    0 -0.00000000000E+00 -0.00000000000E+00 -0.45593999997E+02  0.45594000000E+02  0.51100000000E-03 0. -1.
    9900012    2    1    2    0    0 -0.27685984142E+02  0.90750499178E+01 -0.34354667812E+02  0.46142318194E+02  0.10000003944E+02 0.  0.
        -12    1    1    2    0    0  0.27685984142E+02 -0.90750499178E+01  0.34354667812E+02  0.45045681806E+02  0.00000000000E+00 0.  1.
         11    1    3    3    0    0 -0.24598701575E+01  0.30347594269E+01 -0.89345703807E+01  0.97512703849E+01  0.51100000000E-03 0.  1.
        -11    1    3    3    0    0 -0.20879237142E+02  0.46035849227E+01 -0.21987494855E+02  0.30668965879E+02  0.51100000000E-03 0. -1.
        -12    1    3    3    0    0 -0.43468768422E+01  0.14367055681E+01 -0.34326025761E+01  0.57220819302E+01  0.00000000000E+00 0.  1.
</event>
<event>
 7    1  0.1486782E-008  0.4614232E+02  0.7816164E-02  0.1320468E+00
        -11   -1    0    0    0    0  0.00000000000E+00  0.00000000000E+00  0.45593999997E+02  0.45594000000E+02  0.51100000000E-03 0. -1.
         11   -1    0    0    0    0 -0.00000000000E+00 -0.00000000000E+00 -0.45593999997E+02  0.45594000000E+02  0.51100000000E-03 0.  1.
    9900012    2    1    2    0    0  0.58229506416E+01  0.17841260315E+02  0.40949922194E+02  0.46142318171E+02  0.10000003735E+02 0.  0.
        -12    1    1    2    0    0 -0.58229506416E+01 -0.17841260315E+02 -0.40949922194E+02  0.45045681829E+02  0.00000000000E+00 0.  1.
         11    1    3    3    0    0  0.33158803349E+01  0.19785812000E+01  0.11740625275E+02  0.12359293187E+02  0.51100000000E-03 0. -1.
        -11    1    3    3    0    0 -0.15260533836E+01  0.25490146313E+01  0.65832822859E+01  0.72225979009E+01  0.51100000000E-03 0.  1.
        -12    1    3    3    0    0  0.40331236903E+01  0.13313664484E+02  0.22626014632E+02  0.26560427083E+02  0.00000000000E+00 0.  1.
</event>
<event>
 7    1  0.1486782E-008  0.4614232E+02  0.7816164E-02  0.1320468E+00
        -11   -1    0    0    0    0  0.00000000000E+00  0.00000000000E+00  0.45593999997E+02  0.45594000000E+02  0.51100000000E-03 0.  1.
         11   -1    0    0    0    0 -0.00000000000E+00 -0.00000000000E+00 -0.45593999997E+02  0.45594000000E+02  0.51100000000E-03 0. -1.
    9900012    2    1    2    0    0 -0.17328728885E+01  0.40059091163E+02 -0.20527535896E+02  0.46142319150E+02  0.10000012665E+02 0.  0.
        -12    1    1    2    0    0  0.17328728885E+01 -0.40059091163E+02  0.20527535896E+02  0.45045680850E+02  0.00000000000E+00 0.  1.
         11    1    3    3    0    0  0.28845021035E+01  0.22343603744E+02 -0.10196068105E+02  0.24728865435E+02  0.51100000000E-03 0. -1.
        -11    1    3    3    0    0 -0.44583917716E+01  0.12644176147E+02 -0.57898964260E+01  0.14603949757E+02  0.51100000000E-03 0.  1.
        -12    1    3    3    0    0 -0.15898322048E+00  0.50713112729E+01 -0.45415713652E+01  0.68095039581E+01  0.00000000000E+00 0.  1.
</event>
<event>
 7    1  0.1486782E-008  0.4614232E+02  0.7816164E-02  0.1320468E+00
        -11   -1    0    0    0    0  0.00000000000E+00  0.00000000000E+00  0.45593999997E+02  0.45594000000E+02  0.51100000000E-03 0.  1.
         11   -1    0    0    0    0 -0.00000000000E+00 -0.00000000000E+00 -0.45593999997E+02  0.45594000000E+02  0.51100000000E-03 0. -1.
    9900012    2    1    2    0    0  0.15315034044E+02 -0.86690481199E+01 -0.41465778867E+02  0.46142317853E+02  0.10000000835E+02 0.  0.
        -12    1    1    2    0    0 -0.15315034044E+02  0.86690481199E+01  0.41465778867E+02  0.45045682147E+02  0.00000000000E+00 0.  1.
         11    1    3    3    0    0  0.30925111533E+01  0.40020818372E+00 -0.11580153569E+02  0.11992653950E+02  0.51100000000E-03 0. -1.
        -11    1    3    3    0    0  0.10467921135E+02 -0.77654706152E+01 -0.18962272104E+02  0.23009729906E+02  0.51100000000E-03 0.  1.
        -12    1    3    3    0    0  0.17546017563E+01 -0.13037856884E+01 -0.10923353194E+02  0.11139933996E+02  0.00000000000E+00 0.  1.
</event>
<event>
 7    1  0.1486782E-008  0.4614232E+02  0.7816164E-02  0.1320468E+00
        -11   -1    0    0    0    0  0.00000000000E+00  0.00000000000E+00  0.45593999997E+02  0.45594000000E+02  0.51100000000E-03 0.  1.
         11   -1    0    0    0    0 -0.00000000000E+00 -0.00000000000E+00 -0.45593999997E+02  0.45594000000E+02  0.51100000000E-03 0. -1.
    9900012    2    1    2    0    0  0.11974132174E+01 -0.24946985064E+02 -0.37487700290E+02  0.46142317241E+02  0.99999952541E+01 0.  0.
        -12    1    1    2    0    0 -0.11974132174E+01  0.24946985064E+02  0.37487700290E+02  0.45045682759E+02  0.00000000000E+00 0.  1.
         11    1    3    3    0    0  0.27365684930E+01 -0.14225689429E+02 -0.27282416659E+02  0.30889954772E+02  0.51100000000E-03 0. -1.
        -11    1    3    3    0    0 -0.25483874589E+01 -0.72374453868E+01 -0.74786030858E+01  0.10714681458E+02  0.51100000000E-03 0.  1.
         12    1    3    3    0    0  0.10092321832E+01 -0.34838502484E+01 -0.27266805457E+01  0.45376810103E+01  0.00000000000E+00 0. -1.
</event>
<event>
 7    1  0.1486782E-008  0.4614232E+02  0.7816164E-02  0.1320468E+00
        -11   -1    0    0    0    0  0.00000000000E+00  0.00000000000E+00  0.45593999997E+02  0.45594000000E+02  0.51100000000E-03 0.  1.
         11   -1    0    0    0    0 -0.00000000000E+00 -0.00000000000E+00 -0.45593999997E+02  0.45594000000E+02  0.51100000000E-03 0. -1.
    9900012    2    1    2    0    0  0.10028413453E+02 -0.31861174903E+02 -0.30222671702E+02  0.46142318438E+02  0.10000006173E+02 0.  0.
        -12    1    1    2    0    0 -0.10028413453E+02  0.31861174903E+02  0.30222671702E+02  0.45045681562E+02  0.00000000000E+00 0.  1.
         11    1    3    3    0    0  0.26679628600E+01 -0.11557981482E+02 -0.63005647052E+01  0.13431384055E+02  0.51100000000E-03 0. -1.
        -11    1    3    3    0    0 -0.48507214599E+00 -0.51675242857E+01 -0.67332239268E+01  0.85014649878E+01  0.51100000000E-03 0.  1.
         12    1    3    3    0    0  0.78455227391E+01 -0.15135669135E+02 -0.17188883070E+02  0.24209469395E+02  0.00000000000E+00 0. -1.
</event>
<event>
 7    1  0.1486782E-008  0.4614232E+02  0.7816164E-02  0.1320468E+00
        -11   -1    0    0    0    0  0.00000000000E+00  0.00000000000E+00  0.45593999997E+02  0.45594000000E+02  0.51100000000E-03 0.  1.
         11   -1    0    0    0    0 -0.00000000000E+00 -0.00000000000E+00 -0.45593999997E+02  0.45594000000E+02  0.51100000000E-03 0. -1.
    9900012    2    1    2    0    0 -0.46550883875E+01 -0.30501305144E+02 -0.32819415723E+02  0.46142317501E+02  0.99999976284E+01 0.  0.
        -12    1    1    2    0    0  0.46550883875E+01  0.30501305144E+02  0.32819415723E+02  0.45045682499E+02  0.00000000000E+00 0.  1.
         11    1    3    3    0    0 -0.37893514443E+00  0.34757209600E+00 -0.15838999848E+01  0.16652740401E+01  0.51100000000E-03 0.  1.
        -11    1    3    3    0    0 -0.51475692545E+01 -0.23746858684E+02 -0.26164478753E+02  0.35707012130E+02  0.51100000000E-03 0. -1.
         12    1    3    3    0    0  0.87141601141E+00 -0.71020185562E+01 -0.50710369855E+01  0.87700313309E+01  0.00000000000E+00 0. -1.
</event>
<event>
 7    1  0.1486782E-008  0.4614232E+02  0.7816164E-02  0.1320468E+00
        -11   -1    0    0    0    0  0.00000000000E+00  0.00000000000E+00  0.45593999997E+02  0.45594000000E+02  0.51100000000E-03 0.  1.
         11   -1    0    0    0    0 -0.00000000000E+00 -0.00000000000E+00 -0.45593999997E+02  0.45594000000E+02  0.51100000000E-03 0. -1.
    9900012    2    1    2    0    0  0.37765851458E+02 -0.23350356707E+02 -0.75904444305E+01  0.46142317173E+02  0.99999946335E+01 0.  0.
        -12    1    1    2    0    0 -0.37765851458E+02  0.23350356707E+02  0.75904444305E+01  0.45045682827E+02  0.00000000000E+00 0.  1.
         11    1    3    3    0    0  0.10044763414E+02 -0.85889733755E+01  0.23578415664E-01  0.13216213220E+02  0.51100000000E-03 0.  1.
        -11    1    3    3    0    0  0.22672308650E+01  0.41642103598E+00 -0.12221635457E+01  0.26091044954E+01  0.51100000000E-03 0. -1.
         12    1    3    3    0    0  0.25453857180E+02 -0.15177804368E+02 -0.63918593005E+01  0.30316999457E+02  0.00000000000E+00 0. -1.
</event>
<event>
 7    1  0.1486782E-008  0.4614232E+02  0.7816164E-02  0.1320468E+00
        -11   -1    0    0    0    0  0.00000000000E+00  0.00000000000E+00  0.45593999997E+02  0.45594000000E+02  0.51100000000E-03 0. -1.
         11   -1    0    0    0    0 -0.00000000000E+00 -0.00000000000E+00 -0.45593999997E+02  0.45594000000E+02  0.51100000000E-03 0.  1.
    9900012    2    1    2    0    0 -0.25334422966E+02  0.93750470575E+01  0.36047037180E+02  0.46142318922E+02  0.10000010582E+02 0.  0.
        -12    1    1    2    0    0  0.25334422966E+02 -0.93750470575E+01 -0.36047037180E+02  0.45045681078E+02  0.00000000000E+00 0.  1.
         11    1    3    3    0    0 -0.88908076442E+01  0.10396178655E+00  0.14725059545E+02  0.17201297843E+02  0.51100000000E-03 0. -1.
        -11    1    3    3    0    0 -0.97505041432E+00 -0.15600235146E+00  0.30730393326E+01  0.32277904277E+01  0.51100000000E-03 0.  1.
         12    1    3    3    0    0 -0.15468564907E+02  0.94270876224E+01  0.18248938303E+02  0.25713230651E+02  0.00000000000E+00 0. -1.
</event>
<event>
 7    1  0.1486782E-008  0.4614232E+02  0.7816164E-02  0.1320468E+00
        -11   -1    0    0    0    0  0.00000000000E+00  0.00000000000E+00  0.45593999997E+02  0.45594000000E+02  0.51100000000E-03 0.  1.
         11   -1    0    0    0    0 -0.00000000000E+00 -0.00000000000E+00 -0.45593999997E+02  0.45594000000E+02  0.51100000000E-03 0. -1.
    9900012    2    1    2    0    0 -0.19179552309E+02 -0.40600739415E+02  0.35830409214E+01  0.46142318186E+02  0.10000003877E+02 0.  0.
        -12    1    1    2    0    0  0.19179552309E+02  0.40600739415E+02 -0.35830409214E+01  0.45045681814E+02  0.00000000000E+00 0.  1.
         11    1    3    3    0    0 -0.18990605915E+01 -0.11311686525E+02 -0.97534002637E+00  0.11511384434E+02  0.51100000000E-03 0. -1.
        -11    1    3    3    0    0 -0.11926792932E+02 -0.23756252292E+02  0.42999831901E+01  0.26927639486E+02  0.51100000000E-03 0.  1.
        -12    1    3    3    0    0 -0.53536987854E+01 -0.55328005986E+01  0.25839775773E+00  0.77032942661E+01  0.00000000000E+00 0.  1.
</event>
<event>
 7    1  0.1486782E-008  0.4614232E+02  0.7816164E-02  0.1320468E+00
        -11   -1    0    0    0    0  0.00000000000E+00  0.00000000000E+00  0.45593999997E+02  0.45594000000E+02  0.51100000000E-03 0. -1.
         11   -1    0    0    0    0 -0.00000000000E+00 -0.00000000000E+00 -0.45593999997E+02  0.45594000000E+02  0.51100000000E-03 0.  1.
    9900012    2    1    2    0    0 -0.29548575315E+02 -0.27444664703E+02  0.20069514493E+02  0.46142319455E+02  0.10000015445E+02 0.  0.
        -12    1    1    2    0    0  0.29548575315E+02  0.27444664703E+02 -0.20069514493E+02  0.45045680545E+02  0.00000000000E+00 0.  1.
         11    1    3    3    0    0 -0.15945153648E+02 -0.17729206473E+02  0.97370982401E+01  0.25756237486E+02  0.51100000000E-03 0. -1.
        -11    1    3    3    0    0 -0.32441097220E+01 -0.35816440526E+01  0.57339047640E+01  0.74986722899E+01  0.51100000000E-03 0.  1.
         12    1    3    3    0    0 -0.10359311945E+02 -0.61338141776E+01  0.45985114893E+01  0.12887409679E+02  0.00000000000E+00 0. -1.
</event>
<event>
 7    1  0.1486782E-008  0.4614232E+02  0.7816164E-02  0.1320468E+00
        -11   -1    0    0    0    0  0.00000000000E+00  0.00000000000E+00  0.45593999997E+02  0.45594000000E+02  0.51100000000E-03 0.  1.
         11   -1    0    0    0    0 -0.00000000000E+00 -0.00000000000E+00 -0.45593999997E+02  0.45594000000E+02  0.51100000000E-03 0. -1.
    9900012    2    1    2    0    0 -0.31171914929E+02 -0.13301276404E+02 -0.29673241209E+02  0.46142317874E+02  0.10000001034E+02 0.  0.
        -12    1    1    2    0    0  0.31171914929E+02  0.13301276404E+02  0.29673241209E+02  0.45045682126E+02  0.00000000000E+00 0.  1.
         11    1    3    3    0    0 -0.15636798169E+02 -0.10156834480E+02 -0.13108685892E+02  0.22792726685E+02  0.51100000000E-03 0. -1.
        -11    1    3    3    0    0 -0.77040745644E+01 -0.26763104189E+00 -0.53984392509E+01  0.94110327741E+01  0.51100000000E-03 0.  1.
        -12    1    3    3    0    0 -0.78310421951E+01 -0.28768108826E+01 -0.11166116066E+02  0.13938558416E+02  0.00000000000E+00 0.  1.
</event>
<event>
 7    1  0.1486782E-008  0.4614231E+02  0.7816164E-02  0.1320468E+00
        -11   -1    0    0    0    0  0.00000000000E+00  0.00000000000E+00  0.45593999997E+02  0.45594000000E+02  0.51100000000E-03 0.  1.
         11   -1    0    0    0    0 -0.00000000000E+00 -0.00000000000E+00 -0.45593999997E+02  0.45594000000E+02  0.51100000000E-03 0. -1.
    9900012    2    1    2    0    0 -0.34943704408E+02  0.19096693185E+02 -0.21056295709E+02  0.46142314776E+02  0.99999727759E+01 0.  0.
        -12    1    1    2    0    0  0.34943704408E+02 -0.19096693185E+02  0.21056295709E+02  0.45045685224E+02  0.00000000000E+00 0.  1.
         11    1    3    3    0    0 -0.22074283948E+02  0.13342236054E+02 -0.13969773114E+02  0.29333322960E+02  0.51100000000E-03 0. -1.
        -11    1    3    3    0    0 -0.24947962992E+01  0.38420718293E+01 -0.12312448650E+01  0.47435734098E+01  0.51100000000E-03 0.  1.
         12    1    3    3    0    0 -0.10374624160E+02  0.19123853013E+01 -0.58552777303E+01  0.12065418406E+02  0.00000000000E+00 0. -1.
</event>
<event>
 7    1  0.1486782E-008  0.4614232E+02  0.7816164E-02  0.1320468E+00
        -11   -1    0    0    0    0  0.00000000000E+00  0.00000000000E+00  0.45593999997E+02  0.45594000000E+02  0.51100000000E-03 0. -1.
         11   -1    0    0    0    0 -0.00000000000E+00 -0.00000000000E+00 -0.45593999997E+02  0.45594000000E+02  0.51100000000E-03 0.  1.
    9900012    2    1    2    0    0 -0.42525876082E+02 -0.14566809422E+02 -0.29105637560E+01  0.46142318136E+02  0.10000003416E+02 0.  0.
        -12    1    1    2    0    0  0.42525876082E+02  0.14566809422E+02  0.29105637560E+01  0.45045681864E+02  0.00000000000E+00 0.  1.
         11    1    3    3    0    0 -0.35186862933E+02 -0.12643559276E+02 -0.66981159579E+00  0.37395501896E+02  0.51100000000E-03 0. -1.
        -11    1    3    3    0    0 -0.54409896159E+01 -0.56775679500E+00 -0.30679965216E+01  0.62721064003E+01  0.51100000000E-03 0.  1.
         12    1    3    3    0    0 -0.18980235326E+01 -0.13554933510E+01  0.82724436136E+00  0.24747098392E+01  0.00000000000E+00 0. -1.
</event>
<event>
 7    1  0.1486782E-008  0.4614232E+02  0.7816164E-02  0.1320468E+00
        -11   -1    0    0    0    0  0.00000000000E+00  0.00000000000E+00  0.45593999997E+02  0.45594000000E+02  0.51100000000E-03 0.  1.
         11   -1    0    0    0    0 -0.00000000000E+00 -0.00000000000E+00 -0.45593999997E+02  0.45594000000E+02  0.51100000000E-03 0. -1.
    9900012    2    1    2    0    0 -0.23241688083E+02 -0.10339990349E+02 -0.37175557598E+02  0.46142317098E+02  0.99999939536E+01 0.  0.
        -12    1    1    2    0    0  0.23241688083E+02  0.10339990349E+02  0.37175557598E+02  0.45045682902E+02  0.00000000000E+00 0.  1.
         11    1    3    3    0    0  0.52400081577E+00 -0.20863556445E-01 -0.22057264013E+01  0.22672100391E+01  0.51100000000E-03 0. -1.
        -11    1    3    3    0    0 -0.37396304362E+01 -0.76753862703E-01 -0.30511023054E+01  0.48270024336E+01  0.51100000000E-03 0.  1.
         12    1    3    3    0    0 -0.20026058463E+02 -0.10242372930E+02 -0.31918728891E+02  0.39048104625E+02  0.00000000000E+00 0. -1.
</event>
<event>
 7    1  0.1486782E-008  0.4614232E+02  0.7816164E-02  0.1320468E+00
        -11   -1    0    0    0    0  0.00000000000E+00  0.00000000000E+00  0.45593999997E+02  0.45594000000E+02  0.51100000000E-03 0. -1.
         11   -1    0    0    0    0 -0.00000000000E+00 -0.00000000000E+00 -0.45593999997E+02  0.45594000000E+02  0.51100000000E-03 0.  1.
    9900012    2    1    2    0    0  0.39600575086E+02 -0.13629178282E+02  0.16587746427E+02  0.46142318972E+02  0.10000011040E+02 0.  0.
        -12    1    1    2    0    0 -0.39600575086E+02  0.13629178282E+02 -0.16587746427E+02  0.45045681028E+02  0.00000000000E+00 0.  1.
         11    1    3    3    0    0  0.21895941024E+02 -0.12611739724E+02  0.10171170614E+02  0.27238592550E+02  0.51100000000E-03 0. -1.
        -11    1    3    3    0    0  0.12473058022E+02 -0.19114097118E+00  0.42061580701E+01  0.13164553820E+02  0.51100000000E-03 0.  1.
         12    1    3    3    0    0  0.52315760389E+01 -0.82629758714E+00  0.22104177433E+01  0.57391726018E+01  0.00000000000E+00 0. -1.
</event>
<event>
 7    1  0.1486782E-008  0.4614232E+02  0.7816164E-02  0.1320468E+00
        -11   -1    0    0    0    0  0.00000000000E+00  0.00000000000E+00  0.45593999997E+02  0.45594000000E+02  0.51100000000E-03 0.  1.
         11   -1    0    0    0    0 -0.00000000000E+00 -0.00000000000E+00 -0.45593999997E+02  0.45594000000E+02  0.51100000000E-03 0. -1.
    9900012    2    1    2    0    0 -0.18934684869E+02  0.25935606557E+02 -0.31590117219E+02  0.46142317805E+02  0.10000000396E+02 0.  0.
        -12    1    1    2    0    0  0.18934684869E+02 -0.25935606557E+02  0.31590117219E+02  0.45045682195E+02  0.00000000000E+00 0.  1.
         11    1    3    3    0    0 -0.56264359421E+01  0.57617607159E+01 -0.32189086624E+01  0.86727182126E+01  0.51100000000E-03 0. -1.
        -11    1    3    3    0    0 -0.39971536928E+01  0.95189558529E+01 -0.12154981981E+02  0.15947769292E+02  0.51100000000E-03 0.  1.
        -12    1    3    3    0    0 -0.93110952343E+01  0.10654889988E+02 -0.16216226575E+02  0.21521830300E+02  0.00000000000E+00 0.  1.
</event>
<event>
 7    1  0.1486782E-008  0.4614232E+02  0.7816164E-02  0.1320468E+00
        -11   -1    0    0    0    0  0.00000000000E+00  0.00000000000E+00  0.45593999997E+02  0.45594000000E+02  0.51100000000E-03 0.  1.
         11   -1    0    0    0    0 -0.00000000000E+00 -0.00000000000E+00 -0.45593999997E+02  0.45594000000E+02  0.51100000000E-03 0. -1.
    9900012    2    1    2    0    0  0.14336931893E+02 -0.27358078904E+02 -0.32788738396E+02  0.46142318042E+02  0.10000002566E+02 0.  0.
        -12    1    1    2    0    0 -0.14336931893E+02  0.27358078904E+02  0.32788738396E+02  0.45045681958E+02  0.00000000000E+00 0.  1.
         11    1    3    3    0    0  0.62713685164E+01 -0.15972020626E+02 -0.17076269443E+02  0.24208149130E+02  0.51100000000E-03 0. -1.
        -11    1    3    3    0    0 -0.25518440428E+00 -0.50276104616E+00  0.46820003363E+00  0.73287057679E+00  0.51100000000E-03 0.  1.
        -12    1    3    3    0    0  0.83207477804E+01 -0.10883297232E+02 -0.16180668987E+02  0.21201298336E+02  0.00000000000E+00 0.  1.
</event>
<event>
 7    1  0.1486782E-008  0.4614232E+02  0.7816164E-02  0.1320468E+00
        -11   -1    0    0    0    0  0.00000000000E+00  0.00000000000E+00  0.45593999997E+02  0.45594000000E+02  0.51100000000E-03 0. -1.
         11   -1    0    0    0    0 -0.00000000000E+00 -0.00000000000E+00 -0.45593999997E+02  0.45594000000E+02  0.51100000000E-03 0.  1.
    9900012    2    1    2    0    0 -0.82362718923E+01  0.42991885341E+02  0.10628978308E+02  0.46142316968E+02  0.99999927718E+01 0.  0.
        -12    1    1    2    0    0  0.82362718923E+01 -0.42991885341E+02 -0.10628978308E+02  0.45045683032E+02  0.00000000000E+00 0.  1.
         11    1    3    3    0    0 -0.37121257054E+01  0.15430229732E+02  0.64535962724E+00  0.15883587634E+02  0.51100000000E-03 0. -1.
        -11    1    3    3    0    0  0.69400441766E+00  0.14461716592E+01  0.17710699506E+01  0.23895069848E+01  0.51100000000E-03 0.  1.
        -12    1    3    3    0    0 -0.52181506046E+01  0.26115483950E+02  0.82125487306E+01  0.27869222349E+02  0.00000000000E+00 0.  1.
</event>
<event>
 7    1  0.1486782E-008  0.4614232E+02  0.7816164E-02  0.1320468E+00
        -11   -1    0    0    0    0  0.00000000000E+00  0.00000000000E+00  0.45593999997E+02  0.45594000000E+02  0.51100000000E-03 0. -1.
         11   -1    0    0    0    0 -0.00000000000E+00 -0.00000000000E+00 -0.45593999997E+02  0.45594000000E+02  0.51100000000E-03 0.  1.
    9900012    2    1    2    0    0 -0.44977687428E+02 -0.11840675286E+01 -0.21723654790E+01  0.46142317031E+02  0.99999933468E+01 0.  0.
        -12    1    1    2    0    0  0.44977687428E+02  0.11840675286E+01  0.21723654790E+01  0.45045682969E+02  0.00000000000E+00 0.  1.
         11    1    3    3    0    0 -0.27023061857E+02 -0.11324249618E+00 -0.26626570447E+01  0.27154160617E+02  0.51100000000E-03 0. -1.
        -11    1    3    3    0    0 -0.74731865588E+01 -0.30280069461E+01  0.17510515616E+01  0.82512741586E+01  0.51100000000E-03 0.  1.
        -12    1    3    3    0    0 -0.10481439013E+02  0.19571819137E+01 -0.12607599959E+01  0.10736882256E+02  0.00000000000E+00 0.  1.
</event>
<event>
 7    1  0.1486782E-008  0.4614232E+02  0.7816164E-02  0.1320468E+00
        -11   -1    0    0    0    0  0.00000000000E+00  0.00000000000E+00  0.45593999997E+02  0.45594000000E+02  0.51100000000E-03 0.  1.
         11   -1    0    0    0    0 -0.00000000000E+00 -0.00000000000E+00 -0.45593999997E+02  0.45594000000E+02  0.51100000000E-03 0. -1.
    9900012    2    1    2    0    0  0.35069627152E+02  0.25257700775E+01 -0.28157684961E+02  0.46142317794E+02  0.10000000299E+02 0.  0.
        -12    1    1    2    0    0 -0.35069627152E+02 -0.25257700775E+01  0.28157684961E+02  0.45045682206E+02  0.00000000000E+00 0.  1.
         11    1    3    3    0    0  0.11484362980E+02 -0.15644482585E+01 -0.13520587063E+02  0.17808547560E+02  0.51100000000E-03 0. -1.
        -11    1    3    3    0    0  0.92937322135E+00  0.61353022728E+00  0.43294192474E-01  0.11144633563E+01  0.51100000000E-03 0.  1.
         12    1    3    3    0    0  0.22655890950E+02  0.34766881087E+01 -0.14680392090E+02  0.27219306877E+02  0.00000000000E+00 0. -1.
</event>
<event>
 7    1  0.1486782E-008  0.4614232E+02  0.7816164E-02  0.1320468E+00
        -11   -1    0    0    0    0  0.00000000000E+00  0.00000000000E+00  0.45593999997E+02  0.45594000000E+02  0.51100000000E-03 0.  1.
         11   -1    0    0    0    0 -0.00000000000E+00 -0.00000000000E+00 -0.45593999997E+02  0.45594000000E+02  0.51100000000E-03 0. -1.
    9900012    2    1    2    0    0  0.11462685911E+02 -0.35266637478E+02 -0.25573126941E+02  0.46142315314E+02  0.99999776880E+01 0.  0.
        -12    1    1    2    0    0 -0.11462685911E+02  0.35266637478E+02  0.25573126941E+02  0.45045684686E+02  0.00000000000E+00 0.  1.
         11    1    3    3    0    0 -0.13076663569E+01 -0.79378648418E+00 -0.41001170483E+00  0.15837291885E+01  0.51100000000E-03 0.  1.
        -11    1    3    3    0    0  0.83748337756E+01 -0.23616971328E+02 -0.16859825828E+02  0.30201869192E+02  0.51100000000E-03 0. -1.
        -12    1    3    3    0    0  0.43955184921E+01 -0.10855879666E+02 -0.83032894078E+01  0.14356716934E+02  0.00000000000E+00 0.  1.
</event>
<event>
 7    1  0.1486782E-008  0.4614233E+02  0.7816164E-02  0.1320468E+00
        -11   -1    0    0    0    0  0.00000000000E+00  0.00000000000E+00  0.45593999997E+02  0.45594000000E+02  0.51100000000E-03 0.  1.
         11   -1    0    0    0    0 -0.00000000000E+00 -0.00000000000E+00 -0.45593999997E+02  0.45594000000E+02  0.51100000000E-03 0. -1.
    9900012    2    1    2    0    0 -0.14523598723E+02  0.38896707231E+02 -0.17470657218E+02  0.46142327434E+02  0.10000088205E+02 0.  0.
        -12    1    1    2    0    0  0.14523598723E+02 -0.38896707231E+02  0.17470657218E+02  0.45045672566E+02  0.00000000000E+00 0.  1.
         11    1    3    3    0    0 -0.12513737468E+02  0.28626890302E+02 -0.91837317391E+01  0.32564296441E+02  0.51100000000E-03 0. -1.
        -11    1    3    3    0    0 -0.12002211901E+01  0.13806977032E+01 -0.13576981558E+01  0.22782013951E+01  0.51100000000E-03 0.  1.
         12    1    3    3    0    0 -0.80964006555E+00  0.88891192254E+01 -0.69292273236E+01  0.11299829598E+02  0.00000000000E+00 0. -1.
</event>
<event>
 7    1  0.1486782E-008  0.4614232E+02  0.7816164E-02  0.1320468E+00
        -11   -1    0    0    0    0  0.00000000000E+00  0.00000000000E+00  0.45593999997E+02  0.45594000000E+02  0.51100000000E-03 0. -1.
         11   -1    0    0    0    0 -0.00000000000E+00 -0.00000000000E+00 -0.45593999997E+02  0.45594000000E+02  0.51100000000E-03 0.  1.
    9900012    2    1    2    0    0  0.22900056281E+02 -0.37068795626E+02  0.11428267428E+02  0.46142317818E+02  0.10000000519E+02 0.  0.
        -12    1    1    2    0    0 -0.22900056281E+02  0.37068795626E+02 -0.11428267428E+02  0.45045682182E+02  0.00000000000E+00 0.  1.
         11    1    3    3    0    0  0.99393078317E+01 -0.18675526829E+02  0.44008406009E+01  0.21608621908E+02  0.51100000000E-03 0. -1.
        -11    1    3    3    0    0  0.98761365998E+01 -0.13207554262E+02  0.81511619548E+01  0.18396168220E+02  0.51100000000E-03 0.  1.
        -12    1    3    3    0    0  0.30846118496E+01 -0.51857145352E+01 -0.11237351279E+01  0.61375276896E+01  0.00000000000E+00 0.  1.
</event>
<event>
 7    1  0.1486782E-008  0.4614232E+02  0.7816164E-02  0.1320468E+00
        -11   -1    0    0    0    0  0.00000000000E+00  0.00000000000E+00  0.45593999997E+02  0.45594000000E+02  0.51100000000E-03 0.  1.
         11   -1    0    0    0    0 -0.00000000000E+00 -0.00000000000E+00 -0.45593999997E+02  0.45594000000E+02  0.51100000000E-03 0. -1.
    9900012    2    1    2    0    0  0.43721164981E+02 -0.72376641994E+01 -0.80739971214E+01  0.46142317856E+02  0.10000000861E+02 0.  0.
        -12    1    1    2    0    0 -0.43721164981E+02  0.72376641994E+01  0.80739971214E+01  0.45045682144E+02  0.00000000000E+00 0.  1.
         11    1    3    3    0    0  0.78203847235E+01 -0.31177007192E+01 -0.35340365286E+00  0.84263497079E+01  0.51100000000E-03 0. -1.
        -11    1    3    3    0    0  0.90823558412E+01 -0.39126420499E+01 -0.38797617302E+01  0.10623111916E+02  0.51100000000E-03 0.  1.
        -12    1    3    3    0    0  0.26818424416E+02 -0.20732143033E+00 -0.38408317384E+01  0.27092856232E+02  0.00000000000E+00 0.  1.
</event>
<event>
 7    1  0.1486782E-008  0.4614232E+02  0.7816164E-02  0.1320468E+00
        -11   -1    0    0    0    0  0.00000000000E+00  0.00000000000E+00  0.45593999997E+02  0.45594000000E+02  0.51100000000E-03 0.  1.
         11   -1    0    0    0    0 -0.00000000000E+00 -0.00000000000E+00 -0.45593999997E+02  0.45594000000E+02  0.51100000000E-03 0. -1.
    9900012    2    1    2    0    0 -0.11935680739E+02  0.43199936307E+02  0.45186931292E+01  0.46142316975E+02  0.99999928276E+01 0.  0.
        -12    1    1    2    0    0  0.11935680739E+02 -0.43199936307E+02 -0.45186931292E+01  0.45045683025E+02  0.00000000000E+00 0.  1.
         11    1    3    3    0    0 -0.46572148420E+01  0.54108747882E+01  0.64427488370E-01  0.71394234515E+01  0.51100000000E-03 0. -1.
        -11    1    3    3    0    0 -0.57110964597E+01  0.28302169385E+02  0.52820853281E+01  0.29351828569E+02  0.51100000000E-03 0.  1.
         12    1    3    3    0    0 -0.15673694370E+01  0.94868921344E+01 -0.82781968730E+00  0.96510649545E+01  0.00000000000E+00 0. -1.
</event>
<event>
 7    1  0.1486782E-008  0.4614232E+02  0.7816164E-02  0.1320468E+00
        -11   -1    0    0    0    0  0.00000000000E+00  0.00000000000E+00  0.45593999997E+02  0.45594000000E+02  0.51100000000E-03 0. -1.
         11   -1    0    0    0    0 -0.00000000000E+00 -0.00000000000E+00 -0.45593999997E+02  0.45594000000E+02  0.51100000000E-03 0.  1.
    9900012    2    1    2    0    0 -0.18788413579E+01 -0.28509472099E+02  0.34825183753E+02  0.46142317991E+02  0.10000002093E+02 0.  0.
        -12    1    1    2    0    0  0.18788413579E+01  0.28509472099E+02 -0.34825183753E+02  0.45045682009E+02  0.00000000000E+00 0.  1.
         11    1    3    3    0    0 -0.64967396029E+00 -0.39002723061E+01  0.10006071889E+02  0.10758981143E+02  0.51100000000E-03 0.  1.
        -11    1    3    3    0    0  0.36546475952E+00 -0.12019357372E+02  0.85721175257E+01  0.14767522313E+02  0.51100000000E-03 0. -1.
        -12    1    3    3    0    0 -0.15946321572E+01 -0.12589842421E+02  0.16246994339E+02  0.20615814535E+02  0.00000000000E+00 0.  1.
</event>
<event>
 7    1  0.1486782E-008  0.4614232E+02  0.7816164E-02  0.1320468E+00
        -11   -1    0    0    0    0  0.00000000000E+00  0.00000000000E+00  0.45593999997E+02  0.45594000000E+02  0.51100000000E-03 0. -1.
         11   -1    0    0    0    0 -0.00000000000E+00 -0.00000000000E+00 -0.45593999997E+02  0.45594000000E+02  0.51100000000E-03 0.  1.
    9900012    2    1    2    0    0  0.23751217303E+02  0.36471454756E+02  0.11611453493E+02  0.46142321099E+02  0.10000030439E+02 0.  0.
        -12    1    1    2    0    0 -0.23751217303E+02 -0.36471454756E+02 -0.11611453493E+02  0.45045678901E+02  0.00000000000E+00 0.  1.
         11    1    3    3    0    0  0.12893096369E+02  0.26955468558E+02  0.86686862734E+01  0.31112302086E+02  0.51100000000E-03 0. -1.
        -11    1    3    3    0    0  0.28340438332E+00  0.41276322014E+00 -0.44669299060E+00  0.67098912760E+00  0.51100000000E-03 0.  1.
         12    1    3    3    0    0  0.10574716551E+02  0.91032229784E+01  0.33894602104E+01  0.14359029885E+02  0.00000000000E+00 0. -1.
</event>
<event>
 7    1  0.1486782E-008  0.4614232E+02  0.7816164E-02  0.1320468E+00
        -11   -1    0    0    0    0  0.00000000000E+00  0.00000000000E+00  0.45593999997E+02  0.45594000000E+02  0.51100000000E-03 0.  1.
         11   -1    0    0    0    0 -0.00000000000E+00 -0.00000000000E+00 -0.45593999997E+02  0.45594000000E+02  0.51100000000E-03 0. -1.
    9900012    2    1    2    0    0  0.42809034022E+02 -0.12907028127E+02  0.54688946171E+01  0.46142316774E+02  0.99999910015E+01 0.  0.
        -12    1    1    2    0    0 -0.42809034022E+02  0.12907028127E+02 -0.54688946171E+01  0.45045683226E+02  0.00000000000E+00 0.  1.
         11    1    3    3    0    0  0.16539907032E+02 -0.65860634508E+01  0.16963420262E+01  0.17883577185E+02  0.51100000000E-03 0. -1.
        -11    1    3    3    0    0  0.14738178516E+02  0.38554156322E-01  0.31778302364E+01  0.15076935951E+02  0.51100000000E-03 0.  1.
        -12    1    3    3    0    0  0.11530948474E+02 -0.63595188322E+01  0.59472235442E+00  0.13181803638E+02  0.00000000000E+00 0.  1.
</event>
<event>
 7    1  0.1486782E-008  0.4614232E+02  0.7816164E-02  0.1320468E+00
        -11   -1    0    0    0    0  0.00000000000E+00  0.00000000000E+00  0.45593999997E+02  0.45594000000E+02  0.51100000000E-03 0.  1.
         11   -1    0    0    0    0 -0.00000000000E+00 -0.00000000000E+00 -0.45593999997E+02  0.45594000000E+02  0.51100000000E-03 0. -1.
    9900012    2    1    2    0    0 -0.44975792432E+02 -0.21654901817E+01 -0.12657925556E+01  0.46142317816E+02  0.10000000504E+02 0.  0.
        -12    1    1    2    0    0  0.44975792432E+02  0.21654901817E+01  0.12657925556E+01  0.45045682184E+02  0.00000000000E+00 0.  1.
         11    1    3    3    0    0 -0.14451888083E+02  0.24941169020E+01 -0.21014895118E+01  0.14815328100E+02  0.51100000000E-03 0. -1.
        -11    1    3    3    0    0 -0.60648608116E+01 -0.18924657119E+01 -0.17134723168E+01  0.65802698103E+01  0.51100000000E-03 0.  1.
         12    1    3    3    0    0 -0.24459043537E+02 -0.27671413719E+01  0.25491692730E+01  0.24746719906E+02  0.00000000000E+00 0. -1.
</event>
<event>
 7    1  0.1486782E-008  0.4614232E+02  0.7816164E-02  0.1320468E+00
        -11   -1    0    0    0    0  0.00000000000E+00  0.00000000000E+00  0.45593999997E+02  0.45594000000E+02  0.51100000000E-03 0.  1.
         11   -1    0    0    0    0 -0.00000000000E+00 -0.00000000000E+00 -0.45593999997E+02  0.45594000000E+02  0.51100000000E-03 0. -1.
    9900012    2    1    2    0    0 -0.31620490084E+02  0.30263214813E+02 -0.10648753397E+02  0.46142317489E+02  0.99999975186E+01 0.  0.
        -12    1    1    2    0    0  0.31620490084E+02 -0.30263214813E+02  0.10648753397E+02  0.45045682511E+02  0.00000000000E+00 0.  1.
         11    1    3    3    0    0 -0.10370794215E+02  0.58225693921E+01 -0.44884416724E+01  0.12712269501E+02  0.51100000000E-03 0. -1.
        -11    1    3    3    0    0 -0.40528071026E+01  0.38134424025E+01  0.95922208280E+00  0.56469191275E+01  0.51100000000E-03 0.  1.
         12    1    3    3    0    0 -0.17196888767E+02  0.20627203018E+02 -0.71195338078E+01  0.27783128860E+02  0.00000000000E+00 0. -1.
</event>
<event>
 7    1  0.1486782E-008  0.4614232E+02  0.7816164E-02  0.1320468E+00
        -11   -1    0    0    0    0  0.00000000000E+00  0.00000000000E+00  0.45593999997E+02  0.45594000000E+02  0.51100000000E-03 0. -1.
         11   -1    0    0    0    0 -0.00000000000E+00 -0.00000000000E+00 -0.45593999997E+02  0.45594000000E+02  0.51100000000E-03 0.  1.
    9900012    2    1    2    0    0 -0.14990703723E+02  0.42207242987E+02  0.47896616779E+01  0.46142318546E+02  0.10000007153E+02 0.  0.
        -12    1    1    2    0    0  0.14990703723E+02 -0.42207242987E+02 -0.47896616779E+01  0.45045681454E+02  0.00000000000E+00 0.  1.
         11    1    3    3    0    0 -0.13772048366E+01  0.18349446994E+02  0.14949100380E+01  0.18461680704E+02  0.51100000000E-03 0. -1.
        -11    1    3    3    0    0 -0.12331560137E+02  0.22109154687E+02  0.30325073689E+01  0.25496631103E+02  0.51100000000E-03 0.  1.
         12    1    3    3    0    0 -0.12819387498E+01  0.17486413064E+01  0.26224427094E+00  0.21840067386E+01  0.00000000000E+00 0. -1.
</event>
<event>
 7    1  0.1486782E-008  0.4614232E+02  0.7816164E-02  0.1320468E+00
        -11   -1    0    0    0    0  0.00000000000E+00  0.00000000000E+00  0.45593999997E+02  0.45594000000E+02  0.51100000000E-03 0.  1.
         11   -1    0    0    0    0 -0.00000000000E+00 -0.00000000000E+00 -0.45593999997E+02  0.45594000000E+02  0.51100000000E-03 0. -1.
    9900012    2    1    2    0    0 -0.90663096499E+01  0.31622038397E+02 -0.30772744304E+02  0.46142322349E+02  0.10000041838E+02 0.  0.
        -12    1    1    2    0    0  0.90663096499E+01 -0.31622038397E+02  0.30772744304E+02  0.45045677651E+02  0.00000000000E+00 0.  1.
         11    1    3    3    0    0 -0.46705253144E+01  0.18192904639E+02 -0.16787615760E+02  0.25191657927E+02  0.51100000000E-03 0. -1.
        -11    1    3    3    0    0 -0.52534177134E+01  0.74155588313E+01 -0.58889393851E+01  0.10829058952E+02  0.51100000000E-03 0.  1.
        -12    1    3    3    0    0  0.85763337795E+00  0.60135749270E+01 -0.80961891580E+01  0.10121605470E+02  0.00000000000E+00 0.  1.
</event>
<event>
 7    1  0.1486782E-008  0.4614232E+02  0.7816164E-02  0.1320468E+00
        -11   -1    0    0    0    0  0.00000000000E+00  0.00000000000E+00  0.45593999997E+02  0.45594000000E+02  0.51100000000E-03 0.  1.
         11   -1    0    0    0    0 -0.00000000000E+00 -0.00000000000E+00 -0.45593999997E+02  0.45594000000E+02  0.51100000000E-03 0. -1.
    9900012    2    1    2    0    0 -0.10410620068E+02  0.14701507314E+02 -0.41286778999E+02  0.46142318214E+02  0.10000004126E+02 0.  0.
        -12    1    1    2    0    0  0.10410620068E+02 -0.14701507314E+02  0.41286778999E+02  0.45045681786E+02  0.00000000000E+00 0.  1.
         11    1    3    3    0    0 -0.55077100605E+01  0.59703221557E+01 -0.26508648014E+02  0.27725223832E+02  0.51100000000E-03 0. -1.
        -11    1    3    3    0    0 -0.28449684837E+01  0.14428888506E+01 -0.27938468590E+01  0.42404427176E+01  0.51100000000E-03 0.  1.
        -12    1    3    3    0    0 -0.20579415240E+01  0.72882963081E+01 -0.11984284126E+02  0.14176651664E+02  0.00000000000E+00 0.  1.
</event>
<event>
 7    1  0.1486782E-008  0.4614232E+02  0.7816164E-02  0.1320468E+00
        -11   -1    0    0    0    0  0.00000000000E+00  0.00000000000E+00  0.45593999997E+02  0.45594000000E+02  0.51100000000E-03 0. -1.
         11   -1    0    0    0    0 -0.00000000000E+00 -0.00000000000E+00 -0.45593999997E+02  0.45594000000E+02  0.51100000000E-03 0.  1.
    9900012    2    1    2    0    0 -0.41548296531E+02 -0.17174285942E+02 -0.28101007303E+01  0.46142315319E+02  0.99999777341E+01 0.  0.
        -12    1    1    2    0    0  0.41548296531E+02  0.17174285942E+02  0.28101007303E+01  0.45045684681E+02  0.00000000000E+00 0.  1.
         11    1    3    3    0    0 -0.13677862835E+02 -0.45211718138E+01 -0.21649965032E+01  0.14567502752E+02  0.51100000000E-03 0. -1.
        -11    1    3    3    0    0 -0.10511484609E+01 -0.24400779946E+01  0.97729999732E+00  0.28309025509E+01  0.51100000000E-03 0.  1.
         12    1    3    3    0    0 -0.26819285235E+02 -0.10213036133E+02 -0.16224042244E+01  0.28743910017E+02  0.00000000000E+00 0. -1.
</event>
<event>
 7    1  0.1486782E-008  0.4614230E+02  0.7816164E-02  0.1320468E+00
        -11   -1    0    0    0    0  0.00000000000E+00  0.00000000000E+00  0.45593999997E+02  0.45594000000E+02  0.51100000000E-03 0.  1.
         11   -1    0    0    0    0 -0.00000000000E+00 -0.00000000000E+00 -0.45593999997E+02  0.45594000000E+02  0.51100000000E-03 0. -1.
    9900012    2    1    2    0    0 -0.60041968699E+00 -0.33375593998E+01 -0.44917868075E+02  0.46142304546E+02  0.99998794923E+01 0.  0.
        -12    1    1    2    0    0  0.60041968699E+00  0.33375593998E+01  0.44917868075E+02  0.45045695454E+02  0.00000000000E+00 0.  1.
         11    1    3    3    0    0 -0.16984842165E+01 -0.37251242436E+01 -0.23327352744E+02  0.23683892956E+02  0.51100000000E-03 0. -1.
        -11    1    3    3    0    0 -0.66816147230E+00 -0.70078317374E+00 -0.22715536244E+00  0.99455348246E+00  0.51100000000E-03 0.  1.
         12    1    3    3    0    0  0.17662260018E+01  0.10883480175E+01 -0.21363359969E+02  0.21463858108E+02  0.00000000000E+00 0. -1.
</event>
<event>
 7    1  0.1486782E-008  0.4614232E+02  0.7816164E-02  0.1320468E+00
        -11   -1    0    0    0    0  0.00000000000E+00  0.00000000000E+00  0.45593999997E+02  0.45594000000E+02  0.51100000000E-03 0.  1.
         11   -1    0    0    0    0 -0.00000000000E+00 -0.00000000000E+00 -0.45593999997E+02  0.45594000000E+02  0.51100000000E-03 0. -1.
    9900012    2    1    2    0    0  0.11101426786E+02  0.15213865111E+02 -0.40919556642E+02  0.46142317809E+02  0.10000000438E+02 0.  0.
        -12    1    1    2    0    0 -0.11101426786E+02 -0.15213865111E+02  0.40919556642E+02  0.45045682191E+02  0.00000000000E+00 0.  1.
         11    1    3    3    0    0 -0.43586071047E+00  0.59594396533E+01 -0.10954036913E+02  0.12477813129E+02  0.51100000000E-03 0. -1.
        -11    1    3    3    0    0  0.10959329573E+02  0.80689239530E+01 -0.28985224857E+02  0.32021207016E+02  0.51100000000E-03 0.  1.
        -12    1    3    3    0    0  0.57795792267E+00  0.11855015045E+01 -0.98029487143E+00  0.16432976640E+01  0.00000000000E+00 0.  1.
</event>
<event>
 7    1  0.1486782E-008  0.4614232E+02  0.7816164E-02  0.1320468E+00
        -11   -1    0    0    0    0  0.00000000000E+00  0.00000000000E+00  0.45593999997E+02  0.45594000000E+02  0.51100000000E-03 0.  1.
         11   -1    0    0    0    0 -0.00000000000E+00 -0.00000000000E+00 -0.45593999997E+02  0.45594000000E+02  0.51100000000E-03 0. -1.
    9900012    2    1    2    0    0  0.15833089210E+02  0.14908116277E+01 -0.42145040982E+02  0.46142315272E+02  0.99999772996E+01 0.  0.
        -12    1    1    2    0    0 -0.15833089210E+02 -0.14908116277E+01  0.42145040982E+02  0.45045684728E+02  0.00000000000E+00 0.  1.
         11    1    3    3    0    0  0.53536274934E+01  0.42217167556E+01 -0.10215478379E+02  0.12281702588E+02  0.51100000000E-03 0. -1.
        -11    1    3    3    0    0  0.63733370780E+01 -0.16696602940E+01 -0.14567919116E+02  0.15988478934E+02  0.51100000000E-03 0.  1.
         12    1    3    3    0    0  0.41061246385E+01 -0.10612448340E+01 -0.17361643488E+02  0.17872133749E+02  0.00000000000E+00 0. -1.
</event>
<event>
 7    1  0.1486782E-008  0.4614232E+02  0.7816164E-02  0.1320468E+00
        -11   -1    0    0    0    0  0.00000000000E+00  0.00000000000E+00  0.45593999997E+02  0.45594000000E+02  0.51100000000E-03 0. -1.
         11   -1    0    0    0    0 -0.00000000000E+00 -0.00000000000E+00 -0.45593999997E+02  0.45594000000E+02  0.51100000000E-03 0.  1.
    9900012    2    1    2    0    0  0.32423912678E+02  0.26653277199E+02  0.16352558034E+02  0.46142318153E+02  0.10000003578E+02 0.  0.
        -12    1    1    2    0    0 -0.32423912678E+02 -0.26653277199E+02 -0.16352558034E+02  0.45045681847E+02  0.00000000000E+00 0.  1.
         11    1    3    3    0    0  0.13191581837E+02  0.98790193888E+01  0.60629968917E+01  0.17560546319E+02  0.51100000000E-03 0. -1.
        -11    1    3    3    0    0  0.16477238136E+02  0.11099995665E+02  0.53638848502E+01  0.20578642844E+02  0.51100000000E-03 0.  1.
         12    1    3    3    0    0  0.27550927044E+01  0.56742621452E+01  0.49256762925E+01  0.80031289906E+01  0.00000000000E+00 0. -1.
</event>
<event>
 7    1  0.1486782E-008  0.4614232E+02  0.7816164E-02  0.1320468E+00
        -11   -1    0    0    0    0  0.00000000000E+00  0.00000000000E+00  0.45593999997E+02  0.45594000000E+02  0.51100000000E-03 0.  1.
         11   -1    0    0    0    0 -0.00000000000E+00 -0.00000000000E+00 -0.45593999997E+02  0.45594000000E+02  0.51100000000E-03 0. -1.
    9900012    2    1    2    0    0  0.81768709505E+01  0.40280364796E+02  0.18432159347E+02  0.46142317578E+02  0.99999983346E+01 0.  0.
        -12    1    1    2    0    0 -0.81768709505E+01 -0.40280364796E+02 -0.18432159347E+02  0.45045682422E+02  0.00000000000E+00 0.  1.
         11    1    3    3    0    0  0.11284326788E+01  0.14648670953E+01  0.71949635450E+00  0.19841550299E+01  0.51100000000E-03 0. -1.
        -11    1    3    3    0    0  0.16745086285E+01  0.12416156910E+02  0.12621423338E+01  0.12591978999E+02  0.51100000000E-03 0.  1.
        -12    1    3    3    0    0  0.53739296432E+01  0.26399340790E+02  0.16450520659E+02  0.31566183550E+02  0.00000000000E+00 0.  1.
</event>
<event>
 7    1  0.1486782E-008  0.4614232E+02  0.7816164E-02  0.1320468E+00
        -11   -1    0    0    0    0  0.00000000000E+00  0.00000000000E+00  0.45593999997E+02  0.45594000000E+02  0.51100000000E-03 0.  1.
         11   -1    0    0    0    0 -0.00000000000E+00 -0.00000000000E+00 -0.45593999997E+02  0.45594000000E+02  0.51100000000E-03 0. -1.
    9900012    2    1    2    0    0 -0.37144840850E+02  0.18775319106E+02 -0.17229677485E+02  0.46142316571E+02  0.99999891515E+01 0.  0.
        -12    1    1    2    0    0  0.37144840850E+02 -0.18775319106E+02  0.17229677485E+02  0.45045683429E+02  0.00000000000E+00 0.  1.
         11    1    3    3    0    0 -0.18294521445E+02  0.86240500369E+01 -0.88064672905E+01  0.22059411151E+02  0.51100000000E-03 0. -1.
        -11    1    3    3    0    0 -0.16280263653E+02  0.93205911000E+01 -0.44525903307E+01  0.19280714820E+02  0.51100000000E-03 0.  1.
        -12    1    3    3    0    0 -0.25700557522E+01  0.83067796889E+00 -0.39706198633E+01  0.48021905998E+01  0.00000000000E+00 0.  1.
</event>
<event>
 7    1  0.1486782E-008  0.4614232E+02  0.7816164E-02  0.1320468E+00
        -11   -1    0    0    0    0  0.00000000000E+00  0.00000000000E+00  0.45593999997E+02  0.45594000000E+02  0.51100000000E-03 0. -1.
         11   -1    0    0    0    0 -0.00000000000E+00 -0.00000000000E+00 -0.45593999997E+02  0.45594000000E+02  0.51100000000E-03 0.  1.
    9900012    2    1    2    0    0 -0.63227937375E+01 -0.42975389506E+02  0.11926927456E+02  0.46142318494E+02  0.10000006679E+02 0.  0.
        -12    1    1    2    0    0  0.63227937375E+01  0.42975389506E+02 -0.11926927456E+02  0.45045681506E+02  0.00000000000E+00 0.  1.
         11    1    3    3    0    0 -0.44989772824E+01 -0.14511844184E+02  0.22661960103E+01  0.15361317093E+02  0.51100000000E-03 0. -1.
        -11    1    3    3    0    0 -0.14812024516E+01 -0.25820450839E+02  0.10606012819E+02  0.27953124162E+02  0.51100000000E-03 0.  1.
        -12    1    3    3    0    0 -0.34261400350E+00 -0.26430944831E+01 -0.94528137369E+00  0.28278772388E+01  0.00000000000E+00 0.  1.
</event>
<event>
 7    1  0.1486782E-008  0.4614232E+02  0.7816164E-02  0.1320468E+00
        -11   -1    0    0    0    0  0.00000000000E+00  0.00000000000E+00  0.45593999997E+02  0.45594000000E+02  0.51100000000E-03 0.  1.
         11   -1    0    0    0    0 -0.00000000000E+00 -0.00000000000E+00 -0.45593999997E+02  0.45594000000E+02  0.51100000000E-03 0. -1.
    9900012    2    1    2    0    0  0.15004953923E+02  0.41474712435E+02 -0.91549522361E+01  0.46142316919E+02  0.99999923172E+01 0.  0.
        -12    1    1    2    0    0 -0.15004953923E+02 -0.41474712435E+02  0.91549522361E+01  0.45045683081E+02  0.00000000000E+00 0.  1.
         11    1    3    3    0    0  0.53286143707E+01  0.15542793579E+02 -0.39355946389E+01  0.16895605014E+02  0.51100000000E-03 0. -1.
        -11    1    3    3    0    0  0.84076504377E+01  0.12615571399E+02 -0.46513783218E+01  0.15858012112E+02  0.51100000000E-03 0.  1.
        -12    1    3    3    0    0  0.12686891144E+01  0.13316347458E+02 -0.56797927533E+00  0.13388699793E+02  0.00000000000E+00 0.  1.
</event>
<event>
 7    1  0.1486782E-008  0.4614232E+02  0.7816164E-02  0.1320468E+00
        -11   -1    0    0    0    0  0.00000000000E+00  0.00000000000E+00  0.45593999997E+02  0.45594000000E+02  0.51100000000E-03 0.  1.
         11   -1    0    0    0    0 -0.00000000000E+00 -0.00000000000E+00 -0.45593999997E+02  0.45594000000E+02  0.51100000000E-03 0. -1.
    9900012    2    1    2    0    0 -0.12331353595E+02  0.40143544504E+02 -0.16295610595E+02  0.46142319059E+02  0.10000011834E+02 0.  0.
        -12    1    1    2    0    0  0.12331353595E+02 -0.40143544504E+02  0.16295610595E+02  0.45045680941E+02  0.00000000000E+00 0.  1.
         11    1    3    3    0    0 -0.27989689921E+01  0.58921957551E+01 -0.47143779492E+01  0.80484506549E+01  0.51100000000E-03 0. -1.
        -11    1    3    3    0    0 -0.52959205170E+00  0.11857123672E+02 -0.16038088179E+01  0.11976813120E+02  0.51100000000E-03 0.  1.
        -12    1    3    3    0    0 -0.90027925512E+01  0.22394225076E+02 -0.99774238276E+01  0.26117055284E+02  0.00000000000E+00 0.  1.
</event>
<event>
 7    1  0.1486782E-008  0.4614232E+02  0.7816164E-02  0.1320468E+00
        -11   -1    0    0    0    0  0.00000000000E+00  0.00000000000E+00  0.45593999997E+02  0.45594000000E+02  0.51100000000E-03 0.  1.
         11   -1    0    0    0    0 -0.00000000000E+00 -0.00000000000E+00 -0.45593999997E+02  0.45594000000E+02  0.51100000000E-03 0. -1.
    9900012    2    1    2    0    0  0.33795619271E+02  0.22412026257E+02 -0.19613024015E+02  0.46142317478E+02  0.99999974182E+01 0.  0.
        -12    1    1    2    0    0 -0.33795619271E+02 -0.22412026257E+02  0.19613024015E+02  0.45045682522E+02  0.00000000000E+00 0.  1.
         11    1    3    3    0    0  0.13966431173E+02  0.54721175261E+01 -0.11232347478E+02  0.18739554425E+02  0.51100000000E-03 0.  1.
        -11    1    3    3    0    0  0.13005251822E+02  0.11347038924E+02 -0.52411802500E+01  0.18037789165E+02  0.51100000000E-03 0. -1.
        -12    1    3    3    0    0  0.68239362757E+01  0.55928698071E+01 -0.31394962874E+01  0.93649738874E+01  0.00000000000E+00 0.  1.
</event>
<event>
 7    1  0.1486782E-008  0.4614232E+02  0.7816164E-02  0.1320468E+00
        -11   -1    0    0    0    0  0.00000000000E+00  0.00000000000E+00  0.45593999997E+02  0.45594000000E+02  0.51100000000E-03 0.  1.
         11   -1    0    0    0    0 -0.00000000000E+00 -0.00000000000E+00 -0.45593999997E+02  0.45594000000E+02  0.51100000000E-03 0. -1.
    9900012    2    1    2    0    0 -0.61649982597E+01  0.41587668262E+02 -0.16173192003E+02  0.46142317693E+02  0.99999993744E+01 0.  0.
        -12    1    1    2    0    0  0.61649982597E+01 -0.41587668262E+02  0.16173192003E+02  0.45045682307E+02  0.00000000000E+00 0.  1.
         11    1    3    3    0    0  0.16424471377E+01  0.10627066822E+02 -0.66921157379E+01  0.12665567304E+02  0.51100000000E-03 0.  1.
        -11    1    3    3    0    0 -0.34050802309E+01  0.15440230336E+02 -0.30129817298E+01  0.16095755446E+02  0.51100000000E-03 0. -1.
        -12    1    3    3    0    0 -0.44023651665E+01  0.15520371104E+02 -0.64680945351E+01  0.17380994942E+02  0.00000000000E+00 0.  1.
</event>
<event>
 7    1  0.1486782E-008  0.4614232E+02  0.7816164E-02  0.1320468E+00
        -11   -1    0    0    0    0  0.00000000000E+00  0.00000000000E+00  0.45593999997E+02  0.45594000000E+02  0.51100000000E-03 0.  1.
         11   -1    0    0    0    0 -0.00000000000E+00 -0.00000000000E+00 -0.45593999997E+02  0.45594000000E+02  0.51100000000E-03 0. -1.
    9900012    2    1    2    0    0  0.42777718862E+01  0.28215055535E+02 -0.34852901814E+02  0.46142318120E+02  0.10000003273E+02 0.  0.
        -12    1    1    2    0    0 -0.42777718862E+01 -0.28215055535E+02  0.34852901814E+02  0.45045681880E+02  0.00000000000E+00 0.  1.
         11    1    3    3    0    0 -0.44573122609E+00  0.56317890426E+01 -0.32651630943E+01  0.65251064696E+01  0.51100000000E-03 0. -1.
        -11    1    3    3    0    0  0.11011728354E+01  0.14117257366E+02 -0.23095084924E+02  0.27090450071E+02  0.51100000000E-03 0.  1.
        -12    1    3    3    0    0  0.36223302769E+01  0.84660091267E+01 -0.84926537964E+01  0.12526761580E+02  0.00000000000E+00 0.  1.
</event>
<event>
 7    1  0.1486782E-008  0.4614232E+02  0.7816164E-02  0.1320468E+00
        -11   -1    0    0    0    0  0.00000000000E+00  0.00000000000E+00  0.45593999997E+02  0.45594000000E+02  0.51100000000E-03 0. -1.
         11   -1    0    0    0    0 -0.00000000000E+00 -0.00000000000E+00 -0.45593999997E+02  0.45594000000E+02  0.51100000000E-03 0.  1.
    9900012    2    1    2    0    0  0.41341453051E+02  0.13510698306E+02  0.11724280174E+02  0.46142318135E+02  0.10000003413E+02 0.  0.
        -12    1    1    2    0    0 -0.41341453051E+02 -0.13510698306E+02 -0.11724280174E+02  0.45045681865E+02  0.00000000000E+00 0.  1.
         11    1    3    3    0    0  0.17813043197E+02  0.81360097096E+01  0.25025964611E+01  0.19742394770E+02  0.51100000000E-03 0. -1.
        -11    1    3    3    0    0  0.25289824486E+01  0.23404338717E+01  0.60008837412E+00  0.34976405262E+01  0.51100000000E-03 0.  1.
         12    1    3    3    0    0  0.20999427405E+02  0.30342547246E+01  0.86215953390E+01  0.22902282839E+02  0.00000000000E+00 0. -1.
</event>
<event>
 7    1  0.1486782E-008  0.4614232E+02  0.7816164E-02  0.1320468E+00
        -11   -1    0    0    0    0  0.00000000000E+00  0.00000000000E+00  0.45593999997E+02  0.45594000000E+02  0.51100000000E-03 0.  1.
         11   -1    0    0    0    0 -0.00000000000E+00 -0.00000000000E+00 -0.45593999997E+02  0.45594000000E+02  0.51100000000E-03 0. -1.
    9900012    2    1    2    0    0 -0.10239970343E+01 -0.22665604077E+02 -0.38914459164E+02  0.46142319740E+02  0.10000018045E+02 0.  0.
        -12    1    1    2    0    0  0.10239970343E+01  0.22665604077E+02  0.38914459164E+02  0.45045680260E+02  0.00000000000E+00 0.  1.
         11    1    3    3    0    0 -0.32222160692E+01 -0.14289918511E+02 -0.21907196154E+02  0.26353551773E+02  0.51100000000E-03 0. -1.
        -11    1    3    3    0    0  0.17436105685E+01 -0.88818006443E+01 -0.16790455173E+02  0.19074746281E+02  0.51100000000E-03 0.  1.
        -12    1    3    3    0    0  0.45460846644E+00  0.50611507878E+00 -0.21680783708E+00  0.71402168661E+00  0.00000000000E+00 0.  1.
</event>
<event>
 7    1  0.1486782E-008  0.4614231E+02  0.7816164E-02  0.1320468E+00
        -11   -1    0    0    0    0  0.00000000000E+00  0.00000000000E+00  0.45593999997E+02  0.45594000000E+02  0.51100000000E-03 0.  1.
         11   -1    0    0    0    0 -0.00000000000E+00 -0.00000000000E+00 -0.45593999997E+02  0.45594000000E+02  0.51100000000E-03 0. -1.
    9900012    2    1    2    0    0  0.43800956439E+02  0.30468683294E+01 -0.10065116441E+02  0.46142314740E+02  0.99999724503E+01 0.  0.
        -12    1    1    2    0    0 -0.43800956439E+02 -0.30468683294E+01  0.10065116441E+02  0.45045685260E+02  0.00000000000E+00 0.  1.
         11    1    3    3    0    0  0.81662492365E-01 -0.42957555729E+00 -0.11237140945E+01  0.12057933278E+01  0.51100000000E-03 0.  1.
        -11    1    3    3    0    0  0.35999368202E+02  0.22111778321E+01 -0.87396941183E+01  0.37110996643E+02  0.51100000000E-03 0. -1.
         12    1    3    3    0    0  0.77199257451E+01  0.12652660545E+01 -0.20170822789E+00  0.78255247688E+01  0.00000000000E+00 0. -1.
</event>
<event>
 7    1  0.1486782E-008  0.4614232E+02  0.7816164E-02  0.1320468E+00
        -11   -1    0    0    0    0  0.00000000000E+00  0.00000000000E+00  0.45593999997E+02  0.45594000000E+02  0.51100000000E-03 0.  1.
         11   -1    0    0    0    0 -0.00000000000E+00 -0.00000000000E+00 -0.45593999997E+02  0.45594000000E+02  0.51100000000E-03 0. -1.
    9900012    2    1    2    0    0  0.32452776861E+02 -0.31114343634E+02 -0.27979245231E+01  0.46142317772E+02  0.10000000096E+02 0.  0.
        -12    1    1    2    0    0 -0.32452776861E+02  0.31114343634E+02  0.27979245231E+01  0.45045682228E+02  0.00000000000E+00 0.  1.
         11    1    3    3    0    0  0.14254470053E+02 -0.11124676135E+02 -0.43423463303E-01  0.18081764888E+02  0.51100000000E-03 0. -1.
        -11    1    3    3    0    0  0.11357755796E+02 -0.16373868423E+02 -0.25361856890E+00  0.19929036767E+02  0.51100000000E-03 0.  1.
        -12    1    3    3    0    0  0.68405510130E+01 -0.36157990762E+01 -0.25008824909E+01  0.81315161165E+01  0.00000000000E+00 0.  1.
</event>
<event>
 7    1  0.1486782E-008  0.4614232E+02  0.7816164E-02  0.1320468E+00
        -11   -1    0    0    0    0  0.00000000000E+00  0.00000000000E+00  0.45593999997E+02  0.45594000000E+02  0.51100000000E-03 0. -1.
         11   -1    0    0    0    0 -0.00000000000E+00 -0.00000000000E+00 -0.45593999997E+02  0.45594000000E+02  0.51100000000E-03 0.  1.
    9900012    2    1    2    0    0 -0.26003589810E+02  0.36737707594E+02 -0.18076589494E+01  0.46142317930E+02  0.10000001542E+02 0.  0.
        -12    1    1    2    0    0  0.26003589810E+02 -0.36737707594E+02  0.18076589494E+01  0.45045682070E+02  0.00000000000E+00 0.  1.
         11    1    3    3    0    0 -0.69299567826E+01  0.92715785379E+01 -0.14260109601E+01  0.11662760270E+02  0.51100000000E-03 0. -1.
        -11    1    3    3    0    0 -0.16489354834E+02  0.25790035442E+02 -0.25435699197E+01  0.30716355564E+02  0.51100000000E-03 0.  1.
        -12    1    3    3    0    0 -0.25842781938E+01  0.16760936135E+01  0.21619219303E+01  0.37632020962E+01  0.00000000000E+00 0.  1.
</event>
<event>
 7    1  0.1486782E-008  0.4614232E+02  0.7816164E-02  0.1320468E+00
        -11   -1    0    0    0    0  0.00000000000E+00  0.00000000000E+00  0.45593999997E+02  0.45594000000E+02  0.51100000000E-03 0.  1.
         11   -1    0    0    0    0 -0.00000000000E+00 -0.00000000000E+00 -0.45593999997E+02  0.45594000000E+02  0.51100000000E-03 0. -1.
    9900012    2    1    2    0    0  0.19518094945E+02 -0.40264448683E+01 -0.40397341061E+02  0.46142318149E+02  0.10000003538E+02 0.  0.
        -12    1    1    2    0    0 -0.19518094945E+02  0.40264448683E+01  0.40397341061E+02  0.45045681851E+02  0.00000000000E+00 0.  1.
         11    1    3    3    0    0  0.61405984850E+01  0.27736419739E+01 -0.16419827093E+02  0.17748542520E+02  0.51100000000E-03 0. -1.
        -11    1    3    3    0    0  0.32072384444E+01 -0.28621203226E+01 -0.65104513205E+01  0.78015439394E+01  0.51100000000E-03 0.  1.
        -12    1    3    3    0    0  0.10170258016E+02 -0.39379665196E+01 -0.17467062648E+02  0.20592231690E+02  0.00000000000E+00 0.  1.
</event>
<event>
 7    1  0.1486782E-008  0.4614232E+02  0.7816164E-02  0.1320468E+00
        -11   -1    0    0    0    0  0.00000000000E+00  0.00000000000E+00  0.45593999997E+02  0.45594000000E+02  0.51100000000E-03 0.  1.
         11   -1    0    0    0    0 -0.00000000000E+00 -0.00000000000E+00 -0.45593999997E+02  0.45594000000E+02  0.51100000000E-03 0. -1.
    9900012    2    1    2    0    0 -0.38892192960E+02  0.22568314285E+02 -0.26799520546E+01  0.46142316234E+02  0.99999860759E+01 0.  0.
        -12    1    1    2    0    0  0.38892192960E+02 -0.22568314285E+02  0.26799520546E+01  0.45045683766E+02  0.00000000000E+00 0.  1.
         11    1    3    3    0    0 -0.92269230060E+01  0.39482375347E+01  0.20765266561E+01  0.10248738996E+02  0.51100000000E-03 0. -1.
        -11    1    3    3    0    0 -0.70999264836E+01  0.15126864993E+01 -0.88281200151E+00  0.73127651274E+01  0.51100000000E-03 0.  1.
         12    1    3    3    0    0 -0.22565343470E+02  0.17107390251E+02 -0.38736667091E+01  0.28580812111E+02  0.00000000000E+00 0. -1.
</event>
<event>
 7    1  0.1486782E-008  0.4614231E+02  0.7816164E-02  0.1320468E+00
        -11   -1    0    0    0    0  0.00000000000E+00  0.00000000000E+00  0.45593999997E+02  0.45594000000E+02  0.51100000000E-03 0.  1.
         11   -1    0    0    0    0 -0.00000000000E+00 -0.00000000000E+00 -0.45593999997E+02  0.45594000000E+02  0.51100000000E-03 0. -1.
    9900012    2    1    2    0    0 -0.36561894552E+02 -0.24122551984E+02  0.10509273103E+02  0.46142306880E+02  0.99999007803E+01 0.  0.
        -12    1    1    2    0    0  0.36561894552E+02  0.24122551984E+02 -0.10509273103E+02  0.45045693120E+02  0.00000000000E+00 0.  1.
         11    1    3    3    0    0 -0.21525386853E+02 -0.11944815683E+02  0.75191209926E+01  0.25740203605E+02  0.51100000000E-03 0. -1.
        -11    1    3    3    0    0 -0.77987604050E+01 -0.45652138613E+01 -0.11540277157E+01  0.91100835169E+01  0.51100000000E-03 0.  1.
        -12    1    3    3    0    0 -0.72377472938E+01 -0.76125224399E+01  0.41441798258E+01  0.11292019758E+02  0.00000000000E+00 0.  1.
</event>
<event>
 7    1  0.1486782E-008  0.4614232E+02  0.7816164E-02  0.1320468E+00
        -11   -1    0    0    0    0  0.00000000000E+00  0.00000000000E+00  0.45593999997E+02  0.45594000000E+02  0.51100000000E-03 0.  1.
         11   -1    0    0    0    0 -0.00000000000E+00 -0.00000000000E+00 -0.45593999997E+02  0.45594000000E+02  0.51100000000E-03 0. -1.
    9900012    2    1    2    0    0  0.76723618826E+01  0.28791362131E+02 -0.33783214739E+02  0.46142320204E+02  0.10000022274E+02 0.  0.
        -12    1    1    2    0    0 -0.76723618826E+01 -0.28791362131E+02  0.33783214739E+02  0.45045679796E+02  0.00000000000E+00 0.  1.
         11    1    3    3    0    0  0.17447506111E+01  0.56165219206E+01 -0.43826693278E+01  0.73346618107E+01  0.51100000000E-03 0. -1.
        -11    1    3    3    0    0  0.47586450008E+01  0.42934545900E+01 -0.77374809611E+01  0.10047241733E+02  0.51100000000E-03 0.  1.
        -12    1    3    3    0    0  0.11689662707E+01  0.18881385621E+02 -0.21663064450E+02  0.28760416660E+02  0.00000000000E+00 0.  1.
</event>
<event>
 7    1  0.1486782E-008  0.4614232E+02  0.7816164E-02  0.1320468E+00
        -11   -1    0    0    0    0  0.00000000000E+00  0.00000000000E+00  0.45593999997E+02  0.45594000000E+02  0.51100000000E-03 0.  1.
         11   -1    0    0    0    0 -0.00000000000E+00 -0.00000000000E+00 -0.45593999997E+02  0.45594000000E+02  0.51100000000E-03 0. -1.
    9900012    2    1    2    0    0  0.77589458796E+01 -0.15770214880E+02 -0.41475445472E+02  0.46142317681E+02  0.99999992658E+01 0.  0.
        -12    1    1    2    0    0 -0.77589458796E+01  0.15770214880E+02  0.41475445472E+02  0.45045682319E+02  0.00000000000E+00 0.  1.
         11    1    3    3    0    0  0.55858692436E+01 -0.23365778275E+01 -0.11361870122E+02  0.12874533936E+02  0.51100000000E-03 0. -1.
        -11    1    3    3    0    0  0.10777769947E+01 -0.10211411141E+02 -0.18415593530E+02  0.21084795614E+02  0.51100000000E-03 0.  1.
         12    1    3    3    0    0  0.10952996414E+01 -0.32222259109E+01 -0.11697981820E+02  0.12182988130E+02  0.00000000000E+00 0. -1.
</event>
<event>
 7    1  0.1486782E-008  0.4614232E+02  0.7816164E-02  0.1320468E+00
        -11   -1    0    0    0    0  0.00000000000E+00  0.00000000000E+00  0.45593999997E+02  0.45594000000E+02  0.51100000000E-03 0. -1.
         11   -1    0    0    0    0 -0.00000000000E+00 -0.00000000000E+00 -0.45593999997E+02  0.45594000000E+02  0.51100000000E-03 0.  1.
    9900012    2    1    2    0    0  0.89428876339E+01  0.42901633093E+02 -0.10420569927E+02  0.46142316090E+02  0.99999847645E+01 0.  0.
        -12    1    1    2    0    0 -0.89428876339E+01 -0.42901633093E+02  0.10420569927E+02  0.45045683910E+02  0.00000000000E+00 0.  1.
         11    1    3    3    0    0  0.60523548943E+01  0.16543671171E+02 -0.89760796856E+00  0.17638870596E+02  0.51100000000E-03 0. -1.
        -11    1    3    3    0    0  0.35713306261E+01  0.12877325084E+02 -0.44800873858E+01  0.14094363661E+02  0.51100000000E-03 0.  1.
        -12    1    3    3    0    0 -0.68079788650E+00  0.13480636838E+02 -0.50428745729E+01  0.14409081833E+02  0.00000000000E+00 0.  1.
</event>
<event>
 7    1  0.1486782E-008  0.4614232E+02  0.7816164E-02  0.1320468E+00
        -11   -1    0    0    0    0  0.00000000000E+00  0.00000000000E+00  0.45593999997E+02  0.45594000000E+02  0.51100000000E-03 0.  1.
         11   -1    0    0    0    0 -0.00000000000E+00 -0.00000000000E+00 -0.45593999997E+02  0.45594000000E+02  0.51100000000E-03 0. -1.
    9900012    2    1    2    0    0 -0.13774023190E+02  0.33106647736E+02 -0.27264255605E+02  0.46142317933E+02  0.10000001570E+02 0.  0.
        -12    1    1    2    0    0  0.13774023190E+02 -0.33106647736E+02  0.27264255605E+02  0.45045682067E+02  0.00000000000E+00 0.  1.
         11    1    3    3    0    0 -0.31439200623E+01  0.13799421386E+02 -0.11749051234E+02  0.18394250980E+02  0.51100000000E-03 0. -1.
        -11    1    3    3    0    0 -0.40011373312E+01  0.59494866698E+01 -0.15876712050E+01  0.73434454920E+01  0.51100000000E-03 0.  1.
         12    1    3    3    0    0 -0.66289657969E+01  0.13357739680E+02 -0.13927533165E+02  0.20404621461E+02  0.00000000000E+00 0. -1.
</event>
<event>
 7    1  0.1995230E-008  0.4614232E+02  0.7816164E-02  0.1320468E+00
        -11   -1    0    0    0    0  0.00000000000E+00  0.00000000000E+00  0.45593999997E+02  0.45594000000E+02  0.51100000000E-03 0. -1.
         11   -1    0    0    0    0 -0.00000000000E+00 -0.00000000000E+00 -0.45593999997E+02  0.45594000000E+02  0.51100000000E-03 0.  1.
    9900012    2    1    2    0    0  0.70963024082E+01  0.44376207371E+02  0.30835640830E+01  0.46142315901E+02  0.99999830344E+01 0.  0.
        -12    1    1    2    0    0 -0.70963024082E+01 -0.44376207371E+02 -0.30835640830E+01  0.45045684099E+02  0.00000000000E+00 0.  1.
         11    1    3    3    0    0  0.74350115586E+01  0.41812784395E+02  0.29975744016E+01  0.42574332505E+02  0.51100000000E-03 0. -1.
        -11    1    3    3    0    0  0.15055066483E+00  0.43462105349E+00  0.10757081344E+01  0.11699184648E+01  0.51100000000E-03 0.  1.
         12    1    3    3    0    0 -0.48925981530E+00  0.21288019233E+01 -0.98971845301E+00  0.23980649306E+01  0.00000000000E+00 0. -1.
</event>
<event>
 7    1  0.1486782E-008  0.4614232E+02  0.7816164E-02  0.1320468E+00
        -11   -1    0    0    0    0  0.00000000000E+00  0.00000000000E+00  0.45593999997E+02  0.45594000000E+02  0.51100000000E-03 0. -1.
         11   -1    0    0    0    0 -0.00000000000E+00 -0.00000000000E+00 -0.45593999997E+02  0.45594000000E+02  0.51100000000E-03 0.  1.
    9900012    2    1    2    0    0 -0.21646733885E+02 -0.30523450256E+02  0.25076909974E+02  0.46142317440E+02  0.99999970743E+01 0.  0.
        -12    1    1    2    0    0  0.21646733885E+02  0.30523450256E+02 -0.25076909974E+02  0.45045682560E+02  0.00000000000E+00 0.  1.
         11    1    3    3    0    0 -0.76900062977E+01 -0.14137265207E+02  0.56295009002E+01  0.17049625950E+02  0.51100000000E-03 0. -1.
        -11    1    3    3    0    0 -0.13837416036E+02 -0.16166777774E+02  0.18786296675E+02  0.28385977686E+02  0.51100000000E-03 0.  1.
         12    1    3    3    0    0 -0.11931155218E+00 -0.21940727555E+00  0.66111239820E+00  0.70671380495E+00  0.00000000000E+00 0. -1.
</event>
<event>
 7    1  0.1486782E-008  0.4614232E+02  0.7816164E-02  0.1320468E+00
        -11   -1    0    0    0    0  0.00000000000E+00  0.00000000000E+00  0.45593999997E+02  0.45594000000E+02  0.51100000000E-03 0. -1.
         11   -1    0    0    0    0 -0.00000000000E+00 -0.00000000000E+00 -0.45593999997E+02  0.45594000000E+02  0.51100000000E-03 0.  1.
    9900012    2    1    2    0    0 -0.95128720141E+01  0.28881738149E+02  0.33233476310E+02  0.46142317853E+02  0.10000000839E+02 0.  0.
        -12    1    1    2    0    0  0.95128720141E+01 -0.28881738149E+02 -0.33233476310E+02  0.45045682147E+02  0.00000000000E+00 0.  1.
         11    1    3    3    0    0 -0.57519710724E+01  0.14670949001E+02  0.12849742957E+02  0.20333170194E+02  0.51100000000E-03 0. -1.
        -11    1    3    3    0    0  0.21079453830E-02  0.63666531572E+01  0.12679750753E+02  0.14188388079E+02  0.51100000000E-03 0.  1.
         12    1    3    3    0    0 -0.37630088870E+01  0.78441359902E+01  0.77039825993E+01  0.11620759580E+02  0.00000000000E+00 0. -1.
</event>
<event>
 7    1  0.1486782E-008  0.4614232E+02  0.7816164E-02  0.1320468E+00
        -11   -1    0    0    0    0  0.00000000000E+00  0.00000000000E+00  0.45593999997E+02  0.45594000000E+02  0.51100000000E-03 0.  1.
         11   -1    0    0    0    0 -0.00000000000E+00 -0.00000000000E+00 -0.45593999997E+02  0.45594000000E+02  0.51100000000E-03 0. -1.
    9900012    2    1    2    0    0  0.32160217987E+02 -0.99011428953E+01 -0.29946640145E+02  0.46142317548E+02  0.99999980537E+01 0.  0.
        -12    1    1    2    0    0 -0.32160217987E+02  0.99011428953E+01  0.29946640145E+02  0.45045682452E+02  0.00000000000E+00 0.  1.
         11    1    3    3    0    0  0.53654193819E+01 -0.27496200687E+01 -0.71582754853E+01  0.93589018507E+01  0.51100000000E-03 0. -1.
        -11    1    3    3    0    0  0.17951517419E+02 -0.77527914208E+01 -0.18571265453E+02  0.26967659395E+02  0.51100000000E-03 0.  1.
        -12    1    3    3    0    0  0.88432811864E+01  0.60126859413E+00 -0.42170992073E+01  0.98157563024E+01  0.00000000000E+00 0.  1.
</event>
<event>
 7    1  0.1486782E-008  0.4614232E+02  0.7816164E-02  0.1320468E+00
        -11   -1    0    0    0    0  0.00000000000E+00  0.00000000000E+00  0.45593999997E+02  0.45594000000E+02  0.51100000000E-03 0.  1.
         11   -1    0    0    0    0 -0.00000000000E+00 -0.00000000000E+00 -0.45593999997E+02  0.45594000000E+02  0.51100000000E-03 0. -1.
    9900012    2    1    2    0    0  0.35078876737E+02  0.17188540993E+02 -0.22430779467E+02  0.46142318718E+02  0.10000008729E+02 0.  0.
        -12    1    1    2    0    0 -0.35078876737E+02 -0.17188540993E+02  0.22430779467E+02  0.45045681282E+02  0.00000000000E+00 0.  1.
         11    1    3    3    0    0  0.14379454998E+02  0.10267095388E+02 -0.70011489653E+01  0.19005211413E+02  0.51100000000E-03 0. -1.
        -11    1    3    3    0    0  0.20880120588E+02  0.70675742207E+01 -0.15048056248E+02  0.26690336046E+02  0.51100000000E-03 0.  1.
         12    1    3    3    0    0 -0.18069884931E+00 -0.14612861629E+00 -0.38157425440E+00  0.44677125944E+00  0.00000000000E+00 0. -1.
</event>
<event>
 7    1  0.1486782E-008  0.4614232E+02  0.7816164E-02  0.1320468E+00
        -11   -1    0    0    0    0  0.00000000000E+00  0.00000000000E+00  0.45593999997E+02  0.45594000000E+02  0.51100000000E-03 0. -1.
         11   -1    0    0    0    0 -0.00000000000E+00 -0.00000000000E+00 -0.45593999997E+02  0.45594000000E+02  0.51100000000E-03 0.  1.
    9900012    2    1    2    0    0 -0.21371553021E+02 -0.34112136195E+02  0.20217133972E+02  0.46142316296E+02  0.99999866359E+01 0.  0.
        -12    1    1    2    0    0  0.21371553021E+02  0.34112136195E+02 -0.20217133972E+02  0.45045683704E+02  0.00000000000E+00 0.  1.
         11    1    3    3    0    0 -0.11939375301E+02 -0.18780517056E+02  0.11912965331E+02  0.25242330453E+02  0.51100000000E-03 0. -1.
        -11    1    3    3    0    0 -0.66948069984E+01 -0.69181271397E+01  0.71190212703E+01  0.11973361599E+02  0.51100000000E-03 0.  1.
         12    1    3    3    0    0 -0.27373707220E+01 -0.84134920000E+01  0.11851473713E+01  0.89266242441E+01  0.00000000000E+00 0. -1.
</event>
<event>
 7    1  0.1486782E-008  0.4614232E+02  0.7816164E-02  0.1320468E+00
        -11   -1    0    0    0    0  0.00000000000E+00  0.00000000000E+00  0.45593999997E+02  0.45594000000E+02  0.51100000000E-03 0.  1.
         11   -1    0    0    0    0 -0.00000000000E+00 -0.00000000000E+00 -0.45593999997E+02  0.45594000000E+02  0.51100000000E-03 0. -1.
    9900012    2    1    2    0    0 -0.52050900839E+01  0.44743284825E+02  0.24279260056E+00  0.46142318210E+02  0.10000004092E+02 0.  0.
        -12    1    1    2    0    0  0.52050900839E+01 -0.44743284825E+02 -0.24279260056E+00  0.45045681790E+02  0.00000000000E+00 0.  1.
         11    1    3    3    0    0 -0.16495287749E+01  0.34992653080E+02  0.17333015143E+01  0.35074364558E+02  0.51100000000E-03 0. -1.
        -11    1    3    3    0    0 -0.22961566622E+01  0.23180620134E+01 -0.13419648716E+01  0.35279763169E+01  0.51100000000E-03 0.  1.
         12    1    3    3    0    0 -0.12594046469E+01  0.74325697315E+01 -0.14854404220E+00  0.75399773349E+01  0.00000000000E+00 0. -1.
</event>
<event>
 7    1  0.1486782E-008  0.4614232E+02  0.7816164E-02  0.1320468E+00
        -11   -1    0    0    0    0  0.00000000000E+00  0.00000000000E+00  0.45593999997E+02  0.45594000000E+02  0.51100000000E-03 0.  1.
         11   -1    0    0    0    0 -0.00000000000E+00 -0.00000000000E+00 -0.45593999997E+02  0.45594000000E+02  0.51100000000E-03 0. -1.
    9900012    2    1    2    0    0  0.13169506218E+01  0.27896563313E+02 -0.35343471082E+02  0.46142317057E+02  0.99999935829E+01 0.  0.
        -12    1    1    2    0    0 -0.13169506218E+01 -0.27896563313E+02  0.35343471082E+02  0.45045682943E+02  0.00000000000E+00 0.  1.
         11    1    3    3    0    0 -0.29489306790E+00  0.49899491087E+01 -0.62699004639E+01  0.80186162221E+01  0.51100000000E-03 0. -1.
        -11    1    3    3    0    0 -0.81963755975E+00  0.17071493130E+02 -0.25949954434E+02  0.31072621692E+02  0.51100000000E-03 0.  1.
        -12    1    3    3    0    0  0.24314812494E+01  0.58351210743E+01 -0.31236161842E+01  0.70510791432E+01  0.00000000000E+00 0.  1.
</event>
<event>
 7    1  0.1486782E-008  0.4614232E+02  0.7816164E-02  0.1320468E+00
        -11   -1    0    0    0    0  0.00000000000E+00  0.00000000000E+00  0.45593999997E+02  0.45594000000E+02  0.51100000000E-03 0.  1.
         11   -1    0    0    0    0 -0.00000000000E+00 -0.00000000000E+00 -0.45593999997E+02  0.45594000000E+02  0.51100000000E-03 0. -1.
    9900012    2    1    2    0    0  0.28496639572E+02  0.20629495239E+02 -0.28133236471E+02  0.46142317243E+02  0.99999952742E+01 0.  0.
        -12    1    1    2    0    0 -0.28496639572E+02 -0.20629495239E+02  0.28133236471E+02  0.45045682757E+02  0.00000000000E+00 0.  1.
         11    1    3    3    0    0  0.11736671962E+02  0.10145903550E+02 -0.17161968591E+02  0.23134865329E+02  0.51100000000E-03 0. -1.
        -11    1    3    3    0    0  0.15825976968E+02  0.91144801363E+01 -0.11054518853E+02  0.21348013549E+02  0.51100000000E-03 0.  1.
         12    1    3    3    0    0  0.93399064200E+00  0.13691115529E+01  0.83250973381E-01  0.16594383653E+01  0.00000000000E+00 0. -1.
</event>
<event>
 7    1  0.1486782E-008  0.4614232E+02  0.7816164E-02  0.1320468E+00
        -11   -1    0    0    0    0  0.00000000000E+00  0.00000000000E+00  0.45593999997E+02  0.45594000000E+02  0.51100000000E-03 0.  1.
         11   -1    0    0    0    0 -0.00000000000E+00 -0.00000000000E+00 -0.45593999997E+02  0.45594000000E+02  0.51100000000E-03 0. -1.
    9900012    2    1    2    0    0  0.38910990563E+02 -0.35341896343E-02 -0.22694676010E+02  0.46142317429E+02  0.99999969726E+01 0.  0.
        -12    1    1    2    0    0 -0.38910990563E+02  0.35341896343E-02  0.22694676010E+02  0.45045682571E+02  0.00000000000E+00 0.  1.
         11    1    3    3    0    0  0.12008216887E+02  0.29131807942E+01 -0.82813794219E+01  0.14874983715E+02  0.51100000000E-03 0. -1.
        -11    1    3    3    0    0  0.25773188343E+02 -0.19666745747E+01 -0.12140328237E+02  0.28557181517E+02  0.51100000000E-03 0.  1.
        -12    1    3    3    0    0  0.11295853336E+01 -0.95004040909E+00 -0.22729683515E+01  0.27101521971E+01  0.00000000000E+00 0.  1.
</event>
<event>
 7    1  0.1486782E-008  0.4614231E+02  0.7816164E-02  0.1320468E+00
        -11   -1    0    0    0    0  0.00000000000E+00  0.00000000000E+00  0.45593999997E+02  0.45594000000E+02  0.51100000000E-03 0.  1.
         11   -1    0    0    0    0 -0.00000000000E+00 -0.00000000000E+00 -0.45593999997E+02  0.45594000000E+02  0.51100000000E-03 0. -1.
    9900012    2    1    2    0    0  0.95906730500E+00 -0.28846888635E+02 -0.34583982239E+02  0.46142305184E+02  0.99998853070E+01 0.  0.
        -12    1    1    2    0    0 -0.95906730500E+00  0.28846888635E+02  0.34583982239E+02  0.45045694816E+02  0.00000000000E+00 0.  1.
         11    1    3    3    0    0  0.67808864003E+00 -0.16596101169E+01 -0.58672727341E+01  0.61350631245E+01  0.51100000000E-03 0. -1.
        -11    1    3    3    0    0 -0.11867186332E+00 -0.20884850495E+02 -0.18015831995E+02  0.27581901058E+02  0.51100000000E-03 0.  1.
        -12    1    3    3    0    0  0.39965052829E+00 -0.63024280226E+01 -0.10700877509E+02  0.12425341001E+02  0.00000000000E+00 0.  1.
</event>
<event>
 7    1  0.1486782E-008  0.4614232E+02  0.7816164E-02  0.1320468E+00
        -11   -1    0    0    0    0  0.00000000000E+00  0.00000000000E+00  0.45593999997E+02  0.45594000000E+02  0.51100000000E-03 0. -1.
         11   -1    0    0    0    0 -0.00000000000E+00 -0.00000000000E+00 -0.45593999997E+02  0.45594000000E+02  0.51100000000E-03 0.  1.
    9900012    2    1    2    0    0 -0.70816306769E+01 -0.36467295429E+01  0.44335825249E+02  0.46142317300E+02  0.99999957946E+01 0.  0.
        -12    1    1    2    0    0  0.70816306769E+01  0.36467295429E+01 -0.44335825249E+02  0.45045682700E+02  0.00000000000E+00 0.  1.
         11    1    3    3    0    0 -0.12214477537E+01 -0.30439869516E+01  0.34612796459E+02  0.34767851101E+02  0.51100000000E-03 0. -1.
        -11    1    3    3    0    0 -0.46781676152E+01 -0.60006026092E+00  0.79408826588E+01  0.92359591930E+01  0.51100000000E-03 0.  1.
         12    1    3    3    0    0 -0.11820153080E+01 -0.26823303592E-02  0.17821461310E+01  0.21385070062E+01  0.00000000000E+00 0. -1.
</event>
<event>
 7    1  0.1486782E-008  0.4614232E+02  0.7816164E-02  0.1320468E+00
        -11   -1    0    0    0    0  0.00000000000E+00  0.00000000000E+00  0.45593999997E+02  0.45594000000E+02  0.51100000000E-03 0.  1.
         11   -1    0    0    0    0 -0.00000000000E+00 -0.00000000000E+00 -0.45593999997E+02  0.45594000000E+02  0.51100000000E-03 0. -1.
    9900012    2    1    2    0    0 -0.19106681011E+02 -0.22307314993E+01 -0.40731708692E+02  0.46142317462E+02  0.99999972769E+01 0.  0.
        -12    1    1    2    0    0  0.19106681011E+02  0.22307314993E+01  0.40731708692E+02  0.45045682538E+02  0.00000000000E+00 0.  1.
         11    1    3    3    0    0 -0.11072255034E+02 -0.42114800429E+01 -0.21314653226E+02  0.24385361143E+02  0.51100000000E-03 0. -1.
        -11    1    3    3    0    0 -0.67727466713E+01  0.31364550785E+01 -0.11894816194E+02  0.14042581689E+02  0.51100000000E-03 0.  1.
        -12    1    3    3    0    0 -0.12616793052E+01 -0.11557065350E+01 -0.75222392729E+01  0.77143746307E+01  0.00000000000E+00 0.  1.
</event>
<event>
 7    1  0.1486782E-008  0.4614231E+02  0.7816164E-02  0.1320468E+00
        -11   -1    0    0    0    0  0.00000000000E+00  0.00000000000E+00  0.45593999997E+02  0.45594000000E+02  0.51100000000E-03 0. -1.
         11   -1    0    0    0    0 -0.00000000000E+00 -0.00000000000E+00 -0.45593999997E+02  0.45594000000E+02  0.51100000000E-03 0.  1.
    9900012    2    1    2    0    0 -0.44362839271E+02 -0.66061899166E+01 -0.41726386527E+01  0.46142310231E+02  0.99999313357E+01 0.  0.
        -12    1    1    2    0    0  0.44362839271E+02  0.66061899166E+01  0.41726386527E+01  0.45045689769E+02  0.00000000000E+00 0.  1.
         11    1    3    3    0    0 -0.14877871531E+02 -0.33598417008E+01 -0.11482279000E+01  0.15295686488E+02  0.51100000000E-03 0. -1.
        -11    1    3    3    0    0 -0.11231716435E+02 -0.40833948490E+01 -0.38492905766E+01  0.12555580663E+02  0.51100000000E-03 0.  1.
        -12    1    3    3    0    0 -0.18253251305E+02  0.83704663307E+00  0.82487982401E+00  0.18291043081E+02  0.00000000000E+00 0.  1.
</event>
<event>
 7    1  0.1486782E-008  0.4614232E+02  0.7816164E-02  0.1320468E+00
        -11   -1    0    0    0    0  0.00000000000E+00  0.00000000000E+00  0.45593999997E+02  0.45594000000E+02  0.51100000000E-03 0. -1.
         11   -1    0    0    0    0 -0.00000000000E+00 -0.00000000000E+00 -0.45593999997E+02  0.45594000000E+02  0.51100000000E-03 0.  1.
    9900012    2    1    2    0    0 -0.22549335468E+02 -0.27801407962E+02  0.27344518132E+02  0.46142317781E+02  0.10000000180E+02 0.  0.
        -12    1    1    2    0    0  0.22549335468E+02  0.27801407962E+02 -0.27344518132E+02  0.45045682219E+02  0.00000000000E+00 0.  1.
         11    1    3    3    0    0 -0.36416690542E+01 -0.10297710223E+02  0.75730497196E+01  0.13291187744E+02  0.51100000000E-03 0. -1.
        -11    1    3    3    0    0 -0.67402477484E+01 -0.56639653860E+01  0.97502165848E+01  0.13136900978E+02  0.51100000000E-03 0.  1.
         12    1    3    3    0    0 -0.12167418666E+02 -0.11839732353E+02  0.10021251828E+02  0.19714229058E+02  0.00000000000E+00 0. -1.
</event>
<event>
 7    1  0.1486782E-008  0.4614232E+02  0.7816164E-02  0.1320468E+00
        -11   -1    0    0    0    0  0.00000000000E+00  0.00000000000E+00  0.45593999997E+02  0.45594000000E+02  0.51100000000E-03 0.  1.
         11   -1    0    0    0    0 -0.00000000000E+00 -0.00000000000E+00 -0.45593999997E+02  0.45594000000E+02  0.51100000000E-03 0. -1.
    9900012    2    1    2    0    0 -0.30026453113E+02  0.21204776981E+02 -0.26036187204E+02  0.46142317660E+02  0.99999990806E+01 0.  0.
        -12    1    1    2    0    0  0.30026453113E+02 -0.21204776981E+02  0.26036187204E+02  0.45045682340E+02  0.00000000000E+00 0.  1.
         11    1    3    3    0    0 -0.17946852606E+02  0.16327393964E+02 -0.17048426395E+02  0.29653366672E+02  0.51100000000E-03 0. -1.
        -11    1    3    3    0    0  0.34247251324E+00  0.14831435812E+00 -0.78663594225E+00  0.87067843543E+00  0.51100000000E-03 0.  1.
         12    1    3    3    0    0 -0.12422073019E+02  0.47290686589E+01 -0.82011248660E+01  0.15618272553E+02  0.00000000000E+00 0. -1.
</event>
<event>
 7    1  0.1486782E-008  0.4614231E+02  0.7816164E-02  0.1320468E+00
        -11   -1    0    0    0    0  0.00000000000E+00  0.00000000000E+00  0.45593999997E+02  0.45594000000E+02  0.51100000000E-03 0.  1.
         11   -1    0    0    0    0 -0.00000000000E+00 -0.00000000000E+00 -0.45593999997E+02  0.45594000000E+02  0.51100000000E-03 0. -1.
    9900012    2    1    2    0    0 -0.12373851410E+02  0.29795064270E+01 -0.43210232731E+02  0.46142313526E+02  0.99999613799E+01 0.  0.
        -12    1    1    2    0    0  0.12373851410E+02 -0.29795064270E+01  0.43210232731E+02  0.45045686474E+02  0.00000000000E+00 0.  1.
         11    1    3    3    0    0 -0.40595603124E+01 -0.10046831358E+01 -0.16428574294E+02  0.16952506356E+02  0.51100000000E-03 0. -1.
        -11    1    3    3    0    0 -0.79376504833E+01  0.54375949133E+01 -0.19374764251E+02  0.21632272735E+02  0.51100000000E-03 0.  1.
        -12    1    3    3    0    0 -0.37664061454E+00 -0.14534053504E+01 -0.74068941858E+01  0.75575344355E+01  0.00000000000E+00 0.  1.
</event>
<event>
 7    1  0.1486782E-008  0.4614232E+02  0.7816164E-02  0.1320468E+00
        -11   -1    0    0    0    0  0.00000000000E+00  0.00000000000E+00  0.45593999997E+02  0.45594000000E+02  0.51100000000E-03 0.  1.
         11   -1    0    0    0    0 -0.00000000000E+00 -0.00000000000E+00 -0.45593999997E+02  0.45594000000E+02  0.51100000000E-03 0. -1.
    9900012    2    1    2    0    0 -0.38590592044E+02  0.35100714860E+01 -0.22968653012E+02  0.46142318550E+02  0.10000007192E+02 0.  0.
        -12    1    1    2    0    0  0.38590592044E+02 -0.35100714860E+01  0.22968653012E+02  0.45045681450E+02  0.00000000000E+00 0.  1.
         11    1    3    3    0    0 -0.17561708918E+02  0.28983665796E+01 -0.56768670097E+01  0.18682638150E+02  0.51100000000E-03 0. -1.
        -11    1    3    3    0    0 -0.82878297013E+01  0.12134022635E+01 -0.87231769020E+01  0.12093563649E+02  0.51100000000E-03 0.  1.
         12    1    3    3    0    0 -0.12741053424E+02 -0.60169735709E+00 -0.85686091004E+01  0.15366116750E+02  0.00000000000E+00 0. -1.
</event>
<event>
 7    1  0.1486782E-008  0.4614232E+02  0.7816164E-02  0.1320468E+00
        -11   -1    0    0    0    0  0.00000000000E+00  0.00000000000E+00  0.45593999997E+02  0.45594000000E+02  0.51100000000E-03 0.  1.
         11   -1    0    0    0    0 -0.00000000000E+00 -0.00000000000E+00 -0.45593999997E+02  0.45594000000E+02  0.51100000000E-03 0. -1.
    9900012    2    1    2    0    0  0.19657593258E+02  0.15928217830E+02 -0.37269081868E+02  0.46142316975E+02  0.99999928281E+01 0.  0.
        -12    1    1    2    0    0 -0.19657593258E+02 -0.15928217830E+02  0.37269081868E+02  0.45045683025E+02  0.00000000000E+00 0.  1.
         11    1    3    3    0    0  0.12276552293E+01  0.24067620639E+00 -0.25794463959E+01  0.28668111847E+01  0.51100000000E-03 0. -1.
        -11    1    3    3    0    0  0.12791119105E+02  0.61930411839E+01 -0.14750782576E+02  0.20482970339E+02  0.51100000000E-03 0.  1.
        -12    1    3    3    0    0  0.56388189245E+01  0.94945004396E+01 -0.19938852896E+02  0.22792535451E+02  0.00000000000E+00 0.  1.
</event>
<event>
 7    1  0.1486782E-008  0.4614232E+02  0.7816164E-02  0.1320468E+00
        -11   -1    0    0    0    0  0.00000000000E+00  0.00000000000E+00  0.45593999997E+02  0.45594000000E+02  0.51100000000E-03 0.  1.
         11   -1    0    0    0    0 -0.00000000000E+00 -0.00000000000E+00 -0.45593999997E+02  0.45594000000E+02  0.51100000000E-03 0. -1.
    9900012    2    1    2    0    0 -0.38118278476E+02  0.23824115241E+02  0.29192000359E+01  0.46142319299E+02  0.10000014027E+02 0.  0.
        -12    1    1    2    0    0  0.38118278476E+02 -0.23824115241E+02 -0.29192000359E+01  0.45045680701E+02  0.00000000000E+00 0.  1.
         11    1    3    3    0    0 -0.74245683678E+01  0.53334816532E+01  0.27502133635E+01  0.95464085288E+01  0.51100000000E-03 0. -1.
        -11    1    3    3    0    0 -0.25401723876E+02  0.15036257264E+02 -0.27274227162E+01  0.29644146864E+02  0.51100000000E-03 0.  1.
        -12    1    3    3    0    0 -0.52919862319E+01  0.34543763229E+01  0.28964093886E+01  0.69517639061E+01  0.00000000000E+00 0.  1.
</event>
<event>
 7    1  0.1486782E-008  0.4614232E+02  0.7816164E-02  0.1320468E+00
        -11   -1    0    0    0    0  0.00000000000E+00  0.00000000000E+00  0.45593999997E+02  0.45594000000E+02  0.51100000000E-03 0.  1.
         11   -1    0    0    0    0 -0.00000000000E+00 -0.00000000000E+00 -0.45593999997E+02  0.45594000000E+02  0.51100000000E-03 0. -1.
    9900012    2    1    2    0    0  0.21046858336E+02  0.36222861706E+02 -0.16554363604E+02  0.46142324177E+02  0.10000058509E+02 0.  0.
        -12    1    1    2    0    0 -0.21046858336E+02 -0.36222861706E+02  0.16554363604E+02  0.45045675823E+02  0.00000000000E+00 0.  1.
         11    1    3    3    0    0  0.58098139659E+01  0.17474687393E+02 -0.45885060940E+01  0.18978225055E+02  0.51100000000E-03 0. -1.
        -11    1    3    3    0    0  0.94212325892E+01  0.13849754383E+02 -0.88726949328E+01  0.18955211304E+02  0.51100000000E-03 0.  1.
         12    1    3    3    0    0  0.58158117812E+01  0.48984199303E+01 -0.30931625771E+01  0.82088878185E+01  0.00000000000E+00 0. -1.
</event>
<event>
 7    1  0.1486782E-008  0.4614232E+02  0.7816164E-02  0.1320468E+00
        -11   -1    0    0    0    0  0.00000000000E+00  0.00000000000E+00  0.45593999997E+02  0.45594000000E+02  0.51100000000E-03 0. -1.
         11   -1    0    0    0    0 -0.00000000000E+00 -0.00000000000E+00 -0.45593999997E+02  0.45594000000E+02  0.51100000000E-03 0.  1.
    9900012    2    1    2    0    0 -0.24783665331E+02 -0.36574721299E+02  0.87848403801E+01  0.46142315125E+02  0.99999759617E+01 0.  0.
        -12    1    1    2    0    0  0.24783665331E+02  0.36574721299E+02 -0.87848403801E+01  0.45045684875E+02  0.00000000000E+00 0.  1.
         11    1    3    3    0    0 -0.62496075217E+01 -0.61580746050E+01  0.35197398602E+01  0.94534674041E+01  0.51100000000E-03 0. -1.
        -11    1    3    3    0    0 -0.10889033992E+02 -0.23112517594E+02  0.54045611887E+01  0.26114532596E+02  0.51100000000E-03 0.  1.
        -12    1    3    3    0    0 -0.76450238172E+01 -0.73041291003E+01 -0.13946066875E+00  0.10574315125E+02  0.00000000000E+00 0.  1.
</event>
<event>
 7    1  0.1486782E-008  0.4614232E+02  0.7816164E-02  0.1320468E+00
        -11   -1    0    0    0    0  0.00000000000E+00  0.00000000000E+00  0.45593999997E+02  0.45594000000E+02  0.51100000000E-03 0. -1.
         11   -1    0    0    0    0 -0.00000000000E+00 -0.00000000000E+00 -0.45593999997E+02  0.45594000000E+02  0.51100000000E-03 0.  1.
    9900012    2    1    2    0    0 -0.59521103797E+01  0.42050023479E+02 -0.15016039331E+02  0.46142317302E+02  0.99999958161E+01 0.  0.
        -12    1    1    2    0    0  0.59521103797E+01 -0.42050023479E+02  0.15016039331E+02  0.45045682698E+02  0.00000000000E+00 0.  1.
         11    1    3    3    0    0 -0.64024562147E+00  0.11619564599E+02 -0.43853019905E+01  0.12436039150E+02  0.51100000000E-03 0. -1.
        -11    1    3    3    0    0  0.15232460393E+00  0.10480236311E+01  0.11668600464E+01  0.15757915298E+01  0.51100000000E-03 0.  1.
        -12    1    3    3    0    0 -0.54641893622E+01  0.29382435249E+02 -0.11797597387E+02  0.32130486623E+02  0.00000000000E+00 0.  1.
</event>
<event>
 7    1  0.1486782E-008  0.4614231E+02  0.7816164E-02  0.1320468E+00
        -11   -1    0    0    0    0  0.00000000000E+00  0.00000000000E+00  0.45593999997E+02  0.45594000000E+02  0.51100000000E-03 0.  1.
         11   -1    0    0    0    0 -0.00000000000E+00 -0.00000000000E+00 -0.45593999997E+02  0.45594000000E+02  0.51100000000E-03 0. -1.
    9900012    2    1    2    0    0  0.36422641346E+02 -0.17339371619E+02 -0.20046239895E+02  0.46142308256E+02  0.99999133249E+01 0.  0.
        -12    1    1    2    0    0 -0.36422641346E+02  0.17339371619E+02  0.20046239895E+02  0.45045691744E+02  0.00000000000E+00 0.  1.
         11    1    3    3    0    0  0.12954182127E+02 -0.32927360327E+01 -0.10208574367E+02  0.16818678189E+02  0.51100000000E-03 0. -1.
        -11    1    3    3    0    0  0.86642576798E+01 -0.72004066910E+01 -0.31732463501E+01  0.11704046750E+02  0.51100000000E-03 0.  1.
         12    1    3    3    0    0  0.14804201539E+02 -0.68462288952E+01 -0.66644191786E+01  0.17619583318E+02  0.00000000000E+00 0. -1.
</event>
<event>
 7    1  0.1486782E-008  0.4614232E+02  0.7816164E-02  0.1320468E+00
        -11   -1    0    0    0    0  0.00000000000E+00  0.00000000000E+00  0.45593999997E+02  0.45594000000E+02  0.51100000000E-03 0.  1.
         11   -1    0    0    0    0 -0.00000000000E+00 -0.00000000000E+00 -0.45593999997E+02  0.45594000000E+02  0.51100000000E-03 0. -1.
    9900012    2    1    2    0    0 -0.14583591967E+01  0.33698606626E+02 -0.29856165950E+02  0.46142317129E+02  0.99999942372E+01 0.  0.
        -12    1    1    2    0    0  0.14583591967E+01 -0.33698606626E+02  0.29856165950E+02  0.45045682871E+02  0.00000000000E+00 0.  1.
         11    1    3    3    0    0  0.15637353969E+01  0.23625218076E+02 -0.20815756279E+02  0.31526051247E+02  0.51100000000E-03 0. -1.
        -11    1    3    3    0    0 -0.32275619641E+01  0.67446607699E+01 -0.37561249469E+01  0.83675611747E+01  0.51100000000E-03 0.  1.
        -12    1    3    3    0    0  0.20546737059E+00  0.33287277804E+01 -0.52842847236E+01  0.62487047071E+01  0.00000000000E+00 0.  1.
</event>
<event>
 7    1  0.1486782E-008  0.4614232E+02  0.7816164E-02  0.1320468E+00
        -11   -1    0    0    0    0  0.00000000000E+00  0.00000000000E+00  0.45593999997E+02  0.45594000000E+02  0.51100000000E-03 0.  1.
         11   -1    0    0    0    0 -0.00000000000E+00 -0.00000000000E+00 -0.45593999997E+02  0.45594000000E+02  0.51100000000E-03 0. -1.
    9900012    2    1    2    0    0 -0.15282215369E+02  0.32402956758E+02 -0.27305965970E+02  0.46142317734E+02  0.99999997566E+01 0.  0.
        -12    1    1    2    0    0  0.15282215369E+02 -0.32402956758E+02  0.27305965970E+02  0.45045682266E+02  0.00000000000E+00 0.  1.
         11    1    3    3    0    0 -0.26433040345E+01  0.11155599456E+02 -0.52199531056E+01  0.12596918914E+02  0.51100000000E-03 0. -1.
        -11    1    3    3    0    0 -0.10189683001E+02  0.12414520508E+02 -0.14727181506E+02  0.21790819959E+02  0.51100000000E-03 0.  1.
         12    1    3    3    0    0 -0.24492283333E+01  0.88328367932E+01 -0.73588313579E+01  0.11754578861E+02  0.00000000000E+00 0. -1.
</event>
<event>
 7    1  0.1486782E-008  0.4614232E+02  0.7816164E-02  0.1320468E+00
        -11   -1    0    0    0    0  0.00000000000E+00  0.00000000000E+00  0.45593999997E+02  0.45594000000E+02  0.51100000000E-03 0.  1.
         11   -1    0    0    0    0 -0.00000000000E+00 -0.00000000000E+00 -0.45593999997E+02  0.45594000000E+02  0.51100000000E-03 0. -1.
    9900012    2    1    2    0    0 -0.32774242576E+02 -0.19869358916E+02 -0.23667930710E+02  0.46142319360E+02  0.10000014584E+02 0.  0.
        -12    1    1    2    0    0  0.32774242576E+02  0.19869358916E+02  0.23667930710E+02  0.45045680640E+02  0.00000000000E+00 0.  1.
         11    1    3    3    0    0 -0.21912294206E+02 -0.98876373851E+01 -0.15256659626E+02  0.28472437086E+02  0.51100000000E-03 0.  1.
        -11    1    3    3    0    0  0.44161172722E+00  0.15933826939E-01 -0.15402791310E+00  0.46797399884E+00  0.51100000000E-03 0. -1.
         12    1    3    3    0    0 -0.11303560098E+02 -0.99976553577E+01 -0.82572431712E+01  0.17201908276E+02  0.00000000000E+00 0. -1.
</event>
<event>
 7    1  0.1486782E-008  0.4614232E+02  0.7816164E-02  0.1320468E+00
        -11   -1    0    0    0    0  0.00000000000E+00  0.00000000000E+00  0.45593999997E+02  0.45594000000E+02  0.51100000000E-03 0.  1.
         11   -1    0    0    0    0 -0.00000000000E+00 -0.00000000000E+00 -0.45593999997E+02  0.45594000000E+02  0.51100000000E-03 0. -1.
    9900012    2    1    2    0    0 -0.39152006454E+02 -0.20021801455E+02 -0.97653004904E+01  0.46142320556E+02  0.10000025484E+02 0.  0.
        -12    1    1    2    0    0  0.39152006454E+02  0.20021801455E+02  0.97653004904E+01  0.45045679444E+02  0.00000000000E+00 0.  1.
         11    1    3    3    0    0 -0.57669686122E+01 -0.56560423371E+01 -0.28764155370E+01  0.85745267214E+01  0.51100000000E-03 0. -1.
        -11    1    3    3    0    0 -0.11878906534E+02 -0.72073563308E+01 -0.52115104935E+01  0.14839617502E+02  0.51100000000E-03 0.  1.
        -12    1    3    3    0    0 -0.21506131309E+02 -0.71584027872E+01 -0.16773744598E+01  0.22728176333E+02  0.00000000000E+00 0.  1.
</event>
<event>
 7    1  0.1486782E-008  0.4614232E+02  0.7816164E-02  0.1320468E+00
        -11   -1    0    0    0    0  0.00000000000E+00  0.00000000000E+00  0.45593999997E+02  0.45594000000E+02  0.51100000000E-03 0. -1.
         11   -1    0    0    0    0 -0.00000000000E+00 -0.00000000000E+00 -0.45593999997E+02  0.45594000000E+02  0.51100000000E-03 0.  1.
    9900012    2    1    2    0    0  0.63600430968E+01 -0.43575933214E+02  0.94763651021E+01  0.46142316531E+02  0.99999887796E+01 0.  0.
        -12    1    1    2    0    0 -0.63600430968E+01  0.43575933214E+02 -0.94763651021E+01  0.45045683469E+02  0.00000000000E+00 0.  1.
         11    1    3    3    0    0 -0.12760616338E+01 -0.21611766563E+02  0.60004894020E+01  0.22465588365E+02  0.51100000000E-03 0. -1.
        -11    1    3    3    0    0  0.33036384892E+01 -0.13288563989E+02  0.14448045073E+01  0.13769074787E+02  0.51100000000E-03 0.  1.
         12    1    3    3    0    0  0.43324662413E+01 -0.86756026618E+01  0.20310711928E+01  0.99076533785E+01  0.00000000000E+00 0. -1.
</event>
<event>
 7    1  0.1486782E-008  0.4614232E+02  0.7816164E-02  0.1320468E+00
        -11   -1    0    0    0    0  0.00000000000E+00  0.00000000000E+00  0.45593999997E+02  0.45594000000E+02  0.51100000000E-03 0.  1.
         11   -1    0    0    0    0 -0.00000000000E+00 -0.00000000000E+00 -0.45593999997E+02  0.45594000000E+02  0.51100000000E-03 0. -1.
    9900012    2    1    2    0    0 -0.13101073700E+02 -0.31094469826E+02 -0.29843078831E+02  0.46142317188E+02  0.99999947758E+01 0.  0.
        -12    1    1    2    0    0  0.13101073700E+02  0.31094469826E+02  0.29843078831E+02  0.45045682812E+02  0.00000000000E+00 0.  1.
         11    1    3    3    0    0 -0.78016550342E+01 -0.23298518658E+02 -0.21861546916E+02  0.32887900917E+02  0.51100000000E-03 0. -1.
        -11    1    3    3    0    0 -0.17643003973E+01 -0.16532695011E+01 -0.50225568217E+01  0.55742383536E+01  0.51100000000E-03 0.  1.
        -12    1    3    3    0    0 -0.35351182685E+01 -0.61426816672E+01 -0.29589750933E+01  0.76801779172E+01  0.00000000000E+00 0.  1.
</event>
<event>
 7    1  0.1486782E-008  0.4614233E+02  0.7816164E-02  0.1320468E+00
        -11   -1    0    0    0    0  0.00000000000E+00  0.00000000000E+00  0.45593999997E+02  0.45594000000E+02  0.51100000000E-03 0. -1.
         11   -1    0    0    0    0 -0.00000000000E+00 -0.00000000000E+00 -0.45593999997E+02  0.45594000000E+02  0.51100000000E-03 0.  1.
    9900012    2    1    2    0    0  0.40643400393E+02  0.17712541950E+02  0.79681905559E+01  0.46142332077E+02  0.10000130544E+02 0.  0.
        -12    1    1    2    0    0 -0.40643400393E+02 -0.17712541950E+02 -0.79681905559E+01  0.45045667923E+02  0.00000000000E+00 0.  1.
         11    1    3    3    0    0  0.12169716932E+01 -0.74824484118E+00 -0.82519132127E+00  0.16497973883E+01  0.51100000000E-03 0. -1.
        -11    1    3    3    0    0  0.37929917551E+01  0.26025517927E+01  0.60842008871E+00  0.46400687014E+01  0.51100000000E-03 0.  1.
         12    1    3    3    0    0  0.35633436945E+02  0.15858234999E+02  0.81849617885E+01  0.39852465987E+02  0.00000000000E+00 0. -1.
</event>
<event>
 7    1  0.1486782E-008  0.4614232E+02  0.7816164E-02  0.1320468E+00
        -11   -1    0    0    0    0  0.00000000000E+00  0.00000000000E+00  0.45593999997E+02  0.45594000000E+02  0.51100000000E-03 0.  1.
         11   -1    0    0    0    0 -0.00000000000E+00 -0.00000000000E+00 -0.45593999997E+02  0.45594000000E+02  0.51100000000E-03 0. -1.
    9900012    2    1    2    0    0  0.26468828422E+02  0.15202137543E+02 -0.33127173583E+02  0.46142317704E+02  0.99999994764E+01 0.  0.
        -12    1    1    2    0    0 -0.26468828422E+02 -0.15202137543E+02  0.33127173583E+02  0.45045682296E+02  0.00000000000E+00 0.  1.
         11    1    3    3    0    0  0.18155307309E+02  0.13772900098E+02 -0.27585600632E+02  0.35780907243E+02  0.51100000000E-03 0. -1.
        -11    1    3    3    0    0  0.24459879434E+01 -0.40884410111E+00 -0.83012547096E+00  0.26151709460E+01  0.51100000000E-03 0.  1.
         12    1    3    3    0    0  0.58675331693E+01  0.18380815460E+01 -0.47114474799E+01  0.77462395147E+01  0.00000000000E+00 0. -1.
</event>
<event>
 7    1  0.1486782E-008  0.4614232E+02  0.7816164E-02  0.1320468E+00
        -11   -1    0    0    0    0  0.00000000000E+00  0.00000000000E+00  0.45593999997E+02  0.45594000000E+02  0.51100000000E-03 0.  1.
         11   -1    0    0    0    0 -0.00000000000E+00 -0.00000000000E+00 -0.45593999997E+02  0.45594000000E+02  0.51100000000E-03 0. -1.
    9900012    2    1    2    0    0  0.35497955075E+02  0.27596501066E+02 -0.27279611850E+01  0.46142318100E+02  0.10000003092E+02 0.  0.
        -12    1    1    2    0    0 -0.35497955075E+02 -0.27596501066E+02  0.27279611850E+01  0.45045681900E+02  0.00000000000E+00 0.  1.
         11    1    3    3    0    0  0.85131274921E+01  0.11971285987E+02 -0.21715477054E+01  0.14849264210E+02  0.51100000000E-03 0. -1.
        -11    1    3    3    0    0  0.93565613988E+01  0.51771834931E+01  0.10124428608E+01  0.10741206214E+02  0.51100000000E-03 0.  1.
         12    1    3    3    0    0  0.17628266184E+02  0.10448031586E+02 -0.15688563403E+01  0.20551847676E+02  0.00000000000E+00 0. -1.
</event>
<event>
 7    1  0.1486782E-008  0.4614232E+02  0.7816164E-02  0.1320468E+00
        -11   -1    0    0    0    0  0.00000000000E+00  0.00000000000E+00  0.45593999997E+02  0.45594000000E+02  0.51100000000E-03 0.  1.
         11   -1    0    0    0    0 -0.00000000000E+00 -0.00000000000E+00 -0.45593999997E+02  0.45594000000E+02  0.51100000000E-03 0. -1.
    9900012    2    1    2    0    0  0.15722162973E+02 -0.40866411540E+02 -0.10576549705E+02  0.46142318693E+02  0.10000008501E+02 0.  0.
        -12    1    1    2    0    0 -0.15722162973E+02  0.40866411540E+02  0.10576549705E+02  0.45045681307E+02  0.00000000000E+00 0.  1.
         11    1    3    3    0    0  0.14912883392E+02 -0.32377478521E+02 -0.64410786583E+01  0.36224062458E+02  0.51100000000E-03 0. -1.
        -11    1    3    3    0    0 -0.53192502341E+00 -0.11852024231E+01  0.20764263336E+00  0.13155853216E+01  0.51100000000E-03 0.  1.
         12    1    3    3    0    0  0.13412046051E+01 -0.73037305957E+01 -0.43431136796E+01  0.86026709132E+01  0.00000000000E+00 0. -1.
</event>
<event>
 7    1  0.1486782E-008  0.4614232E+02  0.7816164E-02  0.1320468E+00
        -11   -1    0    0    0    0  0.00000000000E+00  0.00000000000E+00  0.45593999997E+02  0.45594000000E+02  0.51100000000E-03 0.  1.
         11   -1    0    0    0    0 -0.00000000000E+00 -0.00000000000E+00 -0.45593999997E+02  0.45594000000E+02  0.51100000000E-03 0. -1.
    9900012    2    1    2    0    0 -0.16274269770E+02  0.24847901070E+02 -0.33865077385E+02  0.46142317516E+02  0.99999977649E+01 0.  0.
        -12    1    1    2    0    0  0.16274269770E+02 -0.24847901070E+02  0.33865077385E+02  0.45045682484E+02  0.00000000000E+00 0.  1.
         11    1    3    3    0    0 -0.37770918599E+01  0.11181606570E+02 -0.16389542950E+02  0.20196828136E+02  0.51100000000E-03 0. -1.
        -11    1    3    3    0    0 -0.52670486493E+01  0.78588267128E+01 -0.60484151080E+01  0.11228814913E+02  0.51100000000E-03 0.  1.
        -12    1    3    3    0    0 -0.72301292605E+01  0.58074677876E+01 -0.11427119327E+02  0.14716674466E+02  0.00000000000E+00 0.  1.
</event>
<event>
 7    1  0.1486782E-008  0.4614232E+02  0.7816164E-02  0.1320468E+00
        -11   -1    0    0    0    0  0.00000000000E+00  0.00000000000E+00  0.45593999997E+02  0.45594000000E+02  0.51100000000E-03 0. -1.
         11   -1    0    0    0    0 -0.00000000000E+00 -0.00000000000E+00 -0.45593999997E+02  0.45594000000E+02  0.51100000000E-03 0.  1.
    9900012    2    1    2    0    0  0.32192437697E+02  0.27406267534E+02 -0.15545317255E+02  0.46142318369E+02  0.10000005544E+02 0.  0.
        -12    1    1    2    0    0 -0.32192437697E+02 -0.27406267534E+02  0.15545317255E+02  0.45045681631E+02  0.00000000000E+00 0.  1.
         11    1    3    3    0    0  0.10813856843E+02  0.10589601295E+02 -0.76225002156E+01  0.16946435177E+02  0.51100000000E-03 0. -1.
        -11    1    3    3    0    0  0.95157526787E+01  0.11191503182E+02 -0.62364025098E+01  0.15959072938E+02  0.51100000000E-03 0.  1.
        -12    1    3    3    0    0  0.11862828176E+02  0.56251630579E+01 -0.16864145292E+01  0.13236810255E+02  0.00000000000E+00 0.  1.
</event>
<event>
 7    1  0.1486782E-008  0.4614232E+02  0.7816164E-02  0.1320468E+00
        -11   -1    0    0    0    0  0.00000000000E+00  0.00000000000E+00  0.45593999997E+02  0.45594000000E+02  0.51100000000E-03 0.  1.
         11   -1    0    0    0    0 -0.00000000000E+00 -0.00000000000E+00 -0.45593999997E+02  0.45594000000E+02  0.51100000000E-03 0. -1.
    9900012    2    1    2    0    0 -0.22693217412E+02  0.47281295216E+01 -0.38623518333E+02  0.46142317702E+02  0.99999994572E+01 0.  0.
        -12    1    1    2    0    0  0.22693217412E+02 -0.47281295216E+01  0.38623518333E+02  0.45045682298E+02  0.00000000000E+00 0.  1.
         11    1    3    3    0    0 -0.93498726903E+01  0.63121104045E+01 -0.13439296640E+02  0.17546439853E+02  0.51100000000E-03 0. -1.
        -11    1    3    3    0    0 -0.13066171049E+02 -0.12831896718E+01 -0.24248011378E+02  0.27574217263E+02  0.51100000000E-03 0.  1.
        -12    1    3    3    0    0 -0.27717367317E+00 -0.30079121107E+00 -0.93621031479E+00  0.10216605852E+01  0.00000000000E+00 0.  1.
</event>
<event>
 7    1  0.1486782E-008  0.4614232E+02  0.7816164E-02  0.1320468E+00
        -11   -1    0    0    0    0  0.00000000000E+00  0.00000000000E+00  0.45593999997E+02  0.45594000000E+02  0.51100000000E-03 0.  1.
         11   -1    0    0    0    0 -0.00000000000E+00 -0.00000000000E+00 -0.45593999997E+02  0.45594000000E+02  0.51100000000E-03 0. -1.
    9900012    2    1    2    0    0 -0.40222250253E+02  0.18288069140E+02 -0.87652736132E+01  0.46142324183E+02  0.10000058564E+02 0.  0.
        -12    1    1    2    0    0  0.40222250253E+02 -0.18288069140E+02  0.87652736132E+01  0.45045675817E+02  0.00000000000E+00 0.  1.
         11    1    3    3    0    0 -0.22077648790E+02  0.86908576881E+01 -0.86426719999E+01  0.25251720001E+02  0.51100000000E-03 0. -1.
        -11    1    3    3    0    0 -0.16398027180E+02  0.84271499984E+01  0.10806257002E+01  0.18468348726E+02  0.51100000000E-03 0.  1.
         12    1    3    3    0    0 -0.17465742831E+01  0.11700614535E+01 -0.12032273135E+01  0.24222554571E+01  0.00000000000E+00 0. -1.
</event>
<event>
 7    1  0.1486782E-008  0.4614232E+02  0.7816164E-02  0.1320468E+00
        -11   -1    0    0    0    0  0.00000000000E+00  0.00000000000E+00  0.45593999997E+02  0.45594000000E+02  0.51100000000E-03 0.  1.
         11   -1    0    0    0    0 -0.00000000000E+00 -0.00000000000E+00 -0.45593999997E+02  0.45594000000E+02  0.51100000000E-03 0. -1.
    9900012    2    1    2    0    0 -0.21502751703E+01  0.29804557661E+02 -0.33707242571E+02  0.46142317161E+02  0.99999945293E+01 0.  0.
        -12    1    1    2    0    0  0.21502751703E+01 -0.29804557661E+02  0.33707242571E+02  0.45045682839E+02  0.00000000000E+00 0.  1.
         11    1    3    3    0    0  0.27626586646E+01  0.17110716938E+02 -0.21582911286E+02  0.27680877458E+02  0.51100000000E-03 0. -1.
        -11    1    3    3    0    0 -0.19735768140E+01  0.21164982206E+01 -0.19178594381E+01  0.34717078281E+01  0.51100000000E-03 0.  1.
         12    1    3    3    0    0 -0.29393570209E+01  0.10577342503E+02 -0.10206471847E+02  0.14989731875E+02  0.00000000000E+00 0. -1.
</event>
<event>
 7    1  0.1486782E-008  0.4614232E+02  0.7816164E-02  0.1320468E+00
        -11   -1    0    0    0    0  0.00000000000E+00  0.00000000000E+00  0.45593999997E+02  0.45594000000E+02  0.51100000000E-03 0.  1.
         11   -1    0    0    0    0 -0.00000000000E+00 -0.00000000000E+00 -0.45593999997E+02  0.45594000000E+02  0.51100000000E-03 0. -1.
    9900012    2    1    2    0    0  0.11073306019E+02 -0.18905450434E+02 -0.39358345261E+02  0.46142317588E+02  0.99999984220E+01 0.  0.
        -12    1    1    2    0    0 -0.11073306019E+02  0.18905450434E+02  0.39358345261E+02  0.45045682412E+02  0.00000000000E+00 0.  1.
         11    1    3    3    0    0  0.92849545892E+01 -0.16422301643E+02 -0.33720757095E+02  0.38639252482E+02  0.51100000000E-03 0. -1.
        -11    1    3    3    0    0 -0.80391971925E+00 -0.15297705090E+01 -0.73913729403E+00  0.18795767943E+01  0.51100000000E-03 0.  1.
         12    1    3    3    0    0  0.25922711490E+01 -0.95337828129E+00 -0.48984508714E+01  0.56234883122E+01  0.00000000000E+00 0. -1.
</event>
<event>
 7    1  0.1486782E-008  0.4614232E+02  0.7816164E-02  0.1320468E+00
        -11   -1    0    0    0    0  0.00000000000E+00  0.00000000000E+00  0.45593999997E+02  0.45594000000E+02  0.51100000000E-03 0.  1.
         11   -1    0    0    0    0 -0.00000000000E+00 -0.00000000000E+00 -0.45593999997E+02  0.45594000000E+02  0.51100000000E-03 0. -1.
    9900012    2    1    2    0    0 -0.35120304053E+02 -0.15870527139E+02  0.23319605790E+02  0.46142318712E+02  0.10000008675E+02 0.  0.
        -12    1    1    2    0    0  0.35120304053E+02  0.15870527139E+02 -0.23319605790E+02  0.45045681288E+02  0.00000000000E+00 0.  1.
         11    1    3    3    0    0 -0.16127828053E+02 -0.10897189329E+02  0.82285875159E+01  0.21132089952E+02  0.51100000000E-03 0. -1.
        -11    1    3    3    0    0 -0.13774265142E+02 -0.20049643998E+01  0.10005504663E+02  0.17142356497E+02  0.51100000000E-03 0.  1.
         12    1    3    3    0    0 -0.52182108582E+01 -0.29683734103E+01  0.50855136111E+01  0.78678722633E+01  0.00000000000E+00 0. -1.
</event>
<event>
 7    1  0.1486782E-008  0.4614232E+02  0.7816164E-02  0.1320468E+00
        -11   -1    0    0    0    0  0.00000000000E+00  0.00000000000E+00  0.45593999997E+02  0.45594000000E+02  0.51100000000E-03 0.  1.
         11   -1    0    0    0    0 -0.00000000000E+00 -0.00000000000E+00 -0.45593999997E+02  0.45594000000E+02  0.51100000000E-03 0. -1.
    9900012    2    1    2    0    0 -0.15154846343E+02 -0.41450035556E+02 -0.90187945811E+01  0.46142317954E+02  0.10000001756E+02 0.  0.
        -12    1    1    2    0    0  0.15154846343E+02  0.41450035556E+02  0.90187945811E+01  0.45045682046E+02  0.00000000000E+00 0.  1.
         11    1    3    3    0    0 -0.78634945878E+01 -0.24620098583E+02 -0.81148829652E+00  0.25858118936E+02  0.51100000000E-03 0.  1.
        -11    1    3    3    0    0 -0.15085066615E+01 -0.66159008760E+01 -0.35318001518E+01  0.76497940705E+01  0.51100000000E-03 0. -1.
         12    1    3    3    0    0 -0.57828450940E+01 -0.10214036097E+02 -0.46755061327E+01  0.12634404947E+02  0.00000000000E+00 0. -1.
</event>
<event>
 7    1  0.1486782E-008  0.4614232E+02  0.7816164E-02  0.1320468E+00
        -11   -1    0    0    0    0  0.00000000000E+00  0.00000000000E+00  0.45593999997E+02  0.45594000000E+02  0.51100000000E-03 0. -1.
         11   -1    0    0    0    0 -0.00000000000E+00 -0.00000000000E+00 -0.45593999997E+02  0.45594000000E+02  0.51100000000E-03 0.  1.
    9900012    2    1    2    0    0 -0.29109704176E+01  0.28746780833E+02  0.34558098252E+02  0.46142319720E+02  0.10000017863E+02 0.  0.
        -12    1    1    2    0    0  0.29109704176E+01 -0.28746780833E+02 -0.34558098252E+02  0.45045680280E+02  0.00000000000E+00 0.  1.
         11    1    3    3    0    0 -0.16777729283E+01  0.54178904580E+01  0.87544213883E+01  0.10431124250E+02  0.51100000000E-03 0. -1.
        -11    1    3    3    0    0 -0.12699262857E+01  0.19404904400E+01  0.16857251097E+00  0.23252167365E+01  0.51100000000E-03 0.  1.
        -12    1    3    3    0    0  0.36728796441E-01  0.21388399935E+02  0.25635104353E+02  0.33385978734E+02  0.00000000000E+00 0.  1.
</event>
<event>
 7    1  0.1486782E-008  0.4614232E+02  0.7816164E-02  0.1320468E+00
        -11   -1    0    0    0    0  0.00000000000E+00  0.00000000000E+00  0.45593999997E+02  0.45594000000E+02  0.51100000000E-03 0.  1.
         11   -1    0    0    0    0 -0.00000000000E+00 -0.00000000000E+00 -0.45593999997E+02  0.45594000000E+02  0.51100000000E-03 0. -1.
    9900012    2    1    2    0    0  0.20102710069E+02  0.26297616432E+02 -0.30552084979E+02  0.46142317869E+02  0.10000000981E+02 0.  0.
        -12    1    1    2    0    0 -0.20102710069E+02 -0.26297616432E+02  0.30552084979E+02  0.45045682131E+02  0.00000000000E+00 0.  1.
         11    1    3    3    0    0  0.77075804981E+01  0.10029990370E+02 -0.95404644983E+01  0.15843862126E+02  0.51100000000E-03 0. -1.
        -11    1    3    3    0    0  0.10890790813E+02  0.12610882563E+02 -0.20330118001E+02  0.26286068206E+02  0.51100000000E-03 0.  1.
        -12    1    3    3    0    0  0.15043387572E+01  0.36567434996E+01 -0.68150248044E+00  0.40123875372E+01  0.00000000000E+00 0.  1.
</event>
<event>
 7    1  0.1486782E-008  0.4614232E+02  0.7816164E-02  0.1320468E+00
        -11   -1    0    0    0    0  0.00000000000E+00  0.00000000000E+00  0.45593999997E+02  0.45594000000E+02  0.51100000000E-03 0.  1.
         11   -1    0    0    0    0 -0.00000000000E+00 -0.00000000000E+00 -0.45593999997E+02  0.45594000000E+02  0.51100000000E-03 0. -1.
    9900012    2    1    2    0    0  0.38974121819E+01 -0.25638669825E+02 -0.36831810014E+02  0.46142318287E+02  0.10000004792E+02 0.  0.
        -12    1    1    2    0    0 -0.38974121819E+01  0.25638669825E+02  0.36831810014E+02  0.45045681713E+02  0.00000000000E+00 0.  1.
         11    1    3    3    0    0  0.28901474687E+01 -0.40178189358E+01 -0.32530071009E+01  0.59226579212E+01  0.51100000000E-03 0. -1.
        -11    1    3    3    0    0 -0.14096206943E+01 -0.82675929127E+01 -0.15383658625E+02  0.17521332028E+02  0.51100000000E-03 0.  1.
        -12    1    3    3    0    0  0.24168854074E+01 -0.13353257976E+02 -0.18195144288E+02  0.22698328338E+02  0.00000000000E+00 0.  1.
</event>
<event>
 7    1  0.1486782E-008  0.4614232E+02  0.7816164E-02  0.1320468E+00
        -11   -1    0    0    0    0  0.00000000000E+00  0.00000000000E+00  0.45593999997E+02  0.45594000000E+02  0.51100000000E-03 0.  1.
         11   -1    0    0    0    0 -0.00000000000E+00 -0.00000000000E+00 -0.45593999997E+02  0.45594000000E+02  0.51100000000E-03 0. -1.
    9900012    2    1    2    0    0 -0.21757127872E+02 -0.39387882026E+02 -0.20822262453E+01  0.46142317301E+02  0.99999958013E+01 0.  0.
        -12    1    1    2    0    0  0.21757127872E+02  0.39387882026E+02  0.20822262453E+01  0.45045682699E+02  0.00000000000E+00 0.  1.
         11    1    3    3    0    0 -0.10656639012E+02 -0.28470715207E+02 -0.14557482433E+01  0.30434598447E+02  0.51100000000E-03 0. -1.
        -11    1    3    3    0    0 -0.67943613558E+01 -0.77024598003E+01  0.18795958402E+00  0.10272612242E+02  0.51100000000E-03 0.  1.
         12    1    3    3    0    0 -0.43061275041E+01 -0.32147070184E+01 -0.81443758606E+00  0.54351066114E+01  0.00000000000E+00 0. -1.
</event>
<event>
 7    1  0.1486782E-008  0.4614232E+02  0.7816164E-02  0.1320468E+00
        -11   -1    0    0    0    0  0.00000000000E+00  0.00000000000E+00  0.45593999997E+02  0.45594000000E+02  0.51100000000E-03 0.  1.
         11   -1    0    0    0    0 -0.00000000000E+00 -0.00000000000E+00 -0.45593999997E+02  0.45594000000E+02  0.51100000000E-03 0. -1.
    9900012    2    1    2    0    0 -0.18414506011E+02 -0.23025054867E+02 -0.34056813586E+02  0.46142315025E+02  0.99999750457E+01 0.  0.
        -12    1    1    2    0    0  0.18414506011E+02  0.23025054867E+02  0.34056813586E+02  0.45045684975E+02  0.00000000000E+00 0.  1.
         11    1    3    3    0    0 -0.10671530994E+02 -0.71440152844E+01 -0.17968858507E+02  0.22086158662E+02  0.51100000000E-03 0. -1.
        -11    1    3    3    0    0 -0.18221348735E+01 -0.60969798339E+01 -0.46465650407E+01  0.78793340791E+01  0.51100000000E-03 0.  1.
         12    1    3    3    0    0 -0.59208401434E+01 -0.97840597487E+01 -0.11441390039E+02  0.16176822283E+02  0.00000000000E+00 0. -1.
</event>
<event>
 7    1  0.1486782E-008  0.4614232E+02  0.7816164E-02  0.1320468E+00
        -11   -1    0    0    0    0  0.00000000000E+00  0.00000000000E+00  0.45593999997E+02  0.45594000000E+02  0.51100000000E-03 0.  1.
         11   -1    0    0    0    0 -0.00000000000E+00 -0.00000000000E+00 -0.45593999997E+02  0.45594000000E+02  0.51100000000E-03 0. -1.
    9900012    2    1    2    0    0 -0.16350252609E+02  0.23725041346E+01 -0.41906490254E+02  0.46142318058E+02  0.10000002704E+02 0.  0.
        -12    1    1    2    0    0  0.16350252609E+02 -0.23725041346E+01  0.41906490254E+02  0.45045681942E+02  0.00000000000E+00 0.  1.
         11    1    3    3    0    0 -0.70505563625E+01 -0.12648240995E+01 -0.19455201022E+02  0.20731979455E+02  0.51100000000E-03 0. -1.
        -11    1    3    3    0    0 -0.95957805453E+01  0.41758207591E+01 -0.17274111854E+02  0.20196817172E+02  0.51100000000E-03 0.  1.
        -12    1    3    3    0    0  0.29608429836E+00 -0.53849252494E+00 -0.51771773775E+01  0.52135214308E+01  0.00000000000E+00 0.  1.
</event>
<event>
 7    1  0.1486782E-008  0.4614232E+02  0.7816164E-02  0.1320468E+00
        -11   -1    0    0    0    0  0.00000000000E+00  0.00000000000E+00  0.45593999997E+02  0.45594000000E+02  0.51100000000E-03 0.  1.
         11   -1    0    0    0    0 -0.00000000000E+00 -0.00000000000E+00 -0.45593999997E+02  0.45594000000E+02  0.51100000000E-03 0. -1.
    9900012    2    1    2    0    0  0.21009839433E+02 -0.28175111538E+02 -0.28175578289E+02  0.46142317908E+02  0.10000001341E+02 0.  0.
        -12    1    1    2    0    0 -0.21009839433E+02  0.28175111538E+02  0.28175578289E+02  0.45045682092E+02  0.00000000000E+00 0.  1.
         11    1    3    3    0    0  0.24634201876E+01 -0.51778747600E+01 -0.96289423738E+01  0.11206933459E+02  0.51100000000E-03 0. -1.
        -11    1    3    3    0    0  0.19456665403E+01 -0.19964140697E+01 -0.11886665847E+01  0.30305471345E+01  0.51100000000E-03 0.  1.
         12    1    3    3    0    0  0.16600752705E+02 -0.21000822708E+02 -0.17357969331E+02  0.31904837315E+02  0.00000000000E+00 0. -1.
</event>
<event>
 7    1  0.1486782E-008  0.4614232E+02  0.7816164E-02  0.1320468E+00
        -11   -1    0    0    0    0  0.00000000000E+00  0.00000000000E+00  0.45593999997E+02  0.45594000000E+02  0.51100000000E-03 0. -1.
         11   -1    0    0    0    0 -0.00000000000E+00 -0.00000000000E+00 -0.45593999997E+02  0.45594000000E+02  0.51100000000E-03 0.  1.
    9900012    2    1    2    0    0  0.46835475810E+01 -0.23650651288E+01  0.44739068100E+02  0.46142319125E+02  0.10000012438E+02 0.  0.
        -12    1    1    2    0    0 -0.46835475810E+01  0.23650651288E+01 -0.44739068100E+02  0.45045680875E+02  0.00000000000E+00 0.  1.
         11    1    3    3    0    0  0.47382074949E+01 -0.39308255203E+01  0.30006179922E+02  0.30631239500E+02  0.51100000000E-03 0. -1.
        -11    1    3    3    0    0  0.27417806412E+00  0.19934638976E+01  0.22579012626E+01  0.30244322269E+01  0.51100000000E-03 0.  1.
         12    1    3    3    0    0 -0.32883797796E+00 -0.42770350613E+00  0.12474986916E+02  0.12486647398E+02  0.00000000000E+00 0. -1.
</event>
<event>
 7    1  0.1486782E-008  0.4614232E+02  0.7816164E-02  0.1320468E+00
        -11   -1    0    0    0    0  0.00000000000E+00  0.00000000000E+00  0.45593999997E+02  0.45594000000E+02  0.51100000000E-03 0.  1.
         11   -1    0    0    0    0 -0.00000000000E+00 -0.00000000000E+00 -0.45593999997E+02  0.45594000000E+02  0.51100000000E-03 0. -1.
    9900012    2    1    2    0    0  0.23603013625E+02  0.99263708225E+01 -0.37060468874E+02  0.46142318264E+02  0.10000004587E+02 0.  0.
        -12    1    1    2    0    0 -0.23603013625E+02 -0.99263708225E+01  0.37060468874E+02  0.45045681736E+02  0.00000000000E+00 0.  1.
         11    1    3    3    0    0  0.79556839249E+01  0.90332102146E+00 -0.11618845963E+02  0.14110509465E+02  0.51100000000E-03 0. -1.
        -11    1    3    3    0    0  0.13603644494E+02  0.42476066046E+01 -0.19211256497E+02  0.23920152212E+02  0.51100000000E-03 0.  1.
        -12    1    3    3    0    0  0.20436852064E+01  0.47754431964E+01 -0.62303664139E+01  0.81116565876E+01  0.00000000000E+00 0.  1.
</event>
<event>
 7    1  0.1486782E-008  0.4614232E+02  0.7816164E-02  0.1320468E+00
        -11   -1    0    0    0    0  0.00000000000E+00  0.00000000000E+00  0.45593999997E+02  0.45594000000E+02  0.51100000000E-03 0.  1.
         11   -1    0    0    0    0 -0.00000000000E+00 -0.00000000000E+00 -0.45593999997E+02  0.45594000000E+02  0.51100000000E-03 0. -1.
    9900012    2    1    2    0    0  0.29333325950E+02 -0.14032151384E+02 -0.31173197416E+02  0.46142317400E+02  0.99999967074E+01 0.  0.
        -12    1    1    2    0    0 -0.29333325950E+02  0.14032151384E+02  0.31173197416E+02  0.45045682600E+02  0.00000000000E+00 0.  1.
         11    1    3    3    0    0  0.29960994585E+01 -0.25734025108E+01 -0.40784275532E+01  0.56773747468E+01  0.51100000000E-03 0. -1.
        -11    1    3    3    0    0  0.42117448795E+01 -0.16960446813E+01 -0.57904742854E+00  0.45771889492E+01  0.51100000000E-03 0.  1.
        -12    1    3    3    0    0  0.22125481612E+02 -0.97627041921E+01 -0.26515722435E+02  0.35887753704E+02  0.00000000000E+00 0.  1.
</event>
<event>
 7    1  0.1486782E-008  0.4614232E+02  0.7816164E-02  0.1320468E+00
        -11   -1    0    0    0    0  0.00000000000E+00  0.00000000000E+00  0.45593999997E+02  0.45594000000E+02  0.51100000000E-03 0. -1.
         11   -1    0    0    0    0 -0.00000000000E+00 -0.00000000000E+00 -0.45593999997E+02  0.45594000000E+02  0.51100000000E-03 0.  1.
    9900012    2    1    2    0    0  0.20886271147E+02  0.36731242935E+02  0.15610666918E+02  0.46142318170E+02  0.10000003724E+02 0.  0.
        -12    1    1    2    0    0 -0.20886271147E+02 -0.36731242935E+02 -0.15610666918E+02  0.45045681830E+02  0.00000000000E+00 0.  1.
         11    1    3    3    0    0  0.79600054660E+01  0.71175273176E+01  0.27411448224E+01  0.11024280354E+02  0.51100000000E-03 0. -1.
        -11    1    3    3    0    0  0.93804906423E+01  0.23774203977E+02  0.81929344937E+01  0.26838974558E+02  0.51100000000E-03 0.  1.
        -12    1    3    3    0    0  0.35457750385E+01  0.58395116397E+01  0.46765876019E+01  0.82790632569E+01  0.00000000000E+00 0.  1.
</event>
<event>
 7    1  0.1486782E-008  0.4614231E+02  0.7816164E-02  0.1320468E+00
        -11   -1    0    0    0    0  0.00000000000E+00  0.00000000000E+00  0.45593999997E+02  0.45594000000E+02  0.51100000000E-03 0.  1.
         11   -1    0    0    0    0 -0.00000000000E+00 -0.00000000000E+00 -0.45593999997E+02  0.45594000000E+02  0.51100000000E-03 0. -1.
    9900012    2    1    2    0    0  0.27829392283E+02  0.29757683637E+02 -0.19212472587E+02  0.46142313046E+02  0.99999570061E+01 0.  0.
        -12    1    1    2    0    0 -0.27829392283E+02 -0.29757683637E+02  0.19212472587E+02  0.45045686954E+02  0.00000000000E+00 0.  1.
         11    1    3    3    0    0 -0.40892226042E+00  0.16728388545E+01 -0.13560259683E+01  0.21918973370E+01  0.51100000000E-03 0. -1.
        -11    1    3    3    0    0  0.42637269599E+01  0.20590353790E+01 -0.27485797585E+01  0.54748228492E+01  0.51100000000E-03 0.  1.
         12    1    3    3    0    0  0.23974587583E+02  0.26025809403E+02 -0.15107866860E+02  0.38475592860E+02  0.00000000000E+00 0. -1.
</event>
<event>
 7    1  0.1486782E-008  0.4614232E+02  0.7816164E-02  0.1320468E+00
        -11   -1    0    0    0    0  0.00000000000E+00  0.00000000000E+00  0.45593999997E+02  0.45594000000E+02  0.51100000000E-03 0. -1.
         11   -1    0    0    0    0 -0.00000000000E+00 -0.00000000000E+00 -0.45593999997E+02  0.45594000000E+02  0.51100000000E-03 0.  1.
    9900012    2    1    2    0    0  0.42464397309E+02  0.11547284572E+02 -0.96202202297E+01  0.46142318108E+02  0.10000003165E+02 0.  0.
        -12    1    1    2    0    0 -0.42464397309E+02 -0.11547284572E+02  0.96202202297E+01  0.45045681892E+02  0.00000000000E+00 0.  1.
         11    1    3    3    0    0  0.23482119685E+02  0.64834195844E+01 -0.92042931116E+01  0.26041576111E+02  0.51100000000E-03 0. -1.
        -11    1    3    3    0    0  0.38733978804E+01 -0.39602504778E+00 -0.10175000990E+01  0.40243451257E+01  0.51100000000E-03 0.  1.
         12    1    3    3    0    0  0.15108879744E+02  0.54598900352E+01  0.60157298088E+00  0.16076396872E+02  0.00000000000E+00 0. -1.
</event>
<event>
 7    1  0.1486782E-008  0.4614232E+02  0.7816164E-02  0.1320468E+00
        -11   -1    0    0    0    0  0.00000000000E+00  0.00000000000E+00  0.45593999997E+02  0.45594000000E+02  0.51100000000E-03 0.  1.
         11   -1    0    0    0    0 -0.00000000000E+00 -0.00000000000E+00 -0.45593999997E+02  0.45594000000E+02  0.51100000000E-03 0. -1.
    9900012    2    1    2    0    0 -0.47405495245E+01  0.12097529580E+02 -0.43131084094E+02  0.46142318222E+02  0.10000004200E+02 0.  0.
        -12    1    1    2    0    0  0.47405495245E+01 -0.12097529580E+02  0.43131084094E+02  0.45045681778E+02  0.00000000000E+00 0.  1.
         11    1    3    3    0    0 -0.54236283791E+01  0.11815649569E+02 -0.33151541518E+02  0.35609690040E+02  0.51100000000E-03 0. -1.
        -11    1    3    3    0    0  0.19433940927E+01 -0.21504598982E+00 -0.68234123685E+01  0.70980266264E+01  0.51100000000E-03 0.  1.
         12    1    3    3    0    0 -0.12603152380E+01  0.49692600083E+00 -0.31561302083E+01  0.34346015549E+01  0.00000000000E+00 0. -1.
</event>
<event>
 7    1  0.1486782E-008  0.4614232E+02  0.7816164E-02  0.1320468E+00
        -11   -1    0    0    0    0  0.00000000000E+00  0.00000000000E+00  0.45593999997E+02  0.45594000000E+02  0.51100000000E-03 0.  1.
         11   -1    0    0    0    0 -0.00000000000E+00 -0.00000000000E+00 -0.45593999997E+02  0.45594000000E+02  0.51100000000E-03 0. -1.
    9900012    2    1    2    0    0  0.22833088080E+02 -0.21014293041E+02 -0.32652151748E+02  0.46142318331E+02  0.10000005194E+02 0.  0.
        -12    1    1    2    0    0 -0.22833088080E+02  0.21014293041E+02  0.32652151748E+02  0.45045681669E+02  0.00000000000E+00 0.  1.
         11    1    3    3    0    0  0.47344583368E-01  0.11366714782E-01 -0.23921624854E+01  0.23926580051E+01  0.51100000000E-03 0.  1.
        -11    1    3    3    0    0  0.19688381504E+02 -0.18024358679E+02 -0.28618926759E+02  0.39135058977E+02  0.51100000000E-03 0. -1.
        -12    1    3    3    0    0  0.30973619922E+01 -0.30013010764E+01 -0.16410625035E+01  0.46146013482E+01  0.00000000000E+00 0.  1.
</event>
<event>
 7    1  0.1486782E-008  0.4614232E+02  0.7816164E-02  0.1320468E+00
        -11   -1    0    0    0    0  0.00000000000E+00  0.00000000000E+00  0.45593999997E+02  0.45594000000E+02  0.51100000000E-03 0.  1.
         11   -1    0    0    0    0 -0.00000000000E+00 -0.00000000000E+00 -0.45593999997E+02  0.45594000000E+02  0.51100000000E-03 0. -1.
    9900012    2    1    2    0    0  0.10977280160E+02 -0.21561962169E+02 -0.37995981859E+02  0.46142317302E+02  0.99999958174E+01 0.  0.
        -12    1    1    2    0    0 -0.10977280160E+02  0.21561962169E+02  0.37995981859E+02  0.45045682698E+02  0.00000000000E+00 0.  1.
         11    1    3    3    0    0  0.65460706449E+01 -0.45841399274E+01 -0.12570134572E+02  0.14895424236E+02  0.51100000000E-03 0. -1.
        -11    1    3    3    0    0  0.45515290181E+00 -0.33645544497E+01 -0.85728445101E+01  0.92206862035E+01  0.51100000000E-03 0.  1.
        -12    1    3    3    0    0  0.39760566131E+01 -0.13613267792E+02 -0.16853002777E+02  0.22026206862E+02  0.00000000000E+00 0.  1.
</event>
<event>
 7    1  0.1486782E-008  0.4614232E+02  0.7816164E-02  0.1320468E+00
        -11   -1    0    0    0    0  0.00000000000E+00  0.00000000000E+00  0.45593999997E+02  0.45594000000E+02  0.51100000000E-03 0.  1.
         11   -1    0    0    0    0 -0.00000000000E+00 -0.00000000000E+00 -0.45593999997E+02  0.45594000000E+02  0.51100000000E-03 0. -1.
    9900012    2    1    2    0    0  0.38208653923E+02  0.56695891621E+01 -0.23174722681E+02  0.46142320438E+02  0.10000024408E+02 0.  0.
        -12    1    1    2    0    0 -0.38208653923E+02 -0.56695891621E+01  0.23174722681E+02  0.45045679562E+02  0.00000000000E+00 0.  1.
         11    1    3    3    0    0  0.28828370256E+02  0.29005701554E+01 -0.18696664137E+02  0.34482654900E+02  0.51100000000E-03 0. -1.
        -11    1    3    3    0    0  0.27283900760E+00  0.12642774570E+01  0.20377040468E+00  0.13093361873E+01  0.51100000000E-03 0.  1.
        -12    1    3    3    0    0  0.91074446598E+01  0.15047415496E+01 -0.46818289484E+01  0.10350329351E+02  0.00000000000E+00 0.  1.
</event>
<event>
 7    1  0.1486782E-008  0.4614232E+02  0.7816164E-02  0.1320468E+00
        -11   -1    0    0    0    0  0.00000000000E+00  0.00000000000E+00  0.45593999997E+02  0.45594000000E+02  0.51100000000E-03 0. -1.
         11   -1    0    0    0    0 -0.00000000000E+00 -0.00000000000E+00 -0.45593999997E+02  0.45594000000E+02  0.51100000000E-03 0.  1.
    9900012    2    1    2    0    0 -0.20560724619E+02  0.31885032583E+02  0.24284043355E+02  0.46142318061E+02  0.10000002737E+02 0.  0.
        -12    1    1    2    0    0  0.20560724619E+02 -0.31885032583E+02 -0.24284043355E+02  0.45045681939E+02  0.00000000000E+00 0.  1.
         11    1    3    3    0    0 -0.11919679242E+02  0.18955139758E+02  0.17733234225E+02  0.28562977310E+02  0.51100000000E-03 0. -1.
        -11    1    3    3    0    0 -0.77626483530E+01  0.75414038995E+01  0.38399669037E+01  0.11483763682E+02  0.51100000000E-03 0.  1.
         12    1    3    3    0    0 -0.87839702465E+00  0.53884889251E+01  0.27108422264E+01  0.60955770691E+01  0.00000000000E+00 0. -1.
</event>
<event>
 7    1  0.1486782E-008  0.4614232E+02  0.7816164E-02  0.1320468E+00
        -11   -1    0    0    0    0  0.00000000000E+00  0.00000000000E+00  0.45593999997E+02  0.45594000000E+02  0.51100000000E-03 0.  1.
         11   -1    0    0    0    0 -0.00000000000E+00 -0.00000000000E+00 -0.45593999997E+02  0.45594000000E+02  0.51100000000E-03 0. -1.
    9900012    2    1    2    0    0  0.18879427779E+02 -0.17339674148E+02 -0.37040740312E+02  0.46142317236E+02  0.99999952116E+01 0.  0.
        -12    1    1    2    0    0 -0.18879427779E+02  0.17339674148E+02  0.37040740312E+02  0.45045682764E+02  0.00000000000E+00 0.  1.
         11    1    3    3    0    0  0.15625909663E+02 -0.17117606123E+02 -0.32216314065E+02  0.39687181613E+02  0.51100000000E-03 0. -1.
        -11    1    3    3    0    0  0.26740987075E+01  0.87990739016E+00 -0.42157823924E+01  0.50693059046E+01  0.51100000000E-03 0.  1.
        -12    1    3    3    0    0  0.57941940826E+00 -0.11019754158E+01 -0.60864385448E+00  0.13858297187E+01  0.00000000000E+00 0.  1.
</event>
<event>
 7    1  0.1486782E-008  0.4614232E+02  0.7816164E-02  0.1320468E+00
        -11   -1    0    0    0    0  0.00000000000E+00  0.00000000000E+00  0.45593999997E+02  0.45594000000E+02  0.51100000000E-03 0. -1.
         11   -1    0    0    0    0 -0.00000000000E+00 -0.00000000000E+00 -0.45593999997E+02  0.45594000000E+02  0.51100000000E-03 0.  1.
    9900012    2    1    2    0    0 -0.20969513623E+02 -0.35030456004E+02  0.19033128426E+02  0.46142319551E+02  0.10000016323E+02 0.  0.
        -12    1    1    2    0    0  0.20969513623E+02  0.35030456004E+02 -0.19033128426E+02  0.45045680449E+02  0.00000000000E+00 0.  1.
         11    1    3    3    0    0 -0.11378279083E+02 -0.13102038668E+02  0.74744711111E+01  0.18894347589E+02  0.51100000000E-03 0. -1.
        -11    1    3    3    0    0 -0.21540307322E+01 -0.38343875054E+01 -0.23647553685E+00  0.44043497678E+01  0.51100000000E-03 0.  1.
         12    1    3    3    0    0 -0.74372038073E+01 -0.18094029831E+02  0.11795132851E+02  0.22843622194E+02  0.00000000000E+00 0. -1.
</event>
<event>
 7    1  0.1486782E-008  0.4614232E+02  0.7816164E-02  0.1320468E+00
        -11   -1    0    0    0    0  0.00000000000E+00  0.00000000000E+00  0.45593999997E+02  0.45594000000E+02  0.51100000000E-03 0.  1.
         11   -1    0    0    0    0 -0.00000000000E+00 -0.00000000000E+00 -0.45593999997E+02  0.45594000000E+02  0.51100000000E-03 0. -1.
    9900012    2    1    2    0    0  0.57765072502E+01  0.30554180793E+02 -0.32591217631E+02  0.46142318002E+02  0.10000002200E+02 0.  0.
        -12    1    1    2    0    0 -0.57765072502E+01 -0.30554180793E+02  0.32591217631E+02  0.45045681998E+02  0.00000000000E+00 0.  1.
         11    1    3    3    0    0 -0.86093958431E+00  0.99754313550E+01 -0.99764013044E+01  0.14134321028E+02  0.51100000000E-03 0. -1.
        -11    1    3    3    0    0  0.63927726572E+01  0.16616570764E+02 -0.21439197085E+02  0.27867851336E+02  0.51100000000E-03 0.  1.
        -12    1    3    3    0    0  0.24467417737E+00  0.39621786742E+01 -0.11756192421E+01  0.41401456377E+01  0.00000000000E+00 0.  1.
</event>
<event>
 7    1  0.1486782E-008  0.4614232E+02  0.7816164E-02  0.1320468E+00
        -11   -1    0    0    0    0  0.00000000000E+00  0.00000000000E+00  0.45593999997E+02  0.45594000000E+02  0.51100000000E-03 0. -1.
         11   -1    0    0    0    0 -0.00000000000E+00 -0.00000000000E+00 -0.45593999997E+02  0.45594000000E+02  0.51100000000E-03 0.  1.
    9900012    2    1    2    0    0  0.14245974693E+02  0.42526649228E+02  0.42011736854E+01  0.46142317079E+02  0.99999937802E+01 0.  0.
        -12    1    1    2    0    0 -0.14245974693E+02 -0.42526649228E+02 -0.42011736854E+01  0.45045682921E+02  0.00000000000E+00 0.  1.
         11    1    3    3    0    0  0.79333932103E+01  0.34122799949E+02  0.23637941331E+01  0.35112557970E+02  0.51100000000E-03 0. -1.
        -11    1    3    3    0    0  0.17417055969E+01  0.20373357530E+01 -0.73789535885E+00  0.27800656788E+01  0.51100000000E-03 0.  1.
         12    1    3    3    0    0  0.45708758857E+01  0.63665135255E+01  0.25752749111E+01  0.82496934307E+01  0.00000000000E+00 0. -1.
</event>
<event>
 7    1  0.1486782E-008  0.4614232E+02  0.7816164E-02  0.1320468E+00
        -11   -1    0    0    0    0  0.00000000000E+00  0.00000000000E+00  0.45593999997E+02  0.45594000000E+02  0.51100000000E-03 0. -1.
         11   -1    0    0    0    0 -0.00000000000E+00 -0.00000000000E+00 -0.45593999997E+02  0.45594000000E+02  0.51100000000E-03 0.  1.
    9900012    2    1    2    0    0 -0.11387627753E+02 -0.34993207956E+02  0.25979044990E+02  0.46142318215E+02  0.10000004139E+02 0.  0.
        -12    1    1    2    0    0  0.11387627753E+02  0.34993207956E+02 -0.25979044990E+02  0.45045681785E+02  0.00000000000E+00 0.  1.
         11    1    3    3    0    0 -0.57253483053E+01 -0.20076387392E+02  0.12615119216E+02  0.24392256497E+02  0.51100000000E-03 0. -1.
        -11    1    3    3    0    0  0.53785204877E+00  0.37664303261E+00  0.46582008348E+00  0.80506733363E+00  0.51100000000E-03 0.  1.
        -12    1    3    3    0    0 -0.62001314970E+01 -0.15293463597E+02  0.12898105690E+02  0.20944994384E+02  0.00000000000E+00 0.  1.
</event>
<event>
 7    1  0.1486782E-008  0.4614232E+02  0.7816164E-02  0.1320468E+00
        -11   -1    0    0    0    0  0.00000000000E+00  0.00000000000E+00  0.45593999997E+02  0.45594000000E+02  0.51100000000E-03 0.  1.
         11   -1    0    0    0    0 -0.00000000000E+00 -0.00000000000E+00 -0.45593999997E+02  0.45594000000E+02  0.51100000000E-03 0. -1.
    9900012    2    1    2    0    0  0.32821537693E+02 -0.19220291325E+02 -0.24133803542E+02  0.46142318647E+02  0.10000008083E+02 0.  0.
        -12    1    1    2    0    0 -0.32821537693E+02  0.19220291325E+02  0.24133803542E+02  0.45045681353E+02  0.00000000000E+00 0.  1.
         11    1    3    3    0    0  0.84814531237E+01 -0.61173471601E+01 -0.10148746050E+02  0.14572372148E+02  0.51100000000E-03 0. -1.
        -11    1    3    3    0    0  0.73669111002E+01 -0.43138900839E+01 -0.13138864907E+01  0.86375531712E+01  0.51100000000E-03 0.  1.
         12    1    3    3    0    0  0.16973173469E+02 -0.87890540808E+01 -0.12671171001E+02  0.22932393329E+02  0.00000000000E+00 0. -1.
</event>
<event>
 7    1  0.1486782E-008  0.4614232E+02  0.7816164E-02  0.1320468E+00
        -11   -1    0    0    0    0  0.00000000000E+00  0.00000000000E+00  0.45593999997E+02  0.45594000000E+02  0.51100000000E-03 0.  1.
         11   -1    0    0    0    0 -0.00000000000E+00 -0.00000000000E+00 -0.45593999997E+02  0.45594000000E+02  0.51100000000E-03 0. -1.
    9900012    2    1    2    0    0  0.38421683615E+01 -0.44097947310E+02 -0.83499895829E+01  0.46142317180E+02  0.99999947033E+01 0.  0.
        -12    1    1    2    0    0 -0.38421683615E+01  0.44097947310E+02  0.83499895829E+01  0.45045682820E+02  0.00000000000E+00 0.  1.
         11    1    3    3    0    0  0.33423937707E+01 -0.27169965998E+02 -0.20408039456E+01  0.27450747339E+02  0.51100000000E-03 0. -1.
        -11    1    3    3    0    0  0.89131883859E+00 -0.13005197544E+02 -0.68273660166E+01  0.14715384447E+02  0.51100000000E-03 0.  1.
         12    1    3    3    0    0 -0.39154424773E+00 -0.39227837682E+01  0.51818037938E+00  0.39761853950E+01  0.00000000000E+00 0. -1.
</event>
<event>
 7    1  0.1486782E-008  0.4614232E+02  0.7816164E-02  0.1320468E+00
        -11   -1    0    0    0    0  0.00000000000E+00  0.00000000000E+00  0.45593999997E+02  0.45594000000E+02  0.51100000000E-03 0.  1.
         11   -1    0    0    0    0 -0.00000000000E+00 -0.00000000000E+00 -0.45593999997E+02  0.45594000000E+02  0.51100000000E-03 0. -1.
    9900012    2    1    2    0    0  0.63560378069E+01 -0.22287472449E+02 -0.38626193365E+02  0.46142318091E+02  0.10000003009E+02 0.  0.
        -12    1    1    2    0    0 -0.63560378069E+01  0.22287472449E+02  0.38626193365E+02  0.45045681909E+02  0.00000000000E+00 0.  1.
         11    1    3    3    0    0  0.18297247187E+01 -0.34319480788E+01 -0.11676901340E+02  0.12307566182E+02  0.51100000000E-03 0. -1.
        -11    1    3    3    0    0  0.13881369267E+01 -0.28812832480E+01 -0.12936895318E+01  0.34499782822E+01  0.51100000000E-03 0.  1.
        -12    1    3    3    0    0  0.31381761614E+01 -0.15974241122E+02 -0.25655602493E+02  0.30384773627E+02  0.00000000000E+00 0.  1.
</event>
<event>
 7    1  0.1486782E-008  0.4614232E+02  0.7816164E-02  0.1320468E+00
        -11   -1    0    0    0    0  0.00000000000E+00  0.00000000000E+00  0.45593999997E+02  0.45594000000E+02  0.51100000000E-03 0.  1.
         11   -1    0    0    0    0 -0.00000000000E+00 -0.00000000000E+00 -0.45593999997E+02  0.45594000000E+02  0.51100000000E-03 0. -1.
    9900012    2    1    2    0    0 -0.69204869819E+01  0.10370513533E+02 -0.43285942687E+02  0.46142317351E+02  0.99999962622E+01 0.  0.
        -12    1    1    2    0    0  0.69204869819E+01 -0.10370513533E+02  0.43285942687E+02  0.45045682649E+02  0.00000000000E+00 0.  1.
         11    1    3    3    0    0 -0.24682721158E+01  0.13491222741E+01 -0.25186782205E+02  0.25343371841E+02  0.51100000000E-03 0. -1.
        -11    1    3    3    0    0 -0.16151866011E+01  0.54273417908E+01 -0.96429843746E+01  0.11182665808E+02  0.51100000000E-03 0.  1.
         12    1    3    3    0    0 -0.28370282650E+01  0.35940494679E+01 -0.84561761071E+01  0.96162797021E+01  0.00000000000E+00 0. -1.
</event>
<event>
 7    1  0.1486782E-008  0.4614232E+02  0.7816164E-02  0.1320468E+00
        -11   -1    0    0    0    0  0.00000000000E+00  0.00000000000E+00  0.45593999997E+02  0.45594000000E+02  0.51100000000E-03 0. -1.
         11   -1    0    0    0    0 -0.00000000000E+00 -0.00000000000E+00 -0.45593999997E+02  0.45594000000E+02  0.51100000000E-03 0.  1.
    9900012    2    1    2    0    0 -0.29785052763E+02 -0.16592167764E+02  0.29439158110E+02  0.46142318415E+02  0.10000005962E+02 0.  0.
        -12    1    1    2    0    0  0.29785052763E+02  0.16592167764E+02 -0.29439158110E+02  0.45045681585E+02  0.00000000000E+00 0.  1.
         11    1    3    3    0    0 -0.16525209649E+02 -0.93733777541E+01  0.10722352411E+02  0.21815398368E+02  0.51100000000E-03 0. -1.
        -11    1    3    3    0    0 -0.39927683267E+01 -0.91450263753E+00  0.70151882984E+01  0.81235079311E+01  0.51100000000E-03 0.  1.
         12    1    3    3    0    0 -0.92670747874E+01 -0.63042873722E+01  0.11701617401E+02  0.16203412116E+02  0.00000000000E+00 0. -1.
</event>
<event>
 7    1  0.1486782E-008  0.4614232E+02  0.7816164E-02  0.1320468E+00
        -11   -1    0    0    0    0  0.00000000000E+00  0.00000000000E+00  0.45593999997E+02  0.45594000000E+02  0.51100000000E-03 0.  1.
         11   -1    0    0    0    0 -0.00000000000E+00 -0.00000000000E+00 -0.45593999997E+02  0.45594000000E+02  0.51100000000E-03 0. -1.
    9900012    2    1    2    0    0  0.37187947469E+02 -0.48483001252E+01 -0.24953231845E+02  0.46142320622E+02  0.10000026091E+02 0.  0.
        -12    1    1    2    0    0 -0.37187947469E+02  0.48483001252E+01  0.24953231845E+02  0.45045679378E+02  0.00000000000E+00 0.  1.
         11    1    3    3    0    0  0.11459356421E+02 -0.16687176836E+01 -0.75455410265E+01  0.13821601135E+02  0.51100000000E-03 0. -1.
        -11    1    3    3    0    0  0.53063431314E+01 -0.44069053466E+00 -0.81412616128E+01  0.97278788276E+01  0.51100000000E-03 0.  1.
        -12    1    3    3    0    0  0.20422247917E+02 -0.27388919069E+01 -0.92664292058E+01  0.22592840660E+02  0.00000000000E+00 0.  1.
</event>
<event>
 7    1  0.1486782E-008  0.4614232E+02  0.7816164E-02  0.1320468E+00
        -11   -1    0    0    0    0  0.00000000000E+00  0.00000000000E+00  0.45593999997E+02  0.45594000000E+02  0.51100000000E-03 0. -1.
         11   -1    0    0    0    0 -0.00000000000E+00 -0.00000000000E+00 -0.45593999997E+02  0.45594000000E+02  0.51100000000E-03 0.  1.
    9900012    2    1    2    0    0 -0.37667898499E+02 -0.15613203498E+02  0.19143424465E+02  0.46142318730E+02  0.10000008835E+02 0.  0.
        -12    1    1    2    0    0  0.37667898499E+02  0.15613203498E+02 -0.19143424465E+02  0.45045681270E+02  0.00000000000E+00 0.  1.
         11    1    3    3    0    0 -0.17997610694E+02 -0.41864748423E+01  0.10467116210E+02  0.21236786111E+02  0.51100000000E-03 0. -1.
        -11    1    3    3    0    0 -0.22970240901E+01 -0.24391826482E+01  0.31030605257E+01  0.45667183567E+01  0.51100000000E-03 0.  1.
        -12    1    3    3    0    0 -0.17373263715E+02 -0.89875460078E+01  0.55732477297E+01  0.20338814263E+02  0.00000000000E+00 0.  1.
</event>
<event>
 7    1  0.1486782E-008  0.4614232E+02  0.7816164E-02  0.1320468E+00
        -11   -1    0    0    0    0  0.00000000000E+00  0.00000000000E+00  0.45593999997E+02  0.45594000000E+02  0.51100000000E-03 0. -1.
         11   -1    0    0    0    0 -0.00000000000E+00 -0.00000000000E+00 -0.45593999997E+02  0.45594000000E+02  0.51100000000E-03 0.  1.
    9900012    2    1    2    0    0  0.34666361008E+02  0.16726890474E+02  0.23400170116E+02  0.46142318609E+02  0.10000007733E+02 0.  0.
        -12    1    1    2    0    0 -0.34666361008E+02 -0.16726890474E+02 -0.23400170116E+02  0.45045681391E+02  0.00000000000E+00 0.  1.
         11    1    3    3    0    0  0.13224262174E+02  0.77186721757E+01  0.52012583054E+01  0.16171335703E+02  0.51100000000E-03 0. -1.
        -11    1    3    3    0    0  0.17451050931E+02  0.57255015836E+01  0.15987780183E+02  0.24350147072E+02  0.51100000000E-03 0.  1.
        -12    1    3    3    0    0  0.39910479030E+01  0.32827167150E+01  0.22111316275E+01  0.56208358336E+01  0.00000000000E+00 0.  1.
</event>
<event>
 7    1  0.1486782E-008  0.4614232E+02  0.7816164E-02  0.1320468E+00
        -11   -1    0    0    0    0  0.00000000000E+00  0.00000000000E+00  0.45593999997E+02  0.45594000000E+02  0.51100000000E-03 0.  1.
         11   -1    0    0    0    0 -0.00000000000E+00 -0.00000000000E+00 -0.45593999997E+02  0.45594000000E+02  0.51100000000E-03 0. -1.
    9900012    2    1    2    0    0 -0.26122210942E+02  0.13893739566E+02 -0.33966268007E+02  0.46142320230E+02  0.10000022513E+02 0.  0.
        -12    1    1    2    0    0  0.26122210942E+02 -0.13893739566E+02  0.33966268007E+02  0.45045679770E+02  0.00000000000E+00 0.  1.
         11    1    3    3    0    0 -0.22618017916E+01 -0.80017791313E+00 -0.45347585160E+01  0.51303086746E+01  0.51100000000E-03 0. -1.
        -11    1    3    3    0    0 -0.65651102210E+01  0.28557419968E+01 -0.10868404329E+02  0.13014536007E+02  0.51100000000E-03 0.  1.
         12    1    3    3    0    0 -0.17295298929E+02  0.11838175483E+02 -0.18563105162E+02  0.27997475548E+02  0.00000000000E+00 0. -1.
</event>
<event>
 7    1  0.1486782E-008  0.4614231E+02  0.7816164E-02  0.1320468E+00
        -11   -1    0    0    0    0  0.00000000000E+00  0.00000000000E+00  0.45593999997E+02  0.45594000000E+02  0.51100000000E-03 0.  1.
         11   -1    0    0    0    0 -0.00000000000E+00 -0.00000000000E+00 -0.45593999997E+02  0.45594000000E+02  0.51100000000E-03 0. -1.
    9900012    2    1    2    0    0  0.33012104716E+02 -0.30343325705E+02 -0.43124610196E+01  0.46142314384E+02  0.99999692017E+01 0.  0.
        -12    1    1    2    0    0 -0.33012104716E+02  0.30343325705E+02  0.43124610196E+01  0.45045685616E+02  0.00000000000E+00 0.  1.
         11    1    3    3    0    0  0.34281650980E+00 -0.69768080181E+00 -0.14039511955E+01  0.16047930961E+01  0.51100000000E-03 0.  1.
        -11    1    3    3    0    0  0.17491108965E+02 -0.17019459604E+02 -0.41498336269E+01  0.24755242221E+02  0.51100000000E-03 0. -1.
        -12    1    3    3    0    0  0.15178179241E+02 -0.12626185300E+02  0.12413238028E+01  0.19782279067E+02  0.00000000000E+00 0.  1.
</event>
<event>
 7    1  0.1486782E-008  0.4614232E+02  0.7816164E-02  0.1320468E+00
        -11   -1    0    0    0    0  0.00000000000E+00  0.00000000000E+00  0.45593999997E+02  0.45594000000E+02  0.51100000000E-03 0.  1.
         11   -1    0    0    0    0 -0.00000000000E+00 -0.00000000000E+00 -0.45593999997E+02  0.45594000000E+02  0.51100000000E-03 0. -1.
    9900012    2    1    2    0    0 -0.41857251865E+02  0.11256596972E+01 -0.16607735204E+02  0.46142317498E+02  0.99999976039E+01 0.  0.
        -12    1    1    2    0    0  0.41857251865E+02 -0.11256596972E+01  0.16607735204E+02  0.45045682502E+02  0.00000000000E+00 0.  1.
         11    1    3    3    0    0 -0.82798330264E+01  0.14261491154E+00 -0.15647217339E-02  0.82810613250E+01  0.51100000000E-03 0. -1.
        -11    1    3    3    0    0 -0.30676632855E+02  0.74850018965E+00 -0.16726692055E+02  0.34948509028E+02  0.51100000000E-03 0.  1.
        -12    1    3    3    0    0 -0.29007859829E+01  0.23454459600E+00  0.12052157254E+00  0.29127471459E+01  0.00000000000E+00 0.  1.
</event>
<event>
 7    1  0.1486782E-008  0.4614232E+02  0.7816164E-02  0.1320468E+00
        -11   -1    0    0    0    0  0.00000000000E+00  0.00000000000E+00  0.45593999997E+02  0.45594000000E+02  0.51100000000E-03 0.  1.
         11   -1    0    0    0    0 -0.00000000000E+00 -0.00000000000E+00 -0.45593999997E+02  0.45594000000E+02  0.51100000000E-03 0. -1.
    9900012    2    1    2    0    0 -0.25804872016E+02  0.34325341138E+02 -0.13601213503E+02  0.46142317934E+02  0.10000001579E+02 0.  0.
        -12    1    1    2    0    0  0.25804872016E+02 -0.34325341138E+02  0.13601213503E+02  0.45045682066E+02  0.00000000000E+00 0.  1.
         11    1    3    3    0    0 -0.35666725201E+01  0.70206637529E+01 -0.18180846278E+01  0.80818503062E+01  0.51100000000E-03 0. -1.
        -11    1    3    3    0    0 -0.44188082701E+01  0.93047894191E+01 -0.65207580774E+01  0.12191195956E+02  0.51100000000E-03 0.  1.
        -12    1    3    3    0    0 -0.17819391226E+02  0.17999887966E+02 -0.52623707973E+01  0.25869271673E+02  0.00000000000E+00 0.  1.
</event>
<event>
 7    1  0.1486782E-008  0.4614232E+02  0.7816164E-02  0.1320468E+00
        -11   -1    0    0    0    0  0.00000000000E+00  0.00000000000E+00  0.45593999997E+02  0.45594000000E+02  0.51100000000E-03 0.  1.
         11   -1    0    0    0    0 -0.00000000000E+00 -0.00000000000E+00 -0.45593999997E+02  0.45594000000E+02  0.51100000000E-03 0. -1.
    9900012    2    1    2    0    0  0.64057661621E+01  0.43926958819E+02  0.76486548331E+01  0.46142317943E+02  0.10000001659E+02 0.  0.
        -12    1    1    2    0    0 -0.64057661621E+01 -0.43926958819E+02 -0.76486548331E+01  0.45045682057E+02  0.00000000000E+00 0.  1.
         11    1    3    3    0    0  0.15826824371E+01  0.30347799608E+02  0.69047980955E+01  0.31163601553E+02  0.51100000000E-03 0. -1.
        -11    1    3    3    0    0  0.11632617840E+01  0.90683355691E+00  0.10068717547E+01  0.17858656359E+01  0.51100000000E-03 0.  1.
        -12    1    3    3    0    0  0.36598219410E+01  0.12672325654E+02 -0.26301501710E+00  0.13192850754E+02  0.00000000000E+00 0.  1.
</event>
<event>
 7    1  0.1486782E-008  0.4614232E+02  0.7816164E-02  0.1320468E+00
        -11   -1    0    0    0    0  0.00000000000E+00  0.00000000000E+00  0.45593999997E+02  0.45594000000E+02  0.51100000000E-03 0. -1.
         11   -1    0    0    0    0 -0.00000000000E+00 -0.00000000000E+00 -0.45593999997E+02  0.45594000000E+02  0.51100000000E-03 0.  1.
    9900012    2    1    2    0    0 -0.55064506010E+01  0.43784210644E+02  0.90407616442E+01  0.46142317953E+02  0.10000001754E+02 0.  0.
        -12    1    1    2    0    0  0.55064506010E+01 -0.43784210644E+02 -0.90407616442E+01  0.45045682047E+02  0.00000000000E+00 0.  1.
         11    1    3    3    0    0 -0.60363769868E+01  0.34661452949E+02  0.58037490531E+01  0.35658626880E+02  0.51100000000E-03 0. -1.
        -11    1    3    3    0    0  0.12816727058E+01  0.72762774789E+01  0.39356800553E+01  0.83711693707E+01  0.51100000000E-03 0.  1.
         12    1    3    3    0    0 -0.75174631994E+00  0.18464802159E+01 -0.69866746418E+00  0.21125217023E+01  0.00000000000E+00 0. -1.
</event>
<event>
 7    1  0.1486782E-008  0.4614232E+02  0.7816164E-02  0.1320468E+00
        -11   -1    0    0    0    0  0.00000000000E+00  0.00000000000E+00  0.45593999997E+02  0.45594000000E+02  0.51100000000E-03 0. -1.
         11   -1    0    0    0    0 -0.00000000000E+00 -0.00000000000E+00 -0.45593999997E+02  0.45594000000E+02  0.51100000000E-03 0.  1.
    9900012    2    1    2    0    0  0.31067786199E+02 -0.22525485281E+02  0.23590436125E+02  0.46142317598E+02  0.99999985157E+01 0.  0.
        -12    1    1    2    0    0 -0.31067786199E+02  0.22525485281E+02 -0.23590436125E+02  0.45045682402E+02  0.00000000000E+00 0.  1.
         11    1    3    3    0    0  0.84405870634E+01 -0.10522344324E+02  0.58990211397E+01  0.14722828897E+02  0.51100000000E-03 0. -1.
        -11    1    3    3    0    0  0.20951353269E+02 -0.11041302925E+02  0.14750692874E+02  0.27900761900E+02  0.51100000000E-03 0.  1.
         12    1    3    3    0    0  0.16758458670E+01 -0.96183803194E+00  0.29407221110E+01  0.35187268015E+01  0.00000000000E+00 0. -1.
</event>
<event>
 7    1  0.1486782E-008  0.4614232E+02  0.7816164E-02  0.1320468E+00
        -11   -1    0    0    0    0  0.00000000000E+00  0.00000000000E+00  0.45593999997E+02  0.45594000000E+02  0.51100000000E-03 0.  1.
         11   -1    0    0    0    0 -0.00000000000E+00 -0.00000000000E+00 -0.45593999997E+02  0.45594000000E+02  0.51100000000E-03 0. -1.
    9900012    2    1    2    0    0 -0.30006066681E+02 -0.24165519324E+02 -0.23340461901E+02  0.46142317370E+02  0.99999964368E+01 0.  0.
        -12    1    1    2    0    0  0.30006066681E+02  0.24165519324E+02  0.23340461901E+02  0.45045682630E+02  0.00000000000E+00 0.  1.
         11    1    3    3    0    0 -0.89739057398E+01 -0.77829846317E+01 -0.95263729867E+01  0.15226871529E+02  0.51100000000E-03 0. -1.
        -11    1    3    3    0    0 -0.63778267339E+01 -0.75521172152E+01 -0.18978239866E+01  0.10065430166E+02  0.51100000000E-03 0.  1.
        -12    1    3    3    0    0 -0.14654334207E+02 -0.88304174771E+01 -0.11916264927E+02  0.20850015676E+02  0.00000000000E+00 0.  1.
</event>
<event>
 7    1  0.1486782E-008  0.4614232E+02  0.7816164E-02  0.1320468E+00
        -11   -1    0    0    0    0  0.00000000000E+00  0.00000000000E+00  0.45593999997E+02  0.45594000000E+02  0.51100000000E-03 0. -1.
         11   -1    0    0    0    0 -0.00000000000E+00 -0.00000000000E+00 -0.45593999997E+02  0.45594000000E+02  0.51100000000E-03 0.  1.
    9900012    2    1    2    0    0 -0.16673688778E+02 -0.26544641547E+02  0.32349399871E+02  0.46142316918E+02  0.99999923119E+01 0.  0.
        -12    1    1    2    0    0  0.16673688778E+02  0.26544641547E+02 -0.32349399871E+02  0.45045683082E+02  0.00000000000E+00 0.  1.
         11    1    3    3    0    0 -0.21938271263E+01 -0.96585929795E+01  0.13308243330E+02  0.16589473668E+02  0.51100000000E-03 0. -1.
        -11    1    3    3    0    0 -0.11849976169E+02 -0.11265138473E+02  0.12950711167E+02  0.20857761146E+02  0.51100000000E-03 0.  1.
        -12    1    3    3    0    0 -0.26298854830E+01 -0.56209100937E+01  0.60904453745E+01  0.86950821039E+01  0.00000000000E+00 0.  1.
</event>
<event>
 7    1  0.1486782E-008  0.4614232E+02  0.7816164E-02  0.1320468E+00
        -11   -1    0    0    0    0  0.00000000000E+00  0.00000000000E+00  0.45593999997E+02  0.45594000000E+02  0.51100000000E-03 0.  1.
         11   -1    0    0    0    0 -0.00000000000E+00 -0.00000000000E+00 -0.45593999997E+02  0.45594000000E+02  0.51100000000E-03 0. -1.
    9900012    2    1    2    0    0  0.22885501787E+01 -0.31325700922E+02 -0.32288953887E+02  0.46142317152E+02  0.99999944458E+01 0.  0.
        -12    1    1    2    0    0 -0.22885501787E+01  0.31325700922E+02  0.32288953887E+02  0.45045682848E+02  0.00000000000E+00 0.  1.
         11    1    3    3    0    0  0.32695153402E+01 -0.55634872917E+01 -0.79215535072E+01  0.10217295710E+02  0.51100000000E-03 0.  1.
        -11    1    3    3    0    0  0.28026496149E+00 -0.17071563445E+02 -0.19370614218E+02  0.25821261053E+02  0.51100000000E-03 0. -1.
         12    1    3    3    0    0 -0.12612301230E+01 -0.86906501843E+01 -0.49967861618E+01  0.10103760389E+02  0.00000000000E+00 0. -1.
</event>
<event>
 7    1  0.1486782E-008  0.4614232E+02  0.7816164E-02  0.1320468E+00
        -11   -1    0    0    0    0  0.00000000000E+00  0.00000000000E+00  0.45593999997E+02  0.45594000000E+02  0.51100000000E-03 0.  1.
         11   -1    0    0    0    0 -0.00000000000E+00 -0.00000000000E+00 -0.45593999997E+02  0.45594000000E+02  0.51100000000E-03 0. -1.
    9900012    2    1    2    0    0 -0.44083961316E+02 -0.48930730730E+01 -0.78597533097E+01  0.46142317283E+02  0.99999956382E+01 0.  0.
        -12    1    1    2    0    0  0.44083961316E+02  0.48930730730E+01  0.78597533097E+01  0.45045682717E+02  0.00000000000E+00 0.  1.
         11    1    3    3    0    0 -0.20486863053E+02 -0.44199854875E+01 -0.39861010531E+01  0.21333936143E+02  0.51100000000E-03 0. -1.
        -11    1    3    3    0    0 -0.47898814186E+01  0.25835510930E+01 -0.11230264081E+01  0.55568776151E+01  0.51100000000E-03 0.  1.
        -12    1    3    3    0    0 -0.18807216843E+02 -0.30566386784E+01 -0.27506258485E+01  0.19251503525E+02  0.00000000000E+00 0.  1.
</event>
<event>
 7    1  0.1486782E-008  0.4614232E+02  0.7816164E-02  0.1320468E+00
        -11   -1    0    0    0    0  0.00000000000E+00  0.00000000000E+00  0.45593999997E+02  0.45594000000E+02  0.51100000000E-03 0.  1.
         11   -1    0    0    0    0 -0.00000000000E+00 -0.00000000000E+00 -0.45593999997E+02  0.45594000000E+02  0.51100000000E-03 0. -1.
    9900012    2    1    2    0    0 -0.88204639691E+01 -0.39329619542E+02 -0.20112031360E+02  0.46142319149E+02  0.10000012653E+02 0.  0.
        -12    1    1    2    0    0  0.88204639691E+01  0.39329619542E+02  0.20112031360E+02  0.45045680851E+02  0.00000000000E+00 0.  1.
         11    1    3    3    0    0 -0.93788715351E+01 -0.31984287072E+02 -0.14701830747E+02  0.36429406780E+02  0.51100000000E-03 0. -1.
        -11    1    3    3    0    0  0.37073934755E+00 -0.76764178626E+01 -0.51277145849E+01  0.92389553517E+01  0.51100000000E-03 0.  1.
         12    1    3    3    0    0  0.18766821837E+00  0.33108539285E+00 -0.28248602894E+00  0.47395701713E+00  0.00000000000E+00 0. -1.
</event>
<event>
 7    1  0.1486782E-008  0.4614232E+02  0.7816164E-02  0.1320468E+00
        -11   -1    0    0    0    0  0.00000000000E+00  0.00000000000E+00  0.45593999997E+02  0.45594000000E+02  0.51100000000E-03 0. -1.
         11   -1    0    0    0    0 -0.00000000000E+00 -0.00000000000E+00 -0.45593999997E+02  0.45594000000E+02  0.51100000000E-03 0.  1.
    9900012    2    1    2    0    0 -0.96239601620E+01  0.28002635217E+02  0.33946214340E+02  0.46142315897E+02  0.99999830056E+01 0.  0.
        -12    1    1    2    0    0  0.96239601620E+01 -0.28002635217E+02 -0.33946214340E+02  0.45045684103E+02  0.00000000000E+00 0.  1.
         11    1    3    3    0    0 -0.37790988066E+01  0.20893687636E+02  0.24319784650E+02  0.32284356839E+02  0.51100000000E-03 0. -1.
        -11    1    3    3    0    0 -0.30819140832E+01  0.41106623022E+01  0.26583422695E+01  0.57846800138E+01  0.51100000000E-03 0.  1.
        -12    1    3    3    0    0 -0.27629472722E+01  0.29982852786E+01  0.69680874203E+01  0.80732790450E+01  0.00000000000E+00 0.  1.
</event>
<event>
 7    1  0.1486782E-008  0.4614232E+02  0.7816164E-02  0.1320468E+00
        -11   -1    0    0    0    0  0.00000000000E+00  0.00000000000E+00  0.45593999997E+02  0.45594000000E+02  0.51100000000E-03 0.  1.
         11   -1    0    0    0    0 -0.00000000000E+00 -0.00000000000E+00 -0.45593999997E+02  0.45594000000E+02  0.51100000000E-03 0. -1.
    9900012    2    1    2    0    0 -0.11497537890E+02 -0.38808736360E+02 -0.19768711360E+02  0.46142319361E+02  0.10000014590E+02 0.  0.
        -12    1    1    2    0    0  0.11497537890E+02  0.38808736360E+02  0.19768711360E+02  0.45045680639E+02  0.00000000000E+00 0.  1.
         11    1    3    3    0    0 -0.20161968928E+01 -0.11506143053E+02 -0.30355160434E+01  0.12069413233E+02  0.51100000000E-03 0. -1.
        -11    1    3    3    0    0 -0.10172286386E+02 -0.23067263262E+02 -0.15553532020E+02  0.29622396987E+02  0.51100000000E-03 0.  1.
        -12    1    3    3    0    0  0.69094538963E+00 -0.42353300447E+01 -0.11796632968E+01  0.44505091409E+01  0.00000000000E+00 0.  1.
</event>
<event>
 7    1  0.1486782E-008  0.4614232E+02  0.7816164E-02  0.1320468E+00
        -11   -1    0    0    0    0  0.00000000000E+00  0.00000000000E+00  0.45593999997E+02  0.45594000000E+02  0.51100000000E-03 0.  1.
         11   -1    0    0    0    0 -0.00000000000E+00 -0.00000000000E+00 -0.45593999997E+02  0.45594000000E+02  0.51100000000E-03 0. -1.
    9900012    2    1    2    0    0  0.85142043363E+01 -0.86350895482E+01 -0.43382677273E+02  0.46142321691E+02  0.10000035832E+02 0.  0.
        -12    1    1    2    0    0 -0.85142043363E+01  0.86350895482E+01  0.43382677273E+02  0.45045678309E+02  0.00000000000E+00 0.  1.
         11    1    3    3    0    0  0.12728469147E+01 -0.28370491696E+01 -0.16245169272E+02  0.16540088035E+02  0.51100000000E-03 0. -1.
        -11    1    3    3    0    0  0.35465096575E+01 -0.28040127260E+01 -0.22535319496E+02  0.22984360839E+02  0.51100000000E-03 0.  1.
        -12    1    3    3    0    0  0.36948477642E+01 -0.29940276525E+01 -0.46021885044E+01  0.66178728164E+01  0.00000000000E+00 0.  1.
</event>
<event>
 7    1  0.1486782E-008  0.4614232E+02  0.7816164E-02  0.1320468E+00
        -11   -1    0    0    0    0  0.00000000000E+00  0.00000000000E+00  0.45593999997E+02  0.45594000000E+02  0.51100000000E-03 0.  1.
         11   -1    0    0    0    0 -0.00000000000E+00 -0.00000000000E+00 -0.45593999997E+02  0.45594000000E+02  0.51100000000E-03 0. -1.
    9900012    2    1    2    0    0  0.13147898686E+02  0.83551937231E+01 -0.42266262045E+02  0.46142318639E+02  0.10000008008E+02 0.  0.
        -12    1    1    2    0    0 -0.13147898686E+02 -0.83551937231E+01  0.42266262045E+02  0.45045681361E+02  0.00000000000E+00 0.  1.
         11    1    3    3    0    0 -0.47639457101E+00 -0.44114896687E+00 -0.23005444602E+00  0.68883198787E+00  0.51100000000E-03 0.  1.
        -11    1    3    3    0    0  0.83467465005E+01  0.85979360709E+01 -0.30314640548E+02  0.32597087502E+02  0.51100000000E-03 0. -1.
        -12    1    3    3    0    0  0.52775467566E+01  0.19840661909E+00 -0.11721567051E+02  0.12856399149E+02  0.00000000000E+00 0.  1.
</event>
<event>
 7    1  0.1486782E-008  0.4614232E+02  0.7816164E-02  0.1320468E+00
        -11   -1    0    0    0    0  0.00000000000E+00  0.00000000000E+00  0.45593999997E+02  0.45594000000E+02  0.51100000000E-03 0.  1.
         11   -1    0    0    0    0 -0.00000000000E+00 -0.00000000000E+00 -0.45593999997E+02  0.45594000000E+02  0.51100000000E-03 0. -1.
    9900012    2    1    2    0    0  0.84749639177E+00  0.16494466949E+02 -0.41908564116E+02  0.46142318339E+02  0.10000005266E+02 0.  0.
        -12    1    1    2    0    0 -0.84749639177E+00 -0.16494466949E+02  0.41908564116E+02  0.45045681661E+02  0.00000000000E+00 0.  1.
         11    1    3    3    0    0 -0.22581905174E+01  0.11837019122E+02 -0.27356683874E+02  0.29893186497E+02  0.51100000000E-03 0. -1.
        -11    1    3    3    0    0  0.37423650608E+01  0.15410174307E+01 -0.79458293653E+01  0.89171876471E+01  0.51100000000E-03 0.  1.
        -12    1    3    3    0    0 -0.63667815166E+00  0.31164303963E+01 -0.66060508767E+01  0.73319441944E+01  0.00000000000E+00 0.  1.
</event>
<event>
 7    1  0.1486782E-008  0.4614232E+02  0.7816164E-02  0.1320468E+00
        -11   -1    0    0    0    0  0.00000000000E+00  0.00000000000E+00  0.45593999997E+02  0.45594000000E+02  0.51100000000E-03 0. -1.
         11   -1    0    0    0    0 -0.00000000000E+00 -0.00000000000E+00 -0.45593999997E+02  0.45594000000E+02  0.51100000000E-03 0.  1.
    9900012    2    1    2    0    0  0.79680225898E+01 -0.39231034719E+02  0.20653086919E+02  0.46142317983E+02  0.10000002022E+02 0.  0.
        -12    1    1    2    0    0 -0.79680225898E+01  0.39231034719E+02 -0.20653086919E+02  0.45045682017E+02  0.00000000000E+00 0.  1.
         11    1    3    3    0    0  0.55143152099E+01 -0.15717551738E+02  0.78734243758E+01  0.18423895259E+02  0.51100000000E-03 0. -1.
        -11    1    3    3    0    0 -0.15298613068E+01 -0.56579519595E+01  0.96362757436E+00  0.59398210711E+01  0.51100000000E-03 0.  1.
        -12    1    3    3    0    0  0.39835686866E+01 -0.17855531022E+02  0.11816034969E+02  0.21778601652E+02  0.00000000000E+00 0.  1.
</event>
<event>
 7    1  0.1486782E-008  0.4614232E+02  0.7816164E-02  0.1320468E+00
        -11   -1    0    0    0    0  0.00000000000E+00  0.00000000000E+00  0.45593999997E+02  0.45594000000E+02  0.51100000000E-03 0. -1.
         11   -1    0    0    0    0 -0.00000000000E+00 -0.00000000000E+00 -0.45593999997E+02  0.45594000000E+02  0.51100000000E-03 0.  1.
    9900012    2    1    2    0    0 -0.68828547320E+01  0.11727616117E+02  0.42944182120E+02  0.46142318220E+02  0.10000004188E+02 0.  0.
        -12    1    1    2    0    0  0.68828547320E+01 -0.11727616117E+02 -0.42944182120E+02  0.45045681780E+02  0.00000000000E+00 0.  1.
         11    1    3    3    0    0  0.77189350268E-01  0.29777964276E+01  0.10599017457E+02  0.11009650361E+02  0.51100000000E-03 0. -1.
        -11    1    3    3    0    0 -0.78750433803E+01  0.96008996063E+01  0.28446679388E+02  0.31038800717E+02  0.51100000000E-03 0.  1.
        -12    1    3    3    0    0  0.91499929807E+00 -0.85107991669E+00  0.38984852751E+01  0.40938671425E+01  0.00000000000E+00 0.  1.
</event>
<event>
 7    1  0.1486782E-008  0.4614232E+02  0.7816164E-02  0.1320468E+00
        -11   -1    0    0    0    0  0.00000000000E+00  0.00000000000E+00  0.45593999997E+02  0.45594000000E+02  0.51100000000E-03 0. -1.
         11   -1    0    0    0    0 -0.00000000000E+00 -0.00000000000E+00 -0.45593999997E+02  0.45594000000E+02  0.51100000000E-03 0.  1.
    9900012    2    1    2    0    0  0.41342149209E+02 -0.17355875257E+02 -0.43259628582E+01  0.46142315836E+02  0.99999824479E+01 0.  0.
        -12    1    1    2    0    0 -0.41342149209E+02  0.17355875257E+02  0.43259628582E+01  0.45045684164E+02  0.00000000000E+00 0.  1.
         11    1    3    3    0    0  0.12859310049E+02 -0.54999292032E+01 -0.50012286936E+01  0.14853395736E+02  0.51100000000E-03 0. -1.
        -11    1    3    3    0    0  0.43897837164E+00  0.39968808765E+00  0.33598885351E+00  0.68215932815E+00  0.51100000000E-03 0.  1.
         12    1    3    3    0    0  0.28043860788E+02 -0.12255634141E+02  0.33927698189E+00  0.30606760772E+02  0.00000000000E+00 0. -1.
</event>
<event>
 7    1  0.1486782E-008  0.4614232E+02  0.7816164E-02  0.1320468E+00
        -11   -1    0    0    0    0  0.00000000000E+00  0.00000000000E+00  0.45593999997E+02  0.45594000000E+02  0.51100000000E-03 0.  1.
         11   -1    0    0    0    0 -0.00000000000E+00 -0.00000000000E+00 -0.45593999997E+02  0.45594000000E+02  0.51100000000E-03 0. -1.
    9900012    2    1    2    0    0  0.40477921804E+02 -0.95703508302E+01  0.17293347117E+02  0.46142316266E+02  0.99999863657E+01 0.  0.
        -12    1    1    2    0    0 -0.40477921804E+02  0.95703508302E+01 -0.17293347117E+02  0.45045683734E+02  0.00000000000E+00 0.  1.
         11    1    3    3    0    0  0.26953940768E+02 -0.10251666357E+02  0.12036988962E+02  0.31249011017E+02  0.51100000000E-03 0. -1.
        -11    1    3    3    0    0  0.12915710845E+02  0.25883711797E+00  0.41625822105E+01  0.13572386459E+02  0.51100000000E-03 0.  1.
         12    1    3    3    0    0  0.60827019086E+00  0.42247840908E+00  0.10937759445E+01  0.13209187893E+01  0.00000000000E+00 0. -1.
</event>
<event>
 7    1  0.1486782E-008  0.4614232E+02  0.7816164E-02  0.1320468E+00
        -11   -1    0    0    0    0  0.00000000000E+00  0.00000000000E+00  0.45593999997E+02  0.45594000000E+02  0.51100000000E-03 0.  1.
         11   -1    0    0    0    0 -0.00000000000E+00 -0.00000000000E+00 -0.45593999997E+02  0.45594000000E+02  0.51100000000E-03 0. -1.
    9900012    2    1    2    0    0 -0.44194300533E+01  0.31724415388E+02 -0.31672443089E+02  0.46142317133E+02  0.99999942738E+01 0.  0.
        -12    1    1    2    0    0  0.44194300533E+01 -0.31724415388E+02  0.31672443089E+02  0.45045682867E+02  0.00000000000E+00 0.  1.
         11    1    3    3    0    0 -0.42728047119E+01  0.13833293481E+02 -0.10506440526E+02  0.17888604234E+02  0.51100000000E-03 0. -1.
        -11    1    3    3    0    0  0.31939769162E+00  0.17985517811E+02 -0.21167165123E+02  0.27778224303E+02  0.51100000000E-03 0.  1.
        -12    1    3    3    0    0 -0.46602303294E+00 -0.94395904307E-01  0.11625595868E-02  0.47548859663E+00  0.00000000000E+00 0.  1.
</event>
<event>
 7    1  0.1486782E-008  0.4614232E+02  0.7816164E-02  0.1320468E+00
        -11   -1    0    0    0    0  0.00000000000E+00  0.00000000000E+00  0.45593999997E+02  0.45594000000E+02  0.51100000000E-03 0.  1.
         11   -1    0    0    0    0 -0.00000000000E+00 -0.00000000000E+00 -0.45593999997E+02  0.45594000000E+02  0.51100000000E-03 0. -1.
    9900012    2    1    2    0    0  0.22764460341E+02 -0.21552123360E+02 -0.32348087320E+02  0.46142318418E+02  0.10000005994E+02 0.  0.
        -12    1    1    2    0    0 -0.22764460341E+02  0.21552123360E+02  0.32348087320E+02  0.45045681582E+02  0.00000000000E+00 0.  1.
         11    1    3    3    0    0  0.11424008397E+02 -0.16135312608E+02 -0.19488745698E+02  0.27760898580E+02  0.51100000000E-03 0. -1.
        -11    1    3    3    0    0  0.72634157436E+01 -0.30161599235E+01 -0.10429894083E+02  0.13062814390E+02  0.51100000000E-03 0.  1.
        -12    1    3    3    0    0  0.40770361999E+01 -0.24006508276E+01 -0.24294475389E+01  0.53186054484E+01  0.00000000000E+00 0.  1.
</event>
<event>
 7    1  0.1486782E-008  0.4614232E+02  0.7816164E-02  0.1320468E+00
        -11   -1    0    0    0    0  0.00000000000E+00  0.00000000000E+00  0.45593999997E+02  0.45594000000E+02  0.51100000000E-03 0. -1.
         11   -1    0    0    0    0 -0.00000000000E+00 -0.00000000000E+00 -0.45593999997E+02  0.45594000000E+02  0.51100000000E-03 0.  1.
    9900012    2    1    2    0    0 -0.27754715443E+02 -0.13488747545E+02  0.32815286680E+02  0.46142316749E+02  0.99999907673E+01 0.  0.
        -12    1    1    2    0    0  0.27754715443E+02  0.13488747545E+02 -0.32815286680E+02  0.45045683251E+02  0.00000000000E+00 0.  1.
         11    1    3    3    0    0 -0.21370801820E+02 -0.92279832421E+01  0.20822100477E+02  0.31231822132E+02  0.51100000000E-03 0. -1.
        -11    1    3    3    0    0 -0.33561695320E+01  0.22093488431E+00  0.56413121863E+01  0.65678831898E+01  0.51100000000E-03 0.  1.
         12    1    3    3    0    0 -0.30277440907E+01 -0.44816991876E+01  0.63518740170E+01  0.83426114265E+01  0.00000000000E+00 0. -1.
</event>
<event>
 7    1  0.1486782E-008  0.4614232E+02  0.7816164E-02  0.1320468E+00
        -11   -1    0    0    0    0  0.00000000000E+00  0.00000000000E+00  0.45593999997E+02  0.45594000000E+02  0.51100000000E-03 0. -1.
         11   -1    0    0    0    0 -0.00000000000E+00 -0.00000000000E+00 -0.45593999997E+02  0.45594000000E+02  0.51100000000E-03 0.  1.
    9900012    2    1    2    0    0 -0.23044831001E+02  0.29810440880E+02  0.24685762782E+02  0.46142317572E+02  0.99999982738E+01 0.  0.
        -12    1    1    2    0    0  0.23044831001E+02 -0.29810440880E+02 -0.24685762782E+02  0.45045682428E+02  0.00000000000E+00 0.  1.
         11    1    3    3    0    0 -0.21065131888E+02  0.25746423935E+02  0.21807272175E+02  0.39776566555E+02  0.51100000000E-03 0. -1.
        -11    1    3    3    0    0  0.28776235563E+00  0.27933896542E-01  0.15112715229E+01  0.15386777937E+01  0.51100000000E-03 0.  1.
         12    1    3    3    0    0 -0.22674614682E+01  0.40360830478E+01  0.13672190843E+01  0.48270732233E+01  0.00000000000E+00 0. -1.
</event>
<event>
 7    1  0.1486782E-008  0.4614232E+02  0.7816164E-02  0.1320468E+00
        -11   -1    0    0    0    0  0.00000000000E+00  0.00000000000E+00  0.45593999997E+02  0.45594000000E+02  0.51100000000E-03 0.  1.
         11   -1    0    0    0    0 -0.00000000000E+00 -0.00000000000E+00 -0.45593999997E+02  0.45594000000E+02  0.51100000000E-03 0. -1.
    9900012    2    1    2    0    0  0.17313333948E+02 -0.32963053017E+02 -0.25353481021E+02  0.46142318781E+02  0.10000009297E+02 0.  0.
        -12    1    1    2    0    0 -0.17313333948E+02  0.32963053017E+02  0.25353481021E+02  0.45045681219E+02  0.00000000000E+00 0.  1.
         11    1    3    3    0    0  0.10371533915E+02 -0.19554017831E+02 -0.15281313101E+02  0.26896967476E+02  0.51100000000E-03 0. -1.
        -11    1    3    3    0    0  0.56374533256E+01 -0.12282067009E+02 -0.59281863593E+01  0.14757148904E+02  0.51100000000E-03 0.  1.
         12    1    3    3    0    0  0.13043467076E+01 -0.11269681780E+01 -0.41439815610E+01  0.44882024003E+01  0.00000000000E+00 0. -1.
</event>
<event>
 7    1  0.1486782E-008  0.4614232E+02  0.7816164E-02  0.1320468E+00
        -11   -1    0    0    0    0  0.00000000000E+00  0.00000000000E+00  0.45593999997E+02  0.45594000000E+02  0.51100000000E-03 0.  1.
         11   -1    0    0    0    0 -0.00000000000E+00 -0.00000000000E+00 -0.45593999997E+02  0.45594000000E+02  0.51100000000E-03 0. -1.
    9900012    2    1    2    0    0  0.30559854503E+01  0.35422296972E+02 -0.27659272423E+02  0.46142317401E+02  0.99999967170E+01 0.  0.
        -12    1    1    2    0    0 -0.30559854503E+01 -0.35422296972E+02  0.27659272423E+02  0.45045682599E+02  0.00000000000E+00 0.  1.
         11    1    3    3    0    0  0.24999690835E+01  0.97791704868E+01 -0.92724919431E+01  0.13706244122E+02  0.51100000000E-03 0. -1.
        -11    1    3    3    0    0  0.15723229306E+01  0.16480720845E+02 -0.75131035454E+01  0.18180568861E+02  0.51100000000E-03 0.  1.
        -12    1    3    3    0    0 -0.10163065638E+01  0.91624056403E+01 -0.10873676934E+02  0.14255504418E+02  0.00000000000E+00 0.  1.
</event>
<event>
 7    1  0.1486782E-008  0.4614231E+02  0.7816164E-02  0.1320468E+00
        -11   -1    0    0    0    0  0.00000000000E+00  0.00000000000E+00  0.45593999997E+02  0.45594000000E+02  0.51100000000E-03 0.  1.
         11   -1    0    0    0    0 -0.00000000000E+00 -0.00000000000E+00 -0.45593999997E+02  0.45594000000E+02  0.51100000000E-03 0. -1.
    9900012    2    1    2    0    0 -0.37403041925E+02 -0.16857117958E+02 -0.18600102780E+02  0.46142314363E+02  0.99999690160E+01 0.  0.
        -12    1    1    2    0    0  0.37403041925E+02  0.16857117958E+02  0.18600102780E+02  0.45045685637E+02  0.00000000000E+00 0.  1.
         11    1    3    3    0    0 -0.36017014586E+02 -0.15362215833E+02 -0.19294970439E+02  0.43652249649E+02  0.51100000000E-03 0. -1.
        -11    1    3    3    0    0 -0.64876181802E+00  0.76622791332E-01  0.23569713642E+00  0.69448999266E+00  0.51100000000E-03 0.  1.
         12    1    3    3    0    0 -0.73726552085E+00 -0.15715249163E+01  0.45917052240E+00  0.17955747212E+01  0.00000000000E+00 0. -1.
</event>
<event>
 7    1  0.1486782E-008  0.4614232E+02  0.7816164E-02  0.1320468E+00
        -11   -1    0    0    0    0  0.00000000000E+00  0.00000000000E+00  0.45593999997E+02  0.45594000000E+02  0.51100000000E-03 0.  1.
         11   -1    0    0    0    0 -0.00000000000E+00 -0.00000000000E+00 -0.45593999997E+02  0.45594000000E+02  0.51100000000E-03 0. -1.
    9900012    2    1    2    0    0  0.12170732221E+02 -0.42815255252E+02  0.69166707072E+01  0.46142321642E+02  0.10000035388E+02 0.  0.
        -12    1    1    2    0    0 -0.12170732221E+02  0.42815255252E+02 -0.69166707072E+01  0.45045678358E+02  0.00000000000E+00 0.  1.
         11    1    3    3    0    0  0.81435419377E+01 -0.25531099060E+02  0.31173949738E+01  0.26979111293E+02  0.51100000000E-03 0. -1.
        -11    1    3    3    0    0  0.21058470013E+01 -0.50752514857E+01 -0.15302708214E+01  0.57039020227E+01  0.51100000000E-03 0.  1.
        -12    1    3    3    0    0  0.19213432824E+01 -0.12208904706E+02  0.53295465548E+01  0.13459308326E+02  0.00000000000E+00 0.  1.
</event>
<event>
 7    1  0.1486782E-008  0.4614232E+02  0.7816164E-02  0.1320468E+00
        -11   -1    0    0    0    0  0.00000000000E+00  0.00000000000E+00  0.45593999997E+02  0.45594000000E+02  0.51100000000E-03 0.  1.
         11   -1    0    0    0    0 -0.00000000000E+00 -0.00000000000E+00 -0.45593999997E+02  0.45594000000E+02  0.51100000000E-03 0. -1.
    9900012    2    1    2    0    0  0.12060364407E+02 -0.16493533742E+02 -0.40145042785E+02  0.46142317575E+02  0.99999983025E+01 0.  0.
        -12    1    1    2    0    0 -0.12060364407E+02  0.16493533742E+02  0.40145042785E+02  0.45045682425E+02  0.00000000000E+00 0.  1.
         11    1    3    3    0    0  0.11395036774E+02 -0.12727594198E+02 -0.27966993095E+02  0.32771805262E+02  0.51100000000E-03 0. -1.
        -11    1    3    3    0    0 -0.81855060110E+00  0.49966374958E+00 -0.15502756046E+01  0.18229217374E+01  0.51100000000E-03 0.  1.
        -12    1    3    3    0    0  0.14838782343E+01 -0.42656032945E+01 -0.10627774085E+02  0.11547590575E+02  0.00000000000E+00 0.  1.
</event>
<event>
 7    1  0.1486782E-008  0.4614232E+02  0.7816164E-02  0.1320468E+00
        -11   -1    0    0    0    0  0.00000000000E+00  0.00000000000E+00  0.45593999997E+02  0.45594000000E+02  0.51100000000E-03 0.  1.
         11   -1    0    0    0    0 -0.00000000000E+00 -0.00000000000E+00 -0.45593999997E+02  0.45594000000E+02  0.51100000000E-03 0. -1.
    9900012    2    1    2    0    0  0.43496684981E+02  0.44165887686E+01 -0.10846458963E+02  0.46142317269E+02  0.99999955126E+01 0.  0.
        -12    1    1    2    0    0 -0.43496684981E+02 -0.44165887686E+01  0.10846458963E+02  0.45045682731E+02  0.00000000000E+00 0.  1.
         11    1    3    3    0    0  0.96401400256E+01 -0.13473869585E+01 -0.14267994488E+01  0.98378609594E+01  0.51100000000E-03 0. -1.
        -11    1    3    3    0    0  0.13316208775E+02 -0.11821613188E+01 -0.40041631197E+01  0.13955366139E+02  0.51100000000E-03 0.  1.
         12    1    3    3    0    0  0.20540336180E+02  0.69461370459E+01 -0.54154963950E+01  0.22349090170E+02  0.00000000000E+00 0. -1.
</event>
<event>
 7    1  0.1486782E-008  0.4614232E+02  0.7816164E-02  0.1320468E+00
        -11   -1    0    0    0    0  0.00000000000E+00  0.00000000000E+00  0.45593999997E+02  0.45594000000E+02  0.51100000000E-03 0.  1.
         11   -1    0    0    0    0 -0.00000000000E+00 -0.00000000000E+00 -0.45593999997E+02  0.45594000000E+02  0.51100000000E-03 0. -1.
    9900012    2    1    2    0    0 -0.12580174141E+02 -0.30025225075E+02 -0.31134200717E+02  0.46142319002E+02  0.10000011319E+02 0.  0.
        -12    1    1    2    0    0  0.12580174141E+02  0.30025225075E+02  0.31134200717E+02  0.45045680998E+02  0.00000000000E+00 0.  1.
         11    1    3    3    0    0 -0.35133624837E+01 -0.14351821263E+02 -0.14715827390E+02  0.20853634349E+02  0.51100000000E-03 0. -1.
        -11    1    3    3    0    0  0.10397196624E+01 -0.14032295731E+01 -0.15727595680E+01  0.23502432068E+01  0.51100000000E-03 0.  1.
        -12    1    3    3    0    0 -0.10106531320E+02 -0.14270174239E+02 -0.14845613759E+02  0.22938441447E+02  0.00000000000E+00 0.  1.
</event>
<event>
 7    1  0.1486782E-008  0.4614232E+02  0.7816164E-02  0.1320468E+00
        -11   -1    0    0    0    0  0.00000000000E+00  0.00000000000E+00  0.45593999997E+02  0.45594000000E+02  0.51100000000E-03 0. -1.
         11   -1    0    0    0    0 -0.00000000000E+00 -0.00000000000E+00 -0.45593999997E+02  0.45594000000E+02  0.51100000000E-03 0.  1.
    9900012    2    1    2    0    0 -0.20073644880E+02 -0.21736662513E+02  0.33965862183E+02  0.46142317523E+02  0.99999978269E+01 0.  0.
        -12    1    1    2    0    0  0.20073644880E+02  0.21736662513E+02 -0.33965862183E+02  0.45045682477E+02  0.00000000000E+00 0.  1.
         11    1    3    3    0    0 -0.12723361809E+01 -0.50466435704E+01  0.29001034025E+01  0.59580240592E+01  0.51100000000E-03 0. -1.
        -11    1    3    3    0    0 -0.26835406032E+01 -0.14175418595E+01  0.58155663355E+01  0.65598496291E+01  0.51100000000E-03 0.  1.
         12    1    3    3    0    0 -0.16117768096E+02 -0.15272477083E+02  0.25250192445E+02  0.33624443834E+02  0.00000000000E+00 0. -1.
</event>
<event>
 7    1  0.1486782E-008  0.4614232E+02  0.7816164E-02  0.1320468E+00
        -11   -1    0    0    0    0  0.00000000000E+00  0.00000000000E+00  0.45593999997E+02  0.45594000000E+02  0.51100000000E-03 0.  1.
         11   -1    0    0    0    0 -0.00000000000E+00 -0.00000000000E+00 -0.45593999997E+02  0.45594000000E+02  0.51100000000E-03 0. -1.
    9900012    2    1    2    0    0 -0.65735868068E+01  0.85338767561E+01 -0.43738705812E+02  0.46142317830E+02  0.10000000630E+02 0.  0.
        -12    1    1    2    0    0  0.65735868068E+01 -0.85338767561E+01  0.43738705812E+02  0.45045682170E+02  0.00000000000E+00 0.  1.
         11    1    3    3    0    0 -0.78499550966E+01  0.30084799487E+01 -0.22805610333E+02  0.24305732030E+02  0.51100000000E-03 0. -1.
        -11    1    3    3    0    0  0.47587330811E+00  0.54142146442E+00 -0.78487966092E+00  0.10656589280E+01  0.51100000000E-03 0.  1.
         12    1    3    3    0    0  0.80049498166E+00  0.49839753430E+01 -0.20148215819E+02  0.20770926872E+02  0.00000000000E+00 0. -1.
</event>
<event>
 7    1  0.1486782E-008  0.4614232E+02  0.7816164E-02  0.1320468E+00
        -11   -1    0    0    0    0  0.00000000000E+00  0.00000000000E+00  0.45593999997E+02  0.45594000000E+02  0.51100000000E-03 0.  1.
         11   -1    0    0    0    0 -0.00000000000E+00 -0.00000000000E+00 -0.45593999997E+02  0.45594000000E+02  0.51100000000E-03 0. -1.
    9900012    2    1    2    0    0  0.23187327547E+02  0.28162814618E+02 -0.26425692140E+02  0.46142317731E+02  0.99999997268E+01 0.  0.
        -12    1    1    2    0    0 -0.23187327547E+02 -0.28162814618E+02  0.26425692140E+02  0.45045682269E+02  0.00000000000E+00 0.  1.
         11    1    3    3    0    0  0.81193297297E+00  0.33517736957E+01 -0.20114290261E+01  0.39924264612E+01  0.51100000000E-03 0. -1.
        -11    1    3    3    0    0  0.17832155516E+02  0.15821559867E+02 -0.20141457056E+02  0.31208745882E+02  0.51100000000E-03 0.  1.
        -12    1    3    3    0    0  0.45432390584E+01  0.89894810549E+01 -0.42728060587E+01  0.10941145388E+02  0.00000000000E+00 0.  1.
</event>
<event>
 7    1  0.1486782E-008  0.4614232E+02  0.7816164E-02  0.1320468E+00
        -11   -1    0    0    0    0  0.00000000000E+00  0.00000000000E+00  0.45593999997E+02  0.45594000000E+02  0.51100000000E-03 0.  1.
         11   -1    0    0    0    0 -0.00000000000E+00 -0.00000000000E+00 -0.45593999997E+02  0.45594000000E+02  0.51100000000E-03 0. -1.
    9900012    2    1    2    0    0 -0.39432575224E+02 -0.21183026033E+02 -0.50462593874E+01  0.46142319690E+02  0.10000017592E+02 0.  0.
        -12    1    1    2    0    0  0.39432575224E+02  0.21183026033E+02  0.50462593874E+01  0.45045680310E+02  0.00000000000E+00 0.  1.
         11    1    3    3    0    0 -0.36918050116E+02 -0.18195425623E+02 -0.58788689372E+01  0.41576159493E+02  0.51100000000E-03 0. -1.
        -11    1    3    3    0    0 -0.25191265482E+01 -0.27090029684E+01  0.13829245903E+01  0.39493260605E+01  0.51100000000E-03 0.  1.
        -12    1    3    3    0    0  0.46014401332E-02 -0.27859744232E+00 -0.55031504052E+00  0.61683413649E+00  0.00000000000E+00 0.  1.
</event>
<event>
 7    1  0.1486782E-008  0.4614232E+02  0.7816164E-02  0.1320468E+00
        -11   -1    0    0    0    0  0.00000000000E+00  0.00000000000E+00  0.45593999997E+02  0.45594000000E+02  0.51100000000E-03 0.  1.
         11   -1    0    0    0    0 -0.00000000000E+00 -0.00000000000E+00 -0.45593999997E+02  0.45594000000E+02  0.51100000000E-03 0. -1.
    9900012    2    1    2    0    0 -0.22682489958E+02 -0.10266258169E+02 -0.37539607561E+02  0.46142317151E+02  0.99999944374E+01 0.  0.
        -12    1    1    2    0    0  0.22682489958E+02  0.10266258169E+02  0.37539607561E+02  0.45045682849E+02  0.00000000000E+00 0.  1.
         11    1    3    3    0    0 -0.12080099695E+02 -0.58262587215E+01 -0.17431865234E+02  0.21994181620E+02  0.51100000000E-03 0. -1.
        -11    1    3    3    0    0  0.38166058874E+00 -0.34560514517E+00  0.31260229819E+00  0.60235220537E+00  0.51100000000E-03 0.  1.
        -12    1    3    3    0    0 -0.10984050852E+02 -0.40943943026E+01 -0.20420344625E+02  0.23545783326E+02  0.00000000000E+00 0.  1.
</event>
<event>
 7    1  0.1486782E-008  0.4614232E+02  0.7816164E-02  0.1320468E+00
        -11   -1    0    0    0    0  0.00000000000E+00  0.00000000000E+00  0.45593999997E+02  0.45594000000E+02  0.51100000000E-03 0.  1.
         11   -1    0    0    0    0 -0.00000000000E+00 -0.00000000000E+00 -0.45593999997E+02  0.45594000000E+02  0.51100000000E-03 0. -1.
    9900012    2    1    2    0    0 -0.38327700985E+02  0.12870714826E+02 -0.19860653881E+02  0.46142317238E+02  0.99999952327E+01 0.  0.
        -12    1    1    2    0    0  0.38327700985E+02 -0.12870714826E+02  0.19860653881E+02  0.45045682762E+02  0.00000000000E+00 0.  1.
         11    1    3    3    0    0 -0.35545652478E+02  0.13821263048E+02 -0.17833073383E+02  0.42101534757E+02  0.51100000000E-03 0. -1.
        -11    1    3    3    0    0 -0.28983004517E+01 -0.39196147680E+00 -0.17015961739E+01  0.33836679960E+01  0.51100000000E-03 0.  1.
         12    1    3    3    0    0  0.11625194510E+00 -0.55858674587E+00 -0.32598432365E+00  0.65711448520E+00  0.00000000000E+00 0. -1.
</event>
<event>
 7    1  0.1486782E-008  0.4614232E+02  0.7816164E-02  0.1320468E+00
        -11   -1    0    0    0    0  0.00000000000E+00  0.00000000000E+00  0.45593999997E+02  0.45594000000E+02  0.51100000000E-03 0. -1.
         11   -1    0    0    0    0 -0.00000000000E+00 -0.00000000000E+00 -0.45593999997E+02  0.45594000000E+02  0.51100000000E-03 0.  1.
    9900012    2    1    2    0    0  0.20114619575E+02 -0.22393088736E+02  0.33512160907E+02  0.46142320158E+02  0.10000021856E+02 0.  0.
        -12    1    1    2    0    0 -0.20114619575E+02  0.22393088736E+02 -0.33512160907E+02  0.45045679842E+02  0.00000000000E+00 0.  1.
         11    1    3    3    0    0  0.42494023836E+01 -0.50453365897E+01  0.51504084064E+01  0.83689634325E+01  0.51100000000E-03 0. -1.
        -11    1    3    3    0    0  0.74813002641E+00 -0.57226126748E+01  0.81344019691E+01  0.99737901531E+01  0.51100000000E-03 0.  1.
        -12    1    3    3    0    0  0.15117087165E+02 -0.11625139471E+02  0.20227350532E+02  0.27799566572E+02  0.00000000000E+00 0.  1.
</event>
<event>
 7    1  0.1486782E-008  0.4614232E+02  0.7816164E-02  0.1320468E+00
        -11   -1    0    0    0    0  0.00000000000E+00  0.00000000000E+00  0.45593999997E+02  0.45594000000E+02  0.51100000000E-03 0.  1.
         11   -1    0    0    0    0 -0.00000000000E+00 -0.00000000000E+00 -0.45593999997E+02  0.45594000000E+02  0.51100000000E-03 0. -1.
    9900012    2    1    2    0    0  0.24335493922E+02 -0.14591263261E+02 -0.34985600845E+02  0.46142317693E+02  0.99999993776E+01 0.  0.
        -12    1    1    2    0    0 -0.24335493922E+02  0.14591263261E+02  0.34985600845E+02  0.45045682307E+02  0.00000000000E+00 0.  1.
         11    1    3    3    0    0  0.14331910716E+02 -0.60614623174E+01 -0.21175315864E+02  0.26278108615E+02  0.51100000000E-03 0. -1.
        -11    1    3    3    0    0  0.85779888074E+00 -0.16010336097E+01 -0.52310950383E+01  0.55374617922E+01  0.51100000000E-03 0.  1.
        -12    1    3    3    0    0  0.91457843254E+01 -0.69287673343E+01 -0.85791899435E+01  0.14326747286E+02  0.00000000000E+00 0.  1.
</event>
<event>
 7    1  0.1486782E-008  0.4614232E+02  0.7816164E-02  0.1320468E+00
        -11   -1    0    0    0    0  0.00000000000E+00  0.00000000000E+00  0.45593999997E+02  0.45594000000E+02  0.51100000000E-03 0.  1.
         11   -1    0    0    0    0 -0.00000000000E+00 -0.00000000000E+00 -0.45593999997E+02  0.45594000000E+02  0.51100000000E-03 0. -1.
    9900012    2    1    2    0    0  0.18871275915E+01  0.40775917272E+02 -0.19049327895E+02  0.46142316820E+02  0.99999914213E+01 0.  0.
        -12    1    1    2    0    0 -0.18871275915E+01 -0.40775917272E+02  0.19049327895E+02  0.45045683180E+02  0.00000000000E+00 0.  1.
         11    1    3    3    0    0 -0.29866965798E+00  0.29370391463E+02 -0.11967230748E+02  0.31716300388E+02  0.51100000000E-03 0. -1.
        -11    1    3    3    0    0  0.33562251784E+01  0.63602521740E+01 -0.53555989210E+01  0.89665765612E+01  0.51100000000E-03 0.  1.
         12    1    3    3    0    0 -0.11704279289E+01  0.50452736341E+01 -0.17264982253E+01  0.54594398707E+01  0.00000000000E+00 0. -1.
</event>
<event>
 7    1  0.1486782E-008  0.4614232E+02  0.7816164E-02  0.1320468E+00
        -11   -1    0    0    0    0  0.00000000000E+00  0.00000000000E+00  0.45593999997E+02  0.45594000000E+02  0.51100000000E-03 0.  1.
         11   -1    0    0    0    0 -0.00000000000E+00 -0.00000000000E+00 -0.45593999997E+02  0.45594000000E+02  0.51100000000E-03 0. -1.
    9900012    2    1    2    0    0  0.18407887747E+02  0.62172765882E+01 -0.40639988385E+02  0.46142317461E+02  0.99999972619E+01 0.  0.
        -12    1    1    2    0    0 -0.18407887747E+02 -0.62172765882E+01  0.40639988385E+02  0.45045682539E+02  0.00000000000E+00 0.  1.
         11    1    3    3    0    0  0.62598246564E+01  0.26564168549E+01 -0.11396758802E+02  0.13271324979E+02  0.51100000000E-03 0. -1.
        -11    1    3    3    0    0  0.31697377322E+01 -0.11829323319E+01 -0.15011092318E+02  0.15387639814E+02  0.51100000000E-03 0.  1.
         12    1    3    3    0    0  0.89783253587E+01  0.47437920653E+01 -0.14232137265E+02  0.17483352668E+02  0.00000000000E+00 0. -1.
</event>
<event>
 7    1  0.1486782E-008  0.4614232E+02  0.7816164E-02  0.1320468E+00
        -11   -1    0    0    0    0  0.00000000000E+00  0.00000000000E+00  0.45593999997E+02  0.45594000000E+02  0.51100000000E-03 0. -1.
         11   -1    0    0    0    0 -0.00000000000E+00 -0.00000000000E+00 -0.45593999997E+02  0.45594000000E+02  0.51100000000E-03 0.  1.
    9900012    2    1    2    0    0 -0.97370270676E+01 -0.18405393152E+02  0.39944276258E+02  0.46142318753E+02  0.10000009048E+02 0.  0.
        -12    1    1    2    0    0  0.97370270676E+01  0.18405393152E+02 -0.39944276258E+02  0.45045681247E+02  0.00000000000E+00 0.  1.
         11    1    3    3    0    0 -0.39094258081E+01 -0.14377679957E+02  0.31294256022E+02  0.34660232995E+02  0.51100000000E-03 0. -1.
        -11    1    3    3    0    0 -0.14577503057E+01 -0.23435487226E+01  0.23045705671E+01  0.35955948504E+01  0.51100000000E-03 0.  1.
         12    1    3    3    0    0 -0.43698509539E+01 -0.16841644729E+01  0.63454496691E+01  0.78864909075E+01  0.00000000000E+00 0. -1.
</event>
<event>
 7    1  0.1487406E-008  0.4614232E+02  0.7816164E-02  0.1320468E+00
        -11   -1    0    0    0    0  0.00000000000E+00  0.00000000000E+00  0.45593999997E+02  0.45594000000E+02  0.51100000000E-03 0. -1.
         11   -1    0    0    0    0 -0.00000000000E+00 -0.00000000000E+00 -0.45593999997E+02  0.45594000000E+02  0.51100000000E-03 0.  1.
    9900012    2    1    2    0    0  0.38744879675E+02 -0.22476258832E+02  0.47713320294E+01  0.46142317394E+02  0.99999966490E+01 0.  0.
        -12    1    1    2    0    0 -0.38744879675E+02  0.22476258832E+02 -0.47713320294E+01  0.45045682606E+02  0.00000000000E+00 0.  1.
         11    1    3    3    0    0  0.33959997651E+02 -0.21022757371E+02  0.37241786032E+01  0.40113679393E+02  0.51100000000E-03 0. -1.
        -11    1    3    3    0    0  0.19996454996E+01 -0.19249165123E+00 -0.11021486247E+01  0.22913679346E+01  0.51100000000E-03 0.  1.
         12    1    3    3    0    0  0.27852365251E+01 -0.12610098104E+01  0.21493020509E+01  0.37372700663E+01  0.00000000000E+00 0. -1.
</event>
<event>
 7    1  0.1486782E-008  0.4614232E+02  0.7816164E-02  0.1320468E+00
        -11   -1    0    0    0    0  0.00000000000E+00  0.00000000000E+00  0.45593999997E+02  0.45594000000E+02  0.51100000000E-03 0.  1.
         11   -1    0    0    0    0 -0.00000000000E+00 -0.00000000000E+00 -0.45593999997E+02  0.45594000000E+02  0.51100000000E-03 0. -1.
    9900012    2    1    2    0    0 -0.23882489107E+02 -0.38192823868E+02  0.21956303468E+00  0.46142319975E+02  0.10000020188E+02 0.  0.
        -12    1    1    2    0    0  0.23882489107E+02  0.38192823868E+02 -0.21956303468E+00  0.45045680025E+02  0.00000000000E+00 0.  1.
         11    1    3    3    0    0 -0.12780891667E+02 -0.24190363187E+02 -0.20142743968E+01  0.27433231026E+02  0.51100000000E-03 0. -1.
        -11    1    3    3    0    0 -0.23482657803E+01 -0.98526771860E+00 -0.92176964061E+00  0.27082769769E+01  0.51100000000E-03 0.  1.
         12    1    3    3    0    0 -0.87533316594E+01 -0.13017192963E+02  0.31556070721E+01  0.16000811972E+02  0.00000000000E+00 0. -1.
</event>
<event>
 7    1  0.1486782E-008  0.4614232E+02  0.7816164E-02  0.1320468E+00
        -11   -1    0    0    0    0  0.00000000000E+00  0.00000000000E+00  0.45593999997E+02  0.45594000000E+02  0.51100000000E-03 0. -1.
         11   -1    0    0    0    0 -0.00000000000E+00 -0.00000000000E+00 -0.45593999997E+02  0.45594000000E+02  0.51100000000E-03 0.  1.
    9900012    2    1    2    0    0  0.30990203866E+01  0.34791607474E+02 -0.28443872014E+02  0.46142315044E+02  0.99999752207E+01 0.  0.
        -12    1    1    2    0    0 -0.30990203866E+01 -0.34791607474E+02  0.28443872014E+02  0.45045684956E+02  0.00000000000E+00 0.  1.
         11    1    3    3    0    0  0.25568438213E+01  0.27455137861E+02 -0.22954091735E+02  0.35877742026E+02  0.51100000000E-03 0. -1.
        -11    1    3    3    0    0  0.17399918542E+01  0.15297706337E+01 -0.31046740537E+01  0.38738573909E+01  0.51100000000E-03 0.  1.
         12    1    3    3    0    0 -0.11978152889E+01  0.58066989798E+01 -0.23851062259E+01  0.63907156263E+01  0.00000000000E+00 0. -1.
</event>
<event>
 7    1  0.1486782E-008  0.4614232E+02  0.7816164E-02  0.1320468E+00
        -11   -1    0    0    0    0  0.00000000000E+00  0.00000000000E+00  0.45593999997E+02  0.45594000000E+02  0.51100000000E-03 0. -1.
         11   -1    0    0    0    0 -0.00000000000E+00 -0.00000000000E+00 -0.45593999997E+02  0.45594000000E+02  0.51100000000E-03 0.  1.
    9900012    2    1    2    0    0  0.15378399005E+02  0.40326679985E+02 -0.12898728696E+02  0.46142317892E+02  0.10000001193E+02 0.  0.
        -12    1    1    2    0    0 -0.15378399005E+02 -0.40326679985E+02  0.12898728696E+02  0.45045682108E+02  0.00000000000E+00 0.  1.
         11    1    3    3    0    0 -0.42595586538E+00  0.17104488279E+01 -0.39258539998E+00  0.18058784980E+01  0.51100000000E-03 0. -1.
        -11    1    3    3    0    0  0.14484602224E+02  0.30514331704E+02 -0.71242193872E+01  0.34520756699E+02  0.51100000000E-03 0.  1.
        -12    1    3    3    0    0  0.13197526459E+01  0.81018994539E+01 -0.53819239091E+01  0.98156826951E+01  0.00000000000E+00 0.  1.
</event>
<event>
 7    1  0.1486782E-008  0.4614232E+02  0.7816164E-02  0.1320468E+00
        -11   -1    0    0    0    0  0.00000000000E+00  0.00000000000E+00  0.45593999997E+02  0.45594000000E+02  0.51100000000E-03 0.  1.
         11   -1    0    0    0    0 -0.00000000000E+00 -0.00000000000E+00 -0.45593999997E+02  0.45594000000E+02  0.51100000000E-03 0. -1.
    9900012    2    1    2    0    0  0.94411547000E+01  0.70663330689E+01 -0.43474647599E+02  0.46142318198E+02  0.10000003987E+02 0.  0.
        -12    1    1    2    0    0 -0.94411547000E+01 -0.70663330689E+01  0.43474647599E+02  0.45045681802E+02  0.00000000000E+00 0.  1.
         11    1    3    3    0    0  0.36905192937E+01  0.50732834101E+01 -0.28023529549E+02  0.28717178585E+02  0.51100000000E-03 0. -1.
        -11    1    3    3    0    0  0.44641545270E+01  0.69832645936E-01 -0.13998209812E+02  0.14692972144E+02  0.51100000000E-03 0.  1.
         12    1    3    3    0    0  0.12864808793E+01  0.19232170128E+01 -0.14529082382E+01  0.27321674692E+01  0.00000000000E+00 0. -1.
</event>
<event>
 7    1  0.1486782E-008  0.4614230E+02  0.7816164E-02  0.1320468E+00
        -11   -1    0    0    0    0  0.00000000000E+00  0.00000000000E+00  0.45593999997E+02  0.45594000000E+02  0.51100000000E-03 0.  1.
         11   -1    0    0    0    0 -0.00000000000E+00 -0.00000000000E+00 -0.45593999997E+02  0.45594000000E+02  0.51100000000E-03 0. -1.
    9900012    2    1    2    0    0  0.15704497177E+02  0.41357063862E+02 -0.84898058542E+01  0.46142303576E+02  0.99998706512E+01 0.  0.
        -12    1    1    2    0    0 -0.15704497177E+02 -0.41357063862E+02  0.84898058542E+01  0.45045696424E+02  0.00000000000E+00 0.  1.
         11    1    3    3    0    0  0.49892236018E+01  0.84272455035E+01  0.10498192444E+00  0.97939695931E+01  0.51100000000E-03 0. -1.
        -11    1    3    3    0    0 -0.91747404993E+00  0.38828540917E+01 -0.15143791354E+01  0.42675120336E+01  0.51100000000E-03 0.  1.
        -12    1    3    3    0    0  0.11632747625E+02  0.29046964267E+02 -0.70804086433E+01  0.32080821950E+02  0.00000000000E+00 0.  1.
</event>
<event>
 7    1  0.1486782E-008  0.4614233E+02  0.7816164E-02  0.1320468E+00
        -11   -1    0    0    0    0  0.00000000000E+00  0.00000000000E+00  0.45593999997E+02  0.45594000000E+02  0.51100000000E-03 0.  1.
         11   -1    0    0    0    0 -0.00000000000E+00 -0.00000000000E+00 -0.45593999997E+02  0.45594000000E+02  0.51100000000E-03 0. -1.
    9900012    2    1    2    0    0 -0.21185630078E+02 -0.67929704028E+01 -0.39168061645E+02  0.46142329601E+02  0.10000107963E+02 0.  0.
        -12    1    1    2    0    0  0.21185630078E+02  0.67929704028E+01  0.39168061645E+02  0.45045670399E+02  0.00000000000E+00 0.  1.
         11    1    3    3    0    0 -0.16131973471E+02 -0.29328836686E+01 -0.28999754783E+02  0.33314083395E+02  0.51100000000E-03 0. -1.
        -11    1    3    3    0    0 -0.25825346998E+01 -0.20961844250E+01 -0.15096747293E+01  0.36527513834E+01  0.51100000000E-03 0.  1.
         12    1    3    3    0    0 -0.24711219065E+01 -0.17639023092E+01 -0.86586321324E+01  0.91754948225E+01  0.00000000000E+00 0. -1.
</event>
<event>
 7    1  0.1486782E-008  0.4614232E+02  0.7816164E-02  0.1320468E+00
        -11   -1    0    0    0    0  0.00000000000E+00  0.00000000000E+00  0.45593999997E+02  0.45594000000E+02  0.51100000000E-03 0. -1.
         11   -1    0    0    0    0 -0.00000000000E+00 -0.00000000000E+00 -0.45593999997E+02  0.45594000000E+02  0.51100000000E-03 0.  1.
    9900012    2    1    2    0    0 -0.14321827042E+01  0.10867309986E+02  0.43691692730E+02  0.46142316663E+02  0.99999899882E+01 0.  0.
        -12    1    1    2    0    0  0.14321827042E+01 -0.10867309986E+02 -0.43691692730E+02  0.45045683337E+02  0.00000000000E+00 0.  1.
         11    1    3    3    0    0  0.92252881055E+00  0.26507674257E+01  0.39895649757E+01  0.48779356605E+01  0.51100000000E-03 0.  1.
        -11    1    3    3    0    0 -0.33567064987E+01  0.11693172694E+01  0.77097449430E+01  0.84896966225E+01  0.51100000000E-03 0. -1.
         12    1    3    3    0    0  0.10019949839E+01  0.70472252910E+01  0.31992382812E+02  0.32774684380E+02  0.00000000000E+00 0. -1.
</event>
<event>
 7    1  0.1486782E-008  0.4614231E+02  0.7816164E-02  0.1320468E+00
        -11   -1    0    0    0    0  0.00000000000E+00  0.00000000000E+00  0.45593999997E+02  0.45594000000E+02  0.51100000000E-03 0.  1.
         11   -1    0    0    0    0 -0.00000000000E+00 -0.00000000000E+00 -0.45593999997E+02  0.45594000000E+02  0.51100000000E-03 0. -1.
    9900012    2    1    2    0    0  0.22817865192E+02 -0.34655507789E+02  0.17534389542E+02  0.46142311987E+02  0.99999473426E+01 0.  0.
        -12    1    1    2    0    0 -0.22817865192E+02  0.34655507789E+02 -0.17534389542E+02  0.45045688013E+02  0.00000000000E+00 0.  1.
         11    1    3    3    0    0  0.11756659412E+02 -0.13669044366E+02  0.41000034975E+01  0.18489776725E+02  0.51100000000E-03 0. -1.
        -11    1    3    3    0    0  0.77416250505E+01 -0.13109088089E+02  0.61428996390E+01  0.16416947499E+02  0.51100000000E-03 0.  1.
         12    1    3    3    0    0  0.33195807295E+01 -0.78773753336E+01  0.72914864051E+01  0.11235587762E+02  0.00000000000E+00 0. -1.
</event>
<event>
 7    1  0.2147713E-008  0.4614232E+02  0.7816164E-02  0.1320468E+00
        -11   -1    0    0    0    0  0.00000000000E+00  0.00000000000E+00  0.45593999997E+02  0.45594000000E+02  0.51100000000E-03 0.  1.
         11   -1    0    0    0    0 -0.00000000000E+00 -0.00000000000E+00 -0.45593999997E+02  0.45594000000E+02  0.51100000000E-03 0. -1.
    9900012    2    1    2    0    0 -0.18301199638E+02 -0.28360208180E+02 -0.29830828968E+02  0.46142315710E+02  0.99999812935E+01 0.  0.
        -12    1    1    2    0    0  0.18301199638E+02  0.28360208180E+02  0.29830828968E+02  0.45045684290E+02  0.00000000000E+00 0.  1.
         11    1    3    3    0    0 -0.17741850356E+02 -0.27318406668E+02 -0.28603049977E+02  0.43349775838E+02  0.51100000000E-03 0. -1.
        -11    1    3    3    0    0 -0.10515465390E+01 -0.38928579668E+00  0.20800109436E+00  0.11404202171E+01  0.51100000000E-03 0.  1.
         12    1    3    3    0    0  0.49219725698E+00 -0.65251571573E+00 -0.14357800855E+01  0.16521196546E+01  0.00000000000E+00 0. -1.
</event>
<event>
 7    1  0.1486782E-008  0.4614232E+02  0.7816164E-02  0.1320468E+00
        -11   -1    0    0    0    0  0.00000000000E+00  0.00000000000E+00  0.45593999997E+02  0.45594000000E+02  0.51100000000E-03 0.  1.
         11   -1    0    0    0    0 -0.00000000000E+00 -0.00000000000E+00 -0.45593999997E+02  0.45594000000E+02  0.51100000000E-03 0. -1.
    9900012    2    1    2    0    0 -0.99274682750E+01  0.38673183404E+02 -0.20855305062E+02  0.46142317741E+02  0.99999998169E+01 0.  0.
        -12    1    1    2    0    0  0.99274682750E+01 -0.38673183404E+02  0.20855305062E+02  0.45045682259E+02  0.00000000000E+00 0.  1.
         11    1    3    3    0    0 -0.61711147706E+01  0.33070730277E+02 -0.14206724123E+02  0.36518308684E+02  0.51100000000E-03 0. -1.
        -11    1    3    3    0    0 -0.37434527372E+01  0.57161952260E+01 -0.65991486117E+01  0.94993204450E+01  0.51100000000E-03 0.  1.
         12    1    3    3    0    0 -0.12900767253E-01 -0.11374209930E+00 -0.49432327691E-01  0.12468861203E+00  0.00000000000E+00 0. -1.
</event>
<event>
 7    1  0.1486782E-008  0.4614232E+02  0.7816164E-02  0.1320468E+00
        -11   -1    0    0    0    0  0.00000000000E+00  0.00000000000E+00  0.45593999997E+02  0.45594000000E+02  0.51100000000E-03 0.  1.
         11   -1    0    0    0    0 -0.00000000000E+00 -0.00000000000E+00 -0.45593999997E+02  0.45594000000E+02  0.51100000000E-03 0. -1.
    9900012    2    1    2    0    0  0.41670385244E+02 -0.13183261544E+02  0.10903856566E+02  0.46142317862E+02  0.10000000917E+02 0.  0.
        -12    1    1    2    0    0 -0.41670385244E+02  0.13183261544E+02 -0.10903856566E+02  0.45045682138E+02  0.00000000000E+00 0.  1.
         11    1    3    3    0    0  0.19521505156E+02 -0.37784437862E+01  0.62141870827E+01  0.20832232774E+02  0.51100000000E-03 0. -1.
        -11    1    3    3    0    0  0.51631435122E+01 -0.25491107759E+01  0.39411026424E+01  0.69777006940E+01  0.51100000000E-03 0.  1.
         12    1    3    3    0    0  0.16985736575E+02 -0.68557069820E+01  0.74856684122E+00  0.18332384394E+02  0.00000000000E+00 0. -1.
</event>
<event>
 7    1  0.1486782E-008  0.4614232E+02  0.7816164E-02  0.1320468E+00
        -11   -1    0    0    0    0  0.00000000000E+00  0.00000000000E+00  0.45593999997E+02  0.45594000000E+02  0.51100000000E-03 0.  1.
         11   -1    0    0    0    0 -0.00000000000E+00 -0.00000000000E+00 -0.45593999997E+02  0.45594000000E+02  0.51100000000E-03 0. -1.
    9900012    2    1    2    0    0  0.88895012075E+01 -0.44151272792E+02 -0.86925319077E+00  0.46142315168E+02  0.99999763539E+01 0.  0.
        -12    1    1    2    0    0 -0.88895012075E+01  0.44151272792E+02  0.86925319077E+00  0.45045684832E+02  0.00000000000E+00 0.  1.
         11    1    3    3    0    0  0.73856190202E+01 -0.18447958223E+02 -0.36774730549E+00  0.19874852685E+02  0.51100000000E-03 0. -1.
        -11    1    3    3    0    0 -0.14066897716E+01 -0.46022780912E+01  0.99460186377E+00  0.49141604442E+01  0.51100000000E-03 0.  1.
        -12    1    3    3    0    0  0.29105719589E+01 -0.21101036477E+02 -0.14961077490E+01  0.21353302039E+02  0.00000000000E+00 0.  1.
</event>
<event>
 7    1  0.1486782E-008  0.4614232E+02  0.7816164E-02  0.1320468E+00
        -11   -1    0    0    0    0  0.00000000000E+00  0.00000000000E+00  0.45593999997E+02  0.45594000000E+02  0.51100000000E-03 0. -1.
         11   -1    0    0    0    0 -0.00000000000E+00 -0.00000000000E+00 -0.45593999997E+02  0.45594000000E+02  0.51100000000E-03 0.  1.
    9900012    2    1    2    0    0  0.14993348534E+02  0.42311922660E+02 -0.37435472838E+01  0.46142318235E+02  0.10000004321E+02 0.  0.
        -12    1    1    2    0    0 -0.14993348534E+02 -0.42311922660E+02  0.37435472838E+01  0.45045681765E+02  0.00000000000E+00 0.  1.
         11    1    3    3    0    0  0.14948665200E+02  0.34664153905E+02 -0.37264743705E+01  0.37933530929E+02  0.51100000000E-03 0. -1.
        -11    1    3    3    0    0  0.11851946201E+00  0.32388579879E+01  0.14651414834E+01  0.35568086476E+01  0.51100000000E-03 0.  1.
        -12    1    3    3    0    0 -0.73836128478E-01  0.44089107668E+01 -0.14822143967E+01  0.46519786587E+01  0.00000000000E+00 0.  1.
</event>
<event>
 7    1  0.1486782E-008  0.4614232E+02  0.7816164E-02  0.1320468E+00
        -11   -1    0    0    0    0  0.00000000000E+00  0.00000000000E+00  0.45593999997E+02  0.45594000000E+02  0.51100000000E-03 0.  1.
         11   -1    0    0    0    0 -0.00000000000E+00 -0.00000000000E+00 -0.45593999997E+02  0.45594000000E+02  0.51100000000E-03 0. -1.
    9900012    2    1    2    0    0  0.16130982499E+02 -0.35079746023E+02 -0.23201640937E+02  0.46142319634E+02  0.10000017083E+02 0.  0.
        -12    1    1    2    0    0 -0.16130982499E+02  0.35079746023E+02  0.23201640937E+02  0.45045680366E+02  0.00000000000E+00 0.  1.
         11    1    3    3    0    0 -0.18106868713E+00 -0.61787203666E+01 -0.50670644000E+01  0.79927788117E+01  0.51100000000E-03 0. -1.
        -11    1    3    3    0    0  0.48505482808E+01 -0.51522963403E+01 -0.25678880688E+01  0.75278167883E+01  0.51100000000E-03 0.  1.
         12    1    3    3    0    0  0.11461502906E+02 -0.23748729316E+02 -0.15566688468E+02  0.30621724035E+02  0.00000000000E+00 0. -1.
</event>
<event>
 7    1  0.1486782E-008  0.4614232E+02  0.7816164E-02  0.1320468E+00
        -11   -1    0    0    0    0  0.00000000000E+00  0.00000000000E+00  0.45593999997E+02  0.45594000000E+02  0.51100000000E-03 0. -1.
         11   -1    0    0    0    0 -0.00000000000E+00 -0.00000000000E+00 -0.45593999997E+02  0.45594000000E+02  0.51100000000E-03 0.  1.
    9900012    2    1    2    0    0  0.40219179171E+02  0.12203179037E+02  0.16205352979E+02  0.46142318553E+02  0.10000007226E+02 0.  0.
        -12    1    1    2    0    0 -0.40219179171E+02 -0.12203179037E+02 -0.16205352979E+02  0.45045681447E+02  0.00000000000E+00 0.  1.
         11    1    3    3    0    0  0.12229862596E+02  0.78591427714E+01  0.75966236658E+01  0.16402571615E+02  0.51100000000E-03 0. -1.
        -11    1    3    3    0    0  0.21435496030E+02  0.29310119733E+01  0.53566697757E+01  0.22288230809E+02  0.51100000000E-03 0.  1.
         12    1    3    3    0    0  0.65538205456E+01  0.14130242920E+01  0.32520595376E+01  0.74515161296E+01  0.00000000000E+00 0. -1.
</event>
<event>
 7    1  0.1486782E-008  0.4614232E+02  0.7816164E-02  0.1320468E+00
        -11   -1    0    0    0    0  0.00000000000E+00  0.00000000000E+00  0.45593999997E+02  0.45594000000E+02  0.51100000000E-03 0.  1.
         11   -1    0    0    0    0 -0.00000000000E+00 -0.00000000000E+00 -0.45593999997E+02  0.45594000000E+02  0.51100000000E-03 0. -1.
    9900012    2    1    2    0    0  0.38431561345E+02 -0.21760135309E+02 -0.88670801564E+01  0.46142317559E+02  0.99999981531E+01 0.  0.
        -12    1    1    2    0    0 -0.38431561345E+02  0.21760135309E+02  0.88670801564E+01  0.45045682441E+02  0.00000000000E+00 0.  1.
         11    1    3    3    0    0  0.12069204976E+02 -0.23776786649E+01 -0.43698718542E+01  0.13054303692E+02  0.51100000000E-03 0. -1.
        -11    1    3    3    0    0  0.23133586909E+02 -0.17745636000E+02 -0.38181434367E+01  0.29404908772E+02  0.51100000000E-03 0.  1.
         12    1    3    3    0    0  0.32287694606E+01 -0.16368206438E+01 -0.67906486560E+00  0.36831050950E+01  0.00000000000E+00 0. -1.
</event>
<event>
 7    1  0.1486782E-008  0.4614231E+02  0.7816164E-02  0.1320468E+00
        -11   -1    0    0    0    0  0.00000000000E+00  0.00000000000E+00  0.45593999997E+02  0.45594000000E+02  0.51100000000E-03 0.  1.
         11   -1    0    0    0    0 -0.00000000000E+00 -0.00000000000E+00 -0.45593999997E+02  0.45594000000E+02  0.51100000000E-03 0. -1.
    9900012    2    1    2    0    0  0.42729888741E+01  0.35641613238E+02 -0.27212705412E+02  0.46142308042E+02  0.99999113730E+01 0.  0.
        -12    1    1    2    0    0 -0.42729888741E+01 -0.35641613238E+02  0.27212705412E+02  0.45045691958E+02  0.00000000000E+00 0.  1.
         11    1    3    3    0    0  0.42879106818E+01  0.91637259889E+01 -0.90198346901E+01  0.13554241776E+02  0.51100000000E-03 0. -1.
        -11    1    3    3    0    0 -0.18088673502E+01  0.19111846040E+02 -0.14996688706E+02  0.24360528167E+02  0.51100000000E-03 0.  1.
        -12    1    3    3    0    0  0.17939455424E+01  0.73660412088E+01 -0.31961820157E+01  0.82275380993E+01  0.00000000000E+00 0.  1.
</event>
<event>
 7    1  0.1486782E-008  0.4614232E+02  0.7816164E-02  0.1320468E+00
        -11   -1    0    0    0    0  0.00000000000E+00  0.00000000000E+00  0.45593999997E+02  0.45594000000E+02  0.51100000000E-03 0.  1.
         11   -1    0    0    0    0 -0.00000000000E+00 -0.00000000000E+00 -0.45593999997E+02  0.45594000000E+02  0.51100000000E-03 0. -1.
    9900012    2    1    2    0    0 -0.11661175177E+01 -0.35293317989E+02 -0.27966682836E+02  0.46142317925E+02  0.10000001492E+02 0.  0.
        -12    1    1    2    0    0  0.11661175177E+01  0.35293317989E+02  0.27966682836E+02  0.45045682075E+02  0.00000000000E+00 0.  1.
         11    1    3    3    0    0  0.20536062048E+01 -0.13411313516E+02 -0.15671228744E+02  0.20728435524E+02  0.51100000000E-03 0.  1.
        -11    1    3    3    0    0 -0.16414360899E+01 -0.16649426802E+02 -0.99592239085E+01  0.19470076179E+02  0.51100000000E-03 0. -1.
         12    1    3    3    0    0 -0.15782876326E+01 -0.52325776707E+01 -0.23362301842E+01  0.59438062220E+01  0.00000000000E+00 0. -1.
</event>
<event>
 7    1  0.1486782E-008  0.4614232E+02  0.7816164E-02  0.1320468E+00
        -11   -1    0    0    0    0  0.00000000000E+00  0.00000000000E+00  0.45593999997E+02  0.45594000000E+02  0.51100000000E-03 0. -1.
         11   -1    0    0    0    0 -0.00000000000E+00 -0.00000000000E+00 -0.45593999997E+02  0.45594000000E+02  0.51100000000E-03 0.  1.
    9900012    2    1    2    0    0 -0.69384399885E+01 -0.42318331954E+02  0.13788776046E+02  0.46142317480E+02  0.99999974378E+01 0.  0.
        -12    1    1    2    0    0  0.69384399885E+01  0.42318331954E+02 -0.13788776046E+02  0.45045682520E+02  0.00000000000E+00 0.  1.
         11    1    3    3    0    0 -0.30289681350E+00 -0.13220931581E+02  0.78249895143E+01  0.15366041765E+02  0.51100000000E-03 0. -1.
        -11    1    3    3    0    0 -0.22311575166E+01 -0.18889586060E+02  0.28686434912E+01  0.19235998573E+02  0.51100000000E-03 0.  1.
        -12    1    3    3    0    0 -0.44043856584E+01 -0.10207814313E+02  0.30951430402E+01  0.11540277142E+02  0.00000000000E+00 0.  1.
</event>
<event>
 7    1  0.1486782E-008  0.4614232E+02  0.7816164E-02  0.1320468E+00
        -11   -1    0    0    0    0  0.00000000000E+00  0.00000000000E+00  0.45593999997E+02  0.45594000000E+02  0.51100000000E-03 0.  1.
         11   -1    0    0    0    0 -0.00000000000E+00 -0.00000000000E+00 -0.45593999997E+02  0.45594000000E+02  0.51100000000E-03 0. -1.
    9900012    2    1    2    0    0  0.40347120639E+02 -0.17411581976E+02 -0.99025362866E+01  0.46142317014E+02  0.99999931854E+01 0.  0.
        -12    1    1    2    0    0 -0.40347120639E+02  0.17411581976E+02  0.99025362866E+01  0.45045682986E+02  0.00000000000E+00 0.  1.
         11    1    3    3    0    0  0.10921474991E+02 -0.83203977843E+01 -0.43869864341E+01  0.14413649278E+02  0.51100000000E-03 0. -1.
        -11    1    3    3    0    0  0.40121655108E+01 -0.29523559080E+01  0.12412618625E+00  0.49828992630E+01  0.51100000000E-03 0.  1.
         12    1    3    3    0    0  0.25413480137E+02 -0.61388282838E+01 -0.56396760387E+01  0.26745768473E+02  0.00000000000E+00 0. -1.
</event>
<event>
 7    1  0.1486782E-008  0.4614231E+02  0.7816164E-02  0.1320468E+00
        -11   -1    0    0    0    0  0.00000000000E+00  0.00000000000E+00  0.45593999997E+02  0.45594000000E+02  0.51100000000E-03 0. -1.
         11   -1    0    0    0    0 -0.00000000000E+00 -0.00000000000E+00 -0.45593999997E+02  0.45594000000E+02  0.51100000000E-03 0.  1.
    9900012    2    1    2    0    0  0.18770136812E+02  0.10319535918E+02  0.39627058147E+02  0.46142305478E+02  0.99998879957E+01 0.  0.
        -12    1    1    2    0    0 -0.18770136812E+02 -0.10319535918E+02 -0.39627058147E+02  0.45045694522E+02  0.00000000000E+00 0.  1.
         11    1    3    3    0    0  0.12801988851E+02  0.52199617730E+01  0.19275853057E+02  0.23721244293E+02  0.51100000000E-03 0. -1.
        -11    1    3    3    0    0  0.41986311711E+01  0.46430457362E+01  0.19349858817E+02  0.20337242043E+02  0.51100000000E-03 0.  1.
        -12    1    3    3    0    0  0.17695167909E+01  0.45652840850E+00  0.10013462731E+01  0.20838191427E+01  0.00000000000E+00 0.  1.
</event>
<event>
 7    1  0.1486782E-008  0.4614232E+02  0.7816164E-02  0.1320468E+00
        -11   -1    0    0    0    0  0.00000000000E+00  0.00000000000E+00  0.45593999997E+02  0.45594000000E+02  0.51100000000E-03 0. -1.
         11   -1    0    0    0    0 -0.00000000000E+00 -0.00000000000E+00 -0.45593999997E+02  0.45594000000E+02  0.51100000000E-03 0.  1.
    9900012    2    1    2    0    0 -0.44431697525E+02  0.31595538096E+01  0.67048330925E+01  0.46142319718E+02  0.10000017846E+02 0.  0.
        -12    1    1    2    0    0  0.44431697525E+02 -0.31595538096E+01 -0.67048330925E+01  0.45045680282E+02  0.00000000000E+00 0.  1.
         11    1    3    3    0    0 -0.31354571694E+02 -0.51021503883E+00  0.66207245206E+01  0.32050015272E+02  0.51100000000E-03 0. -1.
        -11    1    3    3    0    0 -0.12396885076E+02  0.29938358072E+01 -0.81297290362E+00  0.12779152461E+02  0.51100000000E-03 0.  1.
        -12    1    3    3    0    0 -0.68024075536E+00  0.67593304118E+00  0.89708147552E+00  0.13131519848E+01  0.00000000000E+00 0.  1.
</event>
<event>
 7    1  0.1486782E-008  0.4614232E+02  0.7816164E-02  0.1320468E+00
        -11   -1    0    0    0    0  0.00000000000E+00  0.00000000000E+00  0.45593999997E+02  0.45594000000E+02  0.51100000000E-03 0.  1.
         11   -1    0    0    0    0 -0.00000000000E+00 -0.00000000000E+00 -0.45593999997E+02  0.45594000000E+02  0.51100000000E-03 0. -1.
    9900012    2    1    2    0    0 -0.80990112452E+01 -0.36292625939E+00 -0.44310132488E+02  0.46142317191E+02  0.99999947982E+01 0.  0.
        -12    1    1    2    0    0  0.80990112452E+01  0.36292625939E+00  0.44310132488E+02  0.45045682809E+02  0.00000000000E+00 0.  1.
         11    1    3    3    0    0 -0.55641032745E+01  0.46095935648E-01 -0.91566782289E+01  0.10714762085E+02  0.51100000000E-03 0. -1.
        -11    1    3    3    0    0  0.58844226996E+00 -0.35377308585E+00 -0.16504677380E+02  0.16518952611E+02  0.51100000000E-03 0.  1.
        -12    1    3    3    0    0 -0.31233502407E+01 -0.55249109186E-01 -0.18648776880E+02  0.18908602495E+02  0.00000000000E+00 0.  1.
</event>
<event>
 7    1  0.1486782E-008  0.4614232E+02  0.7816164E-02  0.1320468E+00
        -11   -1    0    0    0    0  0.00000000000E+00  0.00000000000E+00  0.45593999997E+02  0.45594000000E+02  0.51100000000E-03 0. -1.
         11   -1    0    0    0    0 -0.00000000000E+00 -0.00000000000E+00 -0.45593999997E+02  0.45594000000E+02  0.51100000000E-03 0.  1.
    9900012    2    1    2    0    0 -0.44658982863E+02  0.51596559145E+01 -0.28401928256E+01  0.46142317690E+02  0.99999993490E+01 0.  0.
        -12    1    1    2    0    0  0.44658982863E+02 -0.51596559145E+01  0.28401928256E+01  0.45045682310E+02  0.00000000000E+00 0.  1.
         11    1    3    3    0    0 -0.18026698502E+02  0.36641616202E+01  0.25284078258E+01  0.18568273632E+02  0.51100000000E-03 0. -1.
        -11    1    3    3    0    0 -0.19970891885E+02  0.40866291757E+00 -0.21315871876E+01  0.20088484070E+02  0.51100000000E-03 0.  1.
        -12    1    3    3    0    0 -0.66613924759E+01  0.10868313767E+01 -0.32370134638E+01  0.74855599874E+01  0.00000000000E+00 0.  1.
</event>
<event>
 7    1  0.1486782E-008  0.4614232E+02  0.7816164E-02  0.1320468E+00
        -11   -1    0    0    0    0  0.00000000000E+00  0.00000000000E+00  0.45593999997E+02  0.45594000000E+02  0.51100000000E-03 0.  1.
         11   -1    0    0    0    0 -0.00000000000E+00 -0.00000000000E+00 -0.45593999997E+02  0.45594000000E+02  0.51100000000E-03 0. -1.
    9900012    2    1    2    0    0 -0.21318045237E+02 -0.39258173422E+02  0.57836076277E+01  0.46142319293E+02  0.10000013968E+02 0.  0.
        -12    1    1    2    0    0  0.21318045237E+02  0.39258173422E+02 -0.57836076277E+01  0.45045680707E+02  0.00000000000E+00 0.  1.
         11    1    3    3    0    0 -0.77282703542E+01 -0.15355170658E+02 -0.75152625438E+00  0.17206749274E+02  0.51100000000E-03 0. -1.
        -11    1    3    3    0    0 -0.68922051650E+01 -0.10402140615E+02  0.60235026402E+01  0.13856031384E+02  0.51100000000E-03 0.  1.
        -12    1    3    3    0    0 -0.66975697176E+01 -0.13500862150E+02  0.51163124190E+00  0.15079538635E+02  0.00000000000E+00 0.  1.
</event>
<event>
 7    1  0.1486782E-008  0.4614232E+02  0.7816164E-02  0.1320468E+00
        -11   -1    0    0    0    0  0.00000000000E+00  0.00000000000E+00  0.45593999997E+02  0.45594000000E+02  0.51100000000E-03 0. -1.
         11   -1    0    0    0    0 -0.00000000000E+00 -0.00000000000E+00 -0.45593999997E+02  0.45594000000E+02  0.51100000000E-03 0.  1.
    9900012    2    1    2    0    0 -0.22549723927E+02  0.31653844389E+02  0.22774057120E+02  0.46142316617E+02  0.99999895648E+01 0.  0.
        -12    1    1    2    0    0  0.22549723927E+02 -0.31653844389E+02 -0.22774057120E+02  0.45045683383E+02  0.00000000000E+00 0.  1.
         11    1    3    3    0    0 -0.15220406387E+02  0.16255243395E+02  0.15740538825E+02  0.27270098482E+02  0.51100000000E-03 0.  1.
        -11    1    3    3    0    0 -0.61114194335E+01  0.11915032144E+02  0.71496079946E+01  0.15180063676E+02  0.51100000000E-03 0. -1.
        -12    1    3    3    0    0 -0.12178981056E+01  0.34835688496E+01 -0.11608970009E+00  0.36921544583E+01  0.00000000000E+00 0.  1.
</event>
<event>
 7    1  0.1486782E-008  0.4614232E+02  0.7816164E-02  0.1320468E+00
        -11   -1    0    0    0    0  0.00000000000E+00  0.00000000000E+00  0.45593999997E+02  0.45594000000E+02  0.51100000000E-03 0. -1.
         11   -1    0    0    0    0 -0.00000000000E+00 -0.00000000000E+00 -0.45593999997E+02  0.45594000000E+02  0.51100000000E-03 0.  1.
    9900012    2    1    2    0    0 -0.13081768550E+02  0.27849472017E+02  0.32899661243E+02  0.46142317965E+02  0.10000001861E+02 0.  0.
        -12    1    1    2    0    0  0.13081768550E+02 -0.27849472017E+02 -0.32899661243E+02  0.45045682035E+02  0.00000000000E+00 0.  1.
         11    1    3    3    0    0 -0.72969596477E+01  0.11845758762E+02  0.17822218977E+02  0.22609712742E+02  0.51100000000E-03 0. -1.
        -11    1    3    3    0    0  0.10598697419E+01  0.15837752525E+01  0.28369230725E+01  0.34175723402E+01  0.51100000000E-03 0.  1.
        -12    1    3    3    0    0 -0.68446786440E+01  0.14419938003E+02  0.12240519194E+02  0.20115032883E+02  0.00000000000E+00 0.  1.
</event>
<event>
 7    1  0.1486782E-008  0.4614232E+02  0.7816164E-02  0.1320468E+00
        -11   -1    0    0    0    0  0.00000000000E+00  0.00000000000E+00  0.45593999997E+02  0.45594000000E+02  0.51100000000E-03 0.  1.
         11   -1    0    0    0    0 -0.00000000000E+00 -0.00000000000E+00 -0.45593999997E+02  0.45594000000E+02  0.51100000000E-03 0. -1.
    9900012    2    1    2    0    0 -0.36369528419E+02  0.22833199935E+02 -0.13602055204E+02  0.46142317383E+02  0.99999965484E+01 0.  0.
        -12    1    1    2    0    0  0.36369528419E+02 -0.22833199935E+02  0.13602055204E+02  0.45045682617E+02  0.00000000000E+00 0.  1.
         11    1    3    3    0    0 -0.33634622215E+02  0.21677030830E+02 -0.96063360884E+01  0.41151709204E+02  0.51100000000E-03 0. -1.
        -11    1    3    3    0    0 -0.20623347117E+00  0.19040425953E+00 -0.43825489439E+00  0.52043600976E+00  0.51100000000E-03 0.  1.
         12    1    3    3    0    0 -0.25286727332E+01  0.96576484493E+00 -0.35574642215E+01  0.44701721684E+01  0.00000000000E+00 0. -1.
</event>
<event>
 7    1  0.1486782E-008  0.4614231E+02  0.7816164E-02  0.1320468E+00
        -11   -1    0    0    0    0  0.00000000000E+00  0.00000000000E+00  0.45593999997E+02  0.45594000000E+02  0.51100000000E-03 0.  1.
         11   -1    0    0    0    0 -0.00000000000E+00 -0.00000000000E+00 -0.45593999997E+02  0.45594000000E+02  0.51100000000E-03 0. -1.
    9900012    2    1    2    0    0  0.19509391350E+02  0.38117514088E+02 -0.13984015566E+02  0.46142312943E+02  0.99999560621E+01 0.  0.
        -12    1    1    2    0    0 -0.19509391350E+02 -0.38117514088E+02  0.13984015566E+02  0.45045687057E+02  0.00000000000E+00 0.  1.
         11    1    3    3    0    0  0.12585692295E+02  0.32829677180E+02 -0.10675412781E+02  0.36744411719E+02  0.51100000000E-03 0. -1.
        -11    1    3    3    0    0  0.48516849330E+01  0.43549912647E+01 -0.25819371822E+01  0.70122175864E+01  0.51100000000E-03 0.  1.
         12    1    3    3    0    0  0.20720141228E+01  0.93284564349E+00 -0.72666560223E+00  0.23856836373E+01  0.00000000000E+00 0. -1.
</event>
<event>
 7    1  0.1486782E-008  0.4614232E+02  0.7816164E-02  0.1320468E+00
        -11   -1    0    0    0    0  0.00000000000E+00  0.00000000000E+00  0.45593999997E+02  0.45594000000E+02  0.51100000000E-03 0. -1.
         11   -1    0    0    0    0 -0.00000000000E+00 -0.00000000000E+00 -0.45593999997E+02  0.45594000000E+02  0.51100000000E-03 0.  1.
    9900012    2    1    2    0    0  0.31975592077E+02  0.27805313763E+02  0.15281997708E+02  0.46142318564E+02  0.10000007318E+02 0.  0.
        -12    1    1    2    0    0 -0.31975592077E+02 -0.27805313763E+02 -0.15281997708E+02  0.45045681436E+02  0.00000000000E+00 0.  1.
         11    1    3    3    0    0  0.74506144226E+01  0.17997113184E+01  0.13949773795E+01  0.77908008737E+01  0.51100000000E-03 0.  1.
        -11    1    3    3    0    0  0.12121397261E+02  0.12598905319E+02  0.66206055263E+01  0.18694734676E+02  0.51100000000E-03 0. -1.
        -12    1    3    3    0    0  0.12403580393E+02  0.13406697126E+02  0.72664148024E+01  0.19656783014E+02  0.00000000000E+00 0.  1.
</event>
<event>
 7    1  0.1486782E-008  0.4614232E+02  0.7816164E-02  0.1320468E+00
        -11   -1    0    0    0    0  0.00000000000E+00  0.00000000000E+00  0.45593999997E+02  0.45594000000E+02  0.51100000000E-03 0.  1.
         11   -1    0    0    0    0 -0.00000000000E+00 -0.00000000000E+00 -0.45593999997E+02  0.45594000000E+02  0.51100000000E-03 0. -1.
    9900012    2    1    2    0    0  0.14295686164E+02 -0.14586932005E+02 -0.40149324110E+02  0.46142318135E+02  0.10000003410E+02 0.  0.
        -12    1    1    2    0    0 -0.14295686164E+02  0.14586932005E+02  0.40149324110E+02  0.45045681865E+02  0.00000000000E+00 0.  1.
         11    1    3    3    0    0  0.17088390298E+01  0.26729711420E+00 -0.10133776535E+02  0.10280321284E+02  0.51100000000E-03 0. -1.
        -11    1    3    3    0    0  0.11789685459E+02 -0.12998035370E+02 -0.26015119389E+02  0.31380440465E+02  0.51100000000E-03 0.  1.
         12    1    3    3    0    0  0.79716167472E+00 -0.18561937499E+01 -0.40004281850E+01  0.44815563855E+01  0.00000000000E+00 0. -1.
</event>
<event>
 7    1  0.1569834E-008  0.4614232E+02  0.7816164E-02  0.1320468E+00
        -11   -1    0    0    0    0  0.00000000000E+00  0.00000000000E+00  0.45593999997E+02  0.45594000000E+02  0.51100000000E-03 0. -1.
         11   -1    0    0    0    0 -0.00000000000E+00 -0.00000000000E+00 -0.45593999997E+02  0.45594000000E+02  0.51100000000E-03 0.  1.
    9900012    2    1    2    0    0  0.62781057978E+01 -0.34110487379E+02  0.28743234155E+02  0.46142317950E+02  0.10000001725E+02 0.  0.
        -12    1    1    2    0    0 -0.62781057978E+01  0.34110487379E+02 -0.28743234155E+02  0.45045682050E+02  0.00000000000E+00 0.  1.
         11    1    3    3    0    0  0.61434697597E+01 -0.32486567271E+02  0.27204437296E+02  0.42815892874E+02  0.51100000000E-03 0. -1.
        -11    1    3    3    0    0 -0.47409651049E+00 -0.82926048600E+00 -0.48300051145E+00  0.10703878783E+01  0.51100000000E-03 0.  1.
         12    1    3    3    0    0  0.60873254861E+00 -0.79465962194E+00  0.20217973710E+01  0.22560371983E+01  0.00000000000E+00 0. -1.
</event>
<event>
 7    1  0.1486782E-008  0.4614232E+02  0.7816164E-02  0.1320468E+00
        -11   -1    0    0    0    0  0.00000000000E+00  0.00000000000E+00  0.45593999997E+02  0.45594000000E+02  0.51100000000E-03 0. -1.
         11   -1    0    0    0    0 -0.00000000000E+00 -0.00000000000E+00 -0.45593999997E+02  0.45594000000E+02  0.51100000000E-03 0.  1.
    9900012    2    1    2    0    0 -0.14294611705E+02  0.30528023959E+02  0.29880049824E+02  0.46142317098E+02  0.99999939545E+01 0.  0.
        -12    1    1    2    0    0  0.14294611705E+02 -0.30528023959E+02 -0.29880049824E+02  0.45045682902E+02  0.00000000000E+00 0.  1.
         11    1    3    3    0    0  0.12489773352E-01  0.18661690419E+01 -0.25157330577E-01  0.18663804649E+01  0.51100000000E-03 0.  1.
        -11    1    3    3    0    0 -0.81177490117E+01  0.11977287673E+02  0.16821764344E+02  0.22188398431E+02  0.51100000000E-03 0. -1.
        -12    1    3    3    0    0 -0.61893524667E+01  0.16684567243E+02  0.13083442810E+02  0.22087538202E+02  0.00000000000E+00 0.  1.
</event>
<event>
 7    1  0.1486782E-008  0.4614232E+02  0.7816164E-02  0.1320468E+00
        -11   -1    0    0    0    0  0.00000000000E+00  0.00000000000E+00  0.45593999997E+02  0.45594000000E+02  0.51100000000E-03 0. -1.
         11   -1    0    0    0    0 -0.00000000000E+00 -0.00000000000E+00 -0.45593999997E+02  0.45594000000E+02  0.51100000000E-03 0.  1.
    9900012    2    1    2    0    0  0.76918426055E+01 -0.41288221854E+02 -0.16285942307E+02  0.46142316263E+02  0.99999863374E+01 0.  0.
        -12    1    1    2    0    0 -0.76918426055E+01  0.41288221854E+02  0.16285942307E+02  0.45045683737E+02  0.00000000000E+00 0.  1.
         11    1    3    3    0    0  0.23576101502E+01 -0.32736459236E+02 -0.13612837964E+02  0.35532287383E+02  0.51100000000E-03 0. -1.
        -11    1    3    3    0    0  0.49463405791E+01 -0.79713390590E+01 -0.19062387719E+01  0.95729973380E+01  0.51100000000E-03 0.  1.
         12    1    3    3    0    0  0.38789187627E+00 -0.58042355849E+00 -0.76686557117E+00  0.10370315420E+01  0.00000000000E+00 0. -1.
</event>
<event>
 7    1  0.1486782E-008  0.4614232E+02  0.7816164E-02  0.1320468E+00
        -11   -1    0    0    0    0  0.00000000000E+00  0.00000000000E+00  0.45593999997E+02  0.45594000000E+02  0.51100000000E-03 0. -1.
         11   -1    0    0    0    0 -0.00000000000E+00 -0.00000000000E+00 -0.45593999997E+02  0.45594000000E+02  0.51100000000E-03 0.  1.
    9900012    2    1    2    0    0  0.37916396531E+01 -0.43709712669E+02 -0.10207735853E+02  0.46142318918E+02  0.10000010548E+02 0.  0.
        -12    1    1    2    0    0 -0.37916396531E+01  0.43709712669E+02  0.10207735853E+02  0.45045681082E+02  0.00000000000E+00 0.  1.
         11    1    3    3    0    0  0.34597773939E+01 -0.12250509131E+02  0.20400227934E+00  0.12731325571E+02  0.51100000000E-03 0. -1.
        -11    1    3    3    0    0  0.25131348631E+00 -0.17171634400E+01  0.37083156466E+00  0.17746337815E+01  0.51100000000E-03 0.  1.
         12    1    3    3    0    0  0.80548772865E-01 -0.29742040098E+02 -0.10782569697E+02  0.31636359566E+02  0.00000000000E+00 0. -1.
</event>
<event>
 7    1  0.1486782E-008  0.4614232E+02  0.7816164E-02  0.1320468E+00
        -11   -1    0    0    0    0  0.00000000000E+00  0.00000000000E+00  0.45593999997E+02  0.45594000000E+02  0.51100000000E-03 0.  1.
         11   -1    0    0    0    0 -0.00000000000E+00 -0.00000000000E+00 -0.45593999997E+02  0.45594000000E+02  0.51100000000E-03 0. -1.
    9900012    2    1    2    0    0 -0.15218777267E+01  0.17114679073E+02 -0.41639947033E+02  0.46142317182E+02  0.99999947224E+01 0.  0.
        -12    1    1    2    0    0  0.15218777267E+01 -0.17114679073E+02  0.41639947033E+02  0.45045682818E+02  0.00000000000E+00 0.  1.
         11    1    3    3    0    0 -0.41711877773E+00  0.55691468318E+01 -0.15467642825E+02  0.16444979761E+02  0.51100000000E-03 0. -1.
        -11    1    3    3    0    0 -0.32408302192E+01  0.22061680977E+01 -0.43007978818E+01  0.58195378567E+01  0.51100000000E-03 0.  1.
        -12    1    3    3    0    0  0.21360712702E+01  0.93393641433E+01 -0.21871506326E+02  0.23877799564E+02  0.00000000000E+00 0.  1.
</event>
<event>
 7    1  0.1486782E-008  0.4614232E+02  0.7816164E-02  0.1320468E+00
        -11   -1    0    0    0    0  0.00000000000E+00  0.00000000000E+00  0.45593999997E+02  0.45594000000E+02  0.51100000000E-03 0.  1.
         11   -1    0    0    0    0 -0.00000000000E+00 -0.00000000000E+00 -0.45593999997E+02  0.45594000000E+02  0.51100000000E-03 0. -1.
    9900012    2    1    2    0    0  0.13192335615E+02  0.41653231859E+02 -0.10958285365E+02  0.46142318060E+02  0.10000002725E+02 0.  0.
        -12    1    1    2    0    0 -0.13192335615E+02 -0.41653231859E+02  0.10958285365E+02  0.45045681940E+02  0.00000000000E+00 0.  1.
         11    1    3    3    0    0  0.13318101857E+02  0.34981270846E+02 -0.83669139338E+01  0.38354483390E+02  0.51100000000E-03 0. -1.
        -11    1    3    3    0    0  0.91779135597E+00  0.35403979085E+01 -0.25992436071E+01  0.44869617687E+01  0.51100000000E-03 0.  1.
         12    1    3    3    0    0 -0.10435575982E+01  0.31315631043E+01  0.78721755814E-02  0.33008729009E+01  0.00000000000E+00 0. -1.
</event>
<event>
 7    1  0.1486782E-008  0.4614232E+02  0.7816164E-02  0.1320468E+00
        -11   -1    0    0    0    0  0.00000000000E+00  0.00000000000E+00  0.45593999997E+02  0.45594000000E+02  0.51100000000E-03 0.  1.
         11   -1    0    0    0    0 -0.00000000000E+00 -0.00000000000E+00 -0.45593999997E+02  0.45594000000E+02  0.51100000000E-03 0. -1.
    9900012    2    1    2    0    0 -0.28960141350E+02 -0.55288453039E+01 -0.34056652215E+02  0.46142317882E+02  0.10000001103E+02 0.  0.
        -12    1    1    2    0    0  0.28960141350E+02  0.55288453039E+01  0.34056652215E+02  0.45045682118E+02  0.00000000000E+00 0.  1.
         11    1    3    3    0    0 -0.11947821137E+02 -0.11762734473E+00 -0.14005982887E+02  0.18410101113E+02  0.51100000000E-03 0. -1.
        -11    1    3    3    0    0 -0.14345405410E+02 -0.21378333193E+01 -0.12812423431E+02  0.19352498084E+02  0.51100000000E-03 0.  1.
        -12    1    3    3    0    0 -0.26669148034E+01 -0.32733846398E+01 -0.72382458972E+01  0.83797186848E+01  0.00000000000E+00 0.  1.
</event>
<event>
 7    1  0.1486782E-008  0.4614232E+02  0.7816164E-02  0.1320468E+00
        -11   -1    0    0    0    0  0.00000000000E+00  0.00000000000E+00  0.45593999997E+02  0.45594000000E+02  0.51100000000E-03 0.  1.
         11   -1    0    0    0    0 -0.00000000000E+00 -0.00000000000E+00 -0.45593999997E+02  0.45594000000E+02  0.51100000000E-03 0. -1.
    9900012    2    1    2    0    0  0.37196838691E+02 -0.12318706958E+02 -0.22220668124E+02  0.46142318280E+02  0.10000004736E+02 0.  0.
        -12    1    1    2    0    0 -0.37196838691E+02  0.12318706958E+02  0.22220668124E+02  0.45045681720E+02  0.00000000000E+00 0.  1.
         11    1    3    3    0    0  0.12358517614E+02 -0.49224992738E+00 -0.84156185828E+01  0.14959876470E+02  0.51100000000E-03 0. -1.
        -11    1    3    3    0    0  0.18008459548E+02 -0.78232703863E+01 -0.12165705929E+02  0.23097891156E+02  0.51100000000E-03 0.  1.
        -12    1    3    3    0    0  0.68298615288E+01 -0.40031866440E+01 -0.16393436120E+01  0.80845506547E+01  0.00000000000E+00 0.  1.
</event>
<event>
 7    1  0.1486782E-008  0.4614232E+02  0.7816164E-02  0.1320468E+00
        -11   -1    0    0    0    0  0.00000000000E+00  0.00000000000E+00  0.45593999997E+02  0.45594000000E+02  0.51100000000E-03 0. -1.
         11   -1    0    0    0    0 -0.00000000000E+00 -0.00000000000E+00 -0.45593999997E+02  0.45594000000E+02  0.51100000000E-03 0.  1.
    9900012    2    1    2    0    0  0.14944385950E+02  0.14244508473E+02  0.40035895264E+02  0.46142316492E+02  0.99999884313E+01 0.  0.
        -12    1    1    2    0    0 -0.14944385950E+02 -0.14244508473E+02 -0.40035895264E+02  0.45045683508E+02  0.00000000000E+00 0.  1.
         11    1    3    3    0    0  0.88007676008E+01  0.42606588019E+01  0.14133426273E+02  0.17186054296E+02  0.51100000000E-03 0. -1.
        -11    1    3    3    0    0  0.55720823270E+00  0.50060260532E+01  0.14192984578E+02  0.15060265248E+02  0.51100000000E-03 0.  1.
        -12    1    3    3    0    0  0.55864101161E+01  0.49778236175E+01  0.11709484414E+02  0.13895996948E+02  0.00000000000E+00 0.  1.
</event>
<event>
 7    1  0.1486782E-008  0.4614232E+02  0.7816164E-02  0.1320468E+00
        -11   -1    0    0    0    0  0.00000000000E+00  0.00000000000E+00  0.45593999997E+02  0.45594000000E+02  0.51100000000E-03 0.  1.
         11   -1    0    0    0    0 -0.00000000000E+00 -0.00000000000E+00 -0.45593999997E+02  0.45594000000E+02  0.51100000000E-03 0. -1.
    9900012    2    1    2    0    0 -0.64679663627E+01  0.17363084625E+02 -0.41058521378E+02  0.46142317917E+02  0.10000001423E+02 0.  0.
        -12    1    1    2    0    0  0.64679663627E+01 -0.17363084625E+02  0.41058521378E+02  0.45045682083E+02  0.00000000000E+00 0.  1.
         11    1    3    3    0    0 -0.11464099654E+01  0.13361097347E+02 -0.25416461369E+02  0.28737252599E+02  0.51100000000E-03 0. -1.
        -11    1    3    3    0    0 -0.52460830638E+01  0.32643565872E+01 -0.10295078483E+02  0.12006916868E+02  0.51100000000E-03 0.  1.
         12    1    3    3    0    0 -0.75473333517E-01  0.73763069102E+00 -0.53469815252E+01  0.53981484502E+01  0.00000000000E+00 0. -1.
</event>
<event>
 7    1  0.1486782E-008  0.4614232E+02  0.7816164E-02  0.1320468E+00
        -11   -1    0    0    0    0  0.00000000000E+00  0.00000000000E+00  0.45593999997E+02  0.45594000000E+02  0.51100000000E-03 0.  1.
         11   -1    0    0    0    0 -0.00000000000E+00 -0.00000000000E+00 -0.45593999997E+02  0.45594000000E+02  0.51100000000E-03 0. -1.
    9900012    2    1    2    0    0 -0.40943044094E+02  0.43677361000E+01 -0.18267551296E+02  0.46142318646E+02  0.10000008067E+02 0.  0.
        -12    1    1    2    0    0  0.40943044094E+02 -0.43677361000E+01  0.18267551296E+02  0.45045681354E+02  0.00000000000E+00 0.  1.
         11    1    3    3    0    0 -0.15447241019E+02  0.10401496370E+01 -0.40766272947E+01  0.16009936187E+02  0.51100000000E-03 0.  1.
        -11    1    3    3    0    0 -0.71245679722E+01 -0.20384996548E+01 -0.46336848909E+01  0.87399076404E+01  0.51100000000E-03 0. -1.
        -12    1    3    3    0    0 -0.18371235103E+02  0.53660861178E+01 -0.95572391101E+01  0.21392474818E+02  0.00000000000E+00 0.  1.
</event>
<event>
 7    1  0.1486782E-008  0.4614232E+02  0.7816164E-02  0.1320468E+00
        -11   -1    0    0    0    0  0.00000000000E+00  0.00000000000E+00  0.45593999997E+02  0.45594000000E+02  0.51100000000E-03 0.  1.
         11   -1    0    0    0    0 -0.00000000000E+00 -0.00000000000E+00 -0.45593999997E+02  0.45594000000E+02  0.51100000000E-03 0. -1.
    9900012    2    1    2    0    0  0.48768547597E+01  0.22638769022E+02 -0.38636976174E+02  0.46142317598E+02  0.99999985128E+01 0.  0.
        -12    1    1    2    0    0 -0.48768547597E+01 -0.22638769022E+02  0.38636976174E+02  0.45045682402E+02  0.00000000000E+00 0.  1.
         11    1    3    3    0    0  0.33847194950E+01  0.13236840052E+01 -0.60202788329E+01  0.70322274489E+01  0.51100000000E-03 0. -1.
        -11    1    3    3    0    0 -0.21240017546E+00  0.15600298826E+02 -0.22914191481E+02  0.27721374584E+02  0.51100000000E-03 0.  1.
         12    1    3    3    0    0  0.17045354401E+01  0.57147861907E+01 -0.97025058597E+01  0.11388715565E+02  0.00000000000E+00 0. -1.
</event>
<event>
 7    1  0.1486782E-008  0.4614232E+02  0.7816164E-02  0.1320468E+00
        -11   -1    0    0    0    0  0.00000000000E+00  0.00000000000E+00  0.45593999997E+02  0.45594000000E+02  0.51100000000E-03 0.  1.
         11   -1    0    0    0    0 -0.00000000000E+00 -0.00000000000E+00 -0.45593999997E+02  0.45594000000E+02  0.51100000000E-03 0. -1.
    9900012    2    1    2    0    0 -0.68719658079E+01 -0.18471757332E+02 -0.40505355917E+02  0.46142316622E+02  0.99999896126E+01 0.  0.
        -12    1    1    2    0    0  0.68719658079E+01  0.18471757332E+02  0.40505355917E+02  0.45045683378E+02  0.00000000000E+00 0.  1.
         11    1    3    3    0    0 -0.24240079873E+00 -0.10424443351E+02 -0.19198484207E+02  0.21847415716E+02  0.51100000000E-03 0. -1.
        -11    1    3    3    0    0 -0.66547808356E+01 -0.54258834097E+01 -0.12962398092E+02  0.15548314485E+02  0.51100000000E-03 0.  1.
        -12    1    3    3    0    0  0.25215826417E-01 -0.26214305708E+01 -0.83444736179E+01  0.87465864219E+01  0.00000000000E+00 0.  1.
</event>
<event>
 7    1  0.1545656E-008  0.4614232E+02  0.7816164E-02  0.1320468E+00
        -11   -1    0    0    0    0  0.00000000000E+00  0.00000000000E+00  0.45593999997E+02  0.45594000000E+02  0.51100000000E-03 0.  1.
         11   -1    0    0    0    0 -0.00000000000E+00 -0.00000000000E+00 -0.45593999997E+02  0.45594000000E+02  0.51100000000E-03 0. -1.
    9900012    2    1    2    0    0  0.32171208137E+02 -0.29552653369E+02 -0.10989427067E+02  0.46142318060E+02  0.10000002730E+02 0.  0.
        -12    1    1    2    0    0 -0.32171208137E+02  0.29552653369E+02  0.10989427067E+02  0.45045681940E+02  0.00000000000E+00 0.  1.
         11    1    3    3    0    0  0.16274500929E+02 -0.19408960451E+02 -0.29602936916E+01  0.25501577702E+02  0.51100000000E-03 0. -1.
        -11    1    3    3    0    0  0.26238139714E+01 -0.79776373151E+00 -0.16407071470E+01  0.31957388709E+01  0.51100000000E-03 0.  1.
         12    1    3    3    0    0  0.13272893237E+02 -0.93459291858E+01 -0.63884262288E+01  0.17445001488E+02  0.00000000000E+00 0. -1.
</event>
<event>
 7    1  0.1486782E-008  0.4614232E+02  0.7816164E-02  0.1320468E+00
        -11   -1    0    0    0    0  0.00000000000E+00  0.00000000000E+00  0.45593999997E+02  0.45594000000E+02  0.51100000000E-03 0.  1.
         11   -1    0    0    0    0 -0.00000000000E+00 -0.00000000000E+00 -0.45593999997E+02  0.45594000000E+02  0.51100000000E-03 0. -1.
    9900012    2    1    2    0    0  0.95033330998E+01  0.35549563047E+01 -0.43888064581E+02  0.46142320218E+02  0.10000022405E+02 0.  0.
        -12    1    1    2    0    0 -0.95033330998E+01 -0.35549563047E+01  0.43888064581E+02  0.45045679782E+02  0.00000000000E+00 0.  1.
         11    1    3    3    0    0  0.61035581674E+01  0.20816732320E+01 -0.29664798587E+02  0.30357652433E+02  0.51100000000E-03 0. -1.
        -11    1    3    3    0    0  0.30953832032E+01  0.34487441316E+01 -0.79655396622E+01  0.92154791319E+01  0.51100000000E-03 0.  1.
        -12    1    3    3    0    0  0.30439172925E+00 -0.19754610590E+01 -0.62577263316E+01  0.65691886532E+01  0.00000000000E+00 0.  1.
</event>
<event>
 7    1  0.1486782E-008  0.4614232E+02  0.7816164E-02  0.1320468E+00
        -11   -1    0    0    0    0  0.00000000000E+00  0.00000000000E+00  0.45593999997E+02  0.45594000000E+02  0.51100000000E-03 0.  1.
         11   -1    0    0    0    0 -0.00000000000E+00 -0.00000000000E+00 -0.45593999997E+02  0.45594000000E+02  0.51100000000E-03 0. -1.
    9900012    2    1    2    0    0  0.75449172645E+01  0.44143900210E+02 -0.48480742752E+01  0.46142317339E+02  0.99999961479E+01 0.  0.
        -12    1    1    2    0    0 -0.75449172645E+01 -0.44143900210E+02  0.48480742752E+01  0.45045682661E+02  0.00000000000E+00 0.  1.
         11    1    3    3    0    0  0.60336746328E+01  0.36668817964E+02 -0.24851898159E+01  0.37244913869E+02  0.51100000000E-03 0. -1.
        -11    1    3    3    0    0 -0.73230331259E+00  0.38396486677E+01 -0.24703837499E+01  0.46240638151E+01  0.51100000000E-03 0.  1.
         12    1    3    3    0    0  0.22435459443E+01  0.36354335782E+01  0.10749929057E+00  0.42733396546E+01  0.00000000000E+00 0. -1.
</event>
<event>
 7    1  0.1486782E-008  0.4614232E+02  0.7816164E-02  0.1320468E+00
        -11   -1    0    0    0    0  0.00000000000E+00  0.00000000000E+00  0.45593999997E+02  0.45594000000E+02  0.51100000000E-03 0. -1.
         11   -1    0    0    0    0 -0.00000000000E+00 -0.00000000000E+00 -0.45593999997E+02  0.45594000000E+02  0.51100000000E-03 0.  1.
    9900012    2    1    2    0    0  0.22539761826E+02 -0.27566070980E+02  0.27589569356E+02  0.46142317969E+02  0.10000001894E+02 0.  0.
        -12    1    1    2    0    0 -0.22539761826E+02  0.27566070980E+02 -0.27589569356E+02  0.45045682031E+02  0.00000000000E+00 0.  1.
         11    1    3    3    0    0  0.14178669181E+02 -0.18721390826E+02  0.18712084190E+02  0.30027774296E+02  0.51100000000E-03 0. -1.
        -11    1    3    3    0    0  0.66613250025E+01 -0.90660998779E+01  0.59616583099E+01  0.12732194934E+02  0.51100000000E-03 0.  1.
        -12    1    3    3    0    0  0.16997676426E+01  0.22141972398E+00  0.29158268557E+01  0.33823487380E+01  0.00000000000E+00 0.  1.
</event>
<event>
 7    1  0.1486782E-008  0.4614232E+02  0.7816164E-02  0.1320468E+00
        -11   -1    0    0    0    0  0.00000000000E+00  0.00000000000E+00  0.45593999997E+02  0.45594000000E+02  0.51100000000E-03 0.  1.
         11   -1    0    0    0    0 -0.00000000000E+00 -0.00000000000E+00 -0.45593999997E+02  0.45594000000E+02  0.51100000000E-03 0. -1.
    9900012    2    1    2    0    0  0.23517324359E+02  0.31130234011E+02  0.22515713370E+02  0.46142319151E+02  0.10000012675E+02 0.  0.
        -12    1    1    2    0    0 -0.23517324359E+02 -0.31130234011E+02 -0.22515713370E+02  0.45045680849E+02  0.00000000000E+00 0.  1.
         11    1    3    3    0    0  0.16698182955E+01  0.46400800637E+01  0.15031742889E+01  0.51554019573E+01  0.51100000000E-03 0. -1.
        -11    1    3    3    0    0  0.44935856215E-02  0.13481094172E+01  0.26053614668E+01  0.29334839060E+01  0.51100000000E-03 0.  1.
         12    1    3    3    0    0  0.21843012478E+02  0.25142044530E+02  0.18407177615E+02  0.38053433288E+02  0.00000000000E+00 0. -1.
</event>
<event>
 7    1  0.1486782E-008  0.4614232E+02  0.7816164E-02  0.1320468E+00
        -11   -1    0    0    0    0  0.00000000000E+00  0.00000000000E+00  0.45593999997E+02  0.45594000000E+02  0.51100000000E-03 0.  1.
         11   -1    0    0    0    0 -0.00000000000E+00 -0.00000000000E+00 -0.45593999997E+02  0.45594000000E+02  0.51100000000E-03 0. -1.
    9900012    2    1    2    0    0 -0.23816246232E+02  0.10485690158E+02 -0.36768874764E+02  0.46142318364E+02  0.10000005500E+02 0.  0.
        -12    1    1    2    0    0  0.23816246232E+02 -0.10485690158E+02  0.36768874764E+02  0.45045681636E+02  0.00000000000E+00 0.  1.
         11    1    3    3    0    0 -0.19833279906E+02  0.10129887058E+02 -0.24220891872E+02  0.32903270460E+02  0.51100000000E-03 0. -1.
        -11    1    3    3    0    0 -0.12840146065E+01  0.12107055397E-01 -0.62165957493E+01  0.63478266408E+01  0.51100000000E-03 0.  1.
         12    1    3    3    0    0 -0.26989517194E+01  0.34369604391E+00 -0.63313871423E+01  0.68912212633E+01  0.00000000000E+00 0. -1.
</event>
<event>
 7    1  0.1486782E-008  0.4614232E+02  0.7816164E-02  0.1320468E+00
        -11   -1    0    0    0    0  0.00000000000E+00  0.00000000000E+00  0.45593999997E+02  0.45594000000E+02  0.51100000000E-03 0. -1.
         11   -1    0    0    0    0 -0.00000000000E+00 -0.00000000000E+00 -0.45593999997E+02  0.45594000000E+02  0.51100000000E-03 0.  1.
    9900012    2    1    2    0    0 -0.17377801037E+02  0.40122546252E+02 -0.10830828802E+02  0.46142317197E+02  0.99999948556E+01 0.  0.
        -12    1    1    2    0    0  0.17377801037E+02 -0.40122546252E+02  0.10830828802E+02  0.45045682803E+02  0.00000000000E+00 0.  1.
         11    1    3    3    0    0 -0.19953640063E+01  0.50060813420E+01  0.19903791861E+00  0.53927677749E+01  0.51100000000E-03 0. -1.
        -11    1    3    3    0    0 -0.48743039586E+01  0.18515829684E+02 -0.84703052742E+01  0.20936591405E+02  0.51100000000E-03 0.  1.
        -12    1    3    3    0    0 -0.10508133072E+02  0.16600635226E+02 -0.25595614467E+01  0.19812958017E+02  0.00000000000E+00 0.  1.
</event>
<event>
 7    1  0.1486782E-008  0.4614232E+02  0.7816164E-02  0.1320468E+00
        -11   -1    0    0    0    0  0.00000000000E+00  0.00000000000E+00  0.45593999997E+02  0.45594000000E+02  0.51100000000E-03 0. -1.
         11   -1    0    0    0    0 -0.00000000000E+00 -0.00000000000E+00 -0.45593999997E+02  0.45594000000E+02  0.51100000000E-03 0.  1.
    9900012    2    1    2    0    0 -0.26189847633E+02 -0.36588671323E+02  0.21152994869E+01  0.46142317853E+02  0.10000000838E+02 0.  0.
        -12    1    1    2    0    0  0.26189847633E+02  0.36588671323E+02 -0.21152994869E+01  0.45045682147E+02  0.00000000000E+00 0.  1.
         11    1    3    3    0    0 -0.79384840253E+01 -0.17747928684E+02  0.90341607969E+00  0.19463418561E+02  0.51100000000E-03 0. -1.
        -11    1    3    3    0    0 -0.86592143334E+01 -0.78949148517E+01 -0.16873964154E+01  0.11838875804E+02  0.51100000000E-03 0.  1.
         12    1    3    3    0    0 -0.95921492739E+01 -0.10945827787E+02  0.28992798226E+01  0.14840023488E+02  0.00000000000E+00 0. -1.
</event>
<event>
 7    1  0.1486782E-008  0.4614232E+02  0.7816164E-02  0.1320468E+00
        -11   -1    0    0    0    0  0.00000000000E+00  0.00000000000E+00  0.45593999997E+02  0.45594000000E+02  0.51100000000E-03 0.  1.
         11   -1    0    0    0    0 -0.00000000000E+00 -0.00000000000E+00 -0.45593999997E+02  0.45594000000E+02  0.51100000000E-03 0. -1.
    9900012    2    1    2    0    0 -0.31900339585E+02  0.61463309927E+01 -0.31204239701E+02  0.46142316238E+02  0.99999861098E+01 0.  0.
        -12    1    1    2    0    0  0.31900339585E+02 -0.61463309927E+01  0.31204239701E+02  0.45045683762E+02  0.00000000000E+00 0.  1.
         11    1    3    3    0    0 -0.19999181384E+02  0.55961001683E+01 -0.18024301910E+02  0.27498346364E+02  0.51100000000E-03 0. -1.
        -11    1    3    3    0    0 -0.88026024803E+01 -0.16455469031E+01 -0.69000065001E+01  0.11305030960E+02  0.51100000000E-03 0.  1.
         12    1    3    3    0    0 -0.30985557209E+01  0.21957777275E+01 -0.62799312900E+01  0.73389389145E+01  0.00000000000E+00 0. -1.
</event>
<event>
 7    1  0.1486782E-008  0.4614232E+02  0.7816164E-02  0.1320468E+00
        -11   -1    0    0    0    0  0.00000000000E+00  0.00000000000E+00  0.45593999997E+02  0.45594000000E+02  0.51100000000E-03 0.  1.
         11   -1    0    0    0    0 -0.00000000000E+00 -0.00000000000E+00 -0.45593999997E+02  0.45594000000E+02  0.51100000000E-03 0. -1.
    9900012    2    1    2    0    0 -0.34923827749E+02 -0.24967854625E+02 -0.13639866846E+02  0.46142317890E+02  0.10000001172E+02 0.  0.
        -12    1    1    2    0    0  0.34923827749E+02  0.24967854625E+02  0.13639866846E+02  0.45045682110E+02  0.00000000000E+00 0.  1.
         11    1    3    3    0    0 -0.21124039510E+02 -0.14711702128E+02 -0.69035642324E+01  0.26651799641E+02  0.51100000000E-03 0. -1.
        -11    1    3    3    0    0  0.64817620374E+00 -0.75339229925E+00 -0.44168524282E+00  0.10875745779E+01  0.51100000000E-03 0.  1.
         12    1    3    3    0    0 -0.14447964442E+02 -0.95027601974E+01 -0.62946173711E+01  0.18402943671E+02  0.00000000000E+00 0. -1.
</event>
<event>
 7    1  0.1486782E-008  0.4614232E+02  0.7816164E-02  0.1320468E+00
        -11   -1    0    0    0    0  0.00000000000E+00  0.00000000000E+00  0.45593999997E+02  0.45594000000E+02  0.51100000000E-03 0. -1.
         11   -1    0    0    0    0 -0.00000000000E+00 -0.00000000000E+00 -0.45593999997E+02  0.45594000000E+02  0.51100000000E-03 0.  1.
    9900012    2    1    2    0    0 -0.27442979333E+02  0.18037779756E+02  0.30832367825E+02  0.46142317422E+02  0.99999969095E+01 0.  0.
        -12    1    1    2    0    0  0.27442979333E+02 -0.18037779756E+02 -0.30832367825E+02  0.45045682578E+02  0.00000000000E+00 0.  1.
         11    1    3    3    0    0 -0.64740978720E+01  0.17985954257E+01  0.55875763917E+01  0.87389872957E+01  0.51100000000E-03 0. -1.
        -11    1    3    3    0    0 -0.13885158691E+02  0.90406948310E+01  0.20163041894E+02  0.26097510486E+02  0.51100000000E-03 0.  1.
        -12    1    3    3    0    0 -0.70837227704E+01  0.71984894992E+01  0.50817495395E+01  0.11305819640E+02  0.00000000000E+00 0.  1.
</event>
<event>
 7    1  0.1486782E-008  0.4614232E+02  0.7816164E-02  0.1320468E+00
        -11   -1    0    0    0    0  0.00000000000E+00  0.00000000000E+00  0.45593999997E+02  0.45594000000E+02  0.51100000000E-03 0.  1.
         11   -1    0    0    0    0 -0.00000000000E+00 -0.00000000000E+00 -0.45593999997E+02  0.45594000000E+02  0.51100000000E-03 0. -1.
    9900012    2    1    2    0    0 -0.16755031138E+02  0.83810321593E+01 -0.40965112811E+02  0.46142320561E+02  0.10000025530E+02 0.  0.
        -12    1    1    2    0    0  0.16755031138E+02 -0.83810321593E+01  0.40965112811E+02  0.45045679439E+02  0.00000000000E+00 0.  1.
         11    1    3    3    0    0 -0.99845805714E+01  0.93365233751E+01 -0.23384203771E+02  0.27086592702E+02  0.51100000000E-03 0.  1.
        -11    1    3    3    0    0 -0.67132449822E+01 -0.72301579818E+00 -0.14833980165E+02  0.16298385743E+02  0.51100000000E-03 0. -1.
        -12    1    3    3    0    0 -0.57205584424E-01 -0.23247541761E+00 -0.27469288749E+01  0.27573421156E+01  0.00000000000E+00 0.  1.
</event>
<event>
 7    1  0.1486782E-008  0.4614232E+02  0.7816164E-02  0.1320468E+00
        -11   -1    0    0    0    0  0.00000000000E+00  0.00000000000E+00  0.45593999997E+02  0.45594000000E+02  0.51100000000E-03 0.  1.
         11   -1    0    0    0    0 -0.00000000000E+00 -0.00000000000E+00 -0.45593999997E+02  0.45594000000E+02  0.51100000000E-03 0. -1.
    9900012    2    1    2    0    0 -0.20353328196E+02 -0.13219933862E+02 -0.37948501166E+02  0.46142319178E+02  0.10000012916E+02 0.  0.
        -12    1    1    2    0    0  0.20353328196E+02  0.13219933862E+02  0.37948501166E+02  0.45045680822E+02  0.00000000000E+00 0.  1.
         11    1    3    3    0    0 -0.11940369248E+02 -0.42011346282E+01 -0.25918095518E+02  0.28843883675E+02  0.51100000000E-03 0. -1.
        -11    1    3    3    0    0 -0.92055052455E+00 -0.15788214306E+01 -0.12897746424E+01  0.22368748886E+01  0.51100000000E-03 0.  1.
         12    1    3    3    0    0 -0.74924084242E+01 -0.74399778037E+01 -0.10740631006E+02  0.15061560614E+02  0.00000000000E+00 0. -1.
</event>
<event>
 7    1  0.1486782E-008  0.4614232E+02  0.7816164E-02  0.1320468E+00
        -11   -1    0    0    0    0  0.00000000000E+00  0.00000000000E+00  0.45593999997E+02  0.45594000000E+02  0.51100000000E-03 0.  1.
         11   -1    0    0    0    0 -0.00000000000E+00 -0.00000000000E+00 -0.45593999997E+02  0.45594000000E+02  0.51100000000E-03 0. -1.
    9900012    2    1    2    0    0  0.39967939817E+02 -0.90837476630E+01  0.18685898441E+02  0.46142317794E+02  0.10000000298E+02 0.  0.
        -12    1    1    2    0    0 -0.39967939817E+02  0.90837476630E+01 -0.18685898441E+02  0.45045682206E+02  0.00000000000E+00 0.  1.
         11    1    3    3    0    0  0.32182584155E+02 -0.10561107579E+02  0.14494092992E+02  0.36842020141E+02  0.51100000000E-03 0. -1.
        -11    1    3    3    0    0  0.71011684356E+01  0.16578139178E+01  0.44550690962E+01  0.85453250991E+01  0.51100000000E-03 0.  1.
        -12    1    3    3    0    0  0.68418722714E+00 -0.18045400183E+00 -0.26326364684E+00  0.75497255335E+00  0.00000000000E+00 0.  1.
</event>
<event>
 7    1  0.1486782E-008  0.4614232E+02  0.7816164E-02  0.1320468E+00
        -11   -1    0    0    0    0  0.00000000000E+00  0.00000000000E+00  0.45593999997E+02  0.45594000000E+02  0.51100000000E-03 0.  1.
         11   -1    0    0    0    0 -0.00000000000E+00 -0.00000000000E+00 -0.45593999997E+02  0.45594000000E+02  0.51100000000E-03 0. -1.
    9900012    2    1    2    0    0 -0.26467861667E+02 -0.27680607939E+02 -0.23713913222E+02  0.46142318326E+02  0.10000005154E+02 0.  0.
        -12    1    1    2    0    0  0.26467861667E+02  0.27680607939E+02  0.23713913222E+02  0.45045681674E+02  0.00000000000E+00 0.  1.
         11    1    3    3    0    0 -0.18344513399E+01 -0.15640667483E+01 -0.34421283563E+01  0.42023522454E+01  0.51100000000E-03 0. -1.
        -11    1    3    3    0    0 -0.24643665551E+01 -0.67736632156E+00 -0.32849022326E+01  0.41620320265E+01  0.51100000000E-03 0.  1.
        -12    1    3    3    0    0 -0.22169043772E+02 -0.25439174870E+02 -0.16986882633E+02  0.37777934054E+02  0.00000000000E+00 0.  1.
</event>
<event>
 7    1  0.1627393E-008  0.4614232E+02  0.7816164E-02  0.1320468E+00
        -11   -1    0    0    0    0  0.00000000000E+00  0.00000000000E+00  0.45593999997E+02  0.45594000000E+02  0.51100000000E-03 0. -1.
         11   -1    0    0    0    0 -0.00000000000E+00 -0.00000000000E+00 -0.45593999997E+02  0.45594000000E+02  0.51100000000E-03 0.  1.
    9900012    2    1    2    0    0  0.14473062520E+02 -0.23736368935E+02  0.35443316220E+02  0.46142318591E+02  0.10000007566E+02 0.  0.
        -12    1    1    2    0    0 -0.14473062520E+02  0.23736368935E+02 -0.35443316220E+02  0.45045681409E+02  0.00000000000E+00 0.  1.
         11    1    3    3    0    0  0.12370891692E+02 -0.21269160871E+02  0.25618669875E+02  0.35520872903E+02  0.51100000000E-03 0. -1.
        -11    1    3    3    0    0 -0.69620533835E-01  0.41764948766E+00  0.11342933759E+01  0.12107435059E+01  0.51100000000E-03 0.  1.
         12    1    3    3    0    0  0.21717913624E+01 -0.28848575517E+01  0.86903529699E+01  0.94107021819E+01  0.00000000000E+00 0. -1.
</event>
<event>
 7    1  0.1486782E-008  0.4614232E+02  0.7816164E-02  0.1320468E+00
        -11   -1    0    0    0    0  0.00000000000E+00  0.00000000000E+00  0.45593999997E+02  0.45594000000E+02  0.51100000000E-03 0. -1.
         11   -1    0    0    0    0 -0.00000000000E+00 -0.00000000000E+00 -0.45593999997E+02  0.45594000000E+02  0.51100000000E-03 0.  1.
    9900012    2    1    2    0    0 -0.13438468665E+02  0.13100718483E+02  0.40949873745E+02  0.46142318469E+02  0.10000006454E+02 0.  0.
        -12    1    1    2    0    0  0.13438468665E+02 -0.13100718483E+02 -0.40949873745E+02  0.45045681531E+02  0.00000000000E+00 0.  1.
         11    1    3    3    0    0 -0.12327719986E+02  0.85670241229E+01  0.34156769863E+02  0.37310206514E+02  0.51100000000E-03 0. -1.
        -11    1    3    3    0    0  0.50389953523E+00  0.14988016629E+01  0.49502807249E+00  0.16569170831E+01  0.51100000000E-03 0.  1.
         12    1    3    3    0    0 -0.16146482137E+01  0.30348926976E+01  0.62980758100E+01  0.71751948718E+01  0.00000000000E+00 0. -1.
</event>
<event>
 7    1  0.1486782E-008  0.4614232E+02  0.7816164E-02  0.1320468E+00
        -11   -1    0    0    0    0  0.00000000000E+00  0.00000000000E+00  0.45593999997E+02  0.45594000000E+02  0.51100000000E-03 0.  1.
         11   -1    0    0    0    0 -0.00000000000E+00 -0.00000000000E+00 -0.45593999997E+02  0.45594000000E+02  0.51100000000E-03 0. -1.
    9900012    2    1    2    0    0  0.43060301653E+02 -0.10745919223E+02  0.77103248693E+01  0.46142317987E+02  0.10000002060E+02 0.  0.
        -12    1    1    2    0    0 -0.43060301653E+02  0.10745919223E+02 -0.77103248693E+01  0.45045682013E+02  0.00000000000E+00 0.  1.
         11    1    3    3    0    0  0.23746334769E+02 -0.50996857254E+01  0.18817270049E+01  0.24360544046E+02  0.51100000000E-03 0. -1.
        -11    1    3    3    0    0  0.79605797747E+01  0.14093190580E+00  0.39929452062E+01  0.89069806237E+01  0.51100000000E-03 0.  1.
        -12    1    3    3    0    0  0.11353387110E+02 -0.57871654031E+01  0.18356526582E+01  0.12874793317E+02  0.00000000000E+00 0.  1.
</event>
<event>
 7    1  0.1486782E-008  0.4614231E+02  0.7816164E-02  0.1320468E+00
        -11   -1    0    0    0    0  0.00000000000E+00  0.00000000000E+00  0.45593999997E+02  0.45594000000E+02  0.51100000000E-03 0.  1.
         11   -1    0    0    0    0 -0.00000000000E+00 -0.00000000000E+00 -0.45593999997E+02  0.45594000000E+02  0.51100000000E-03 0. -1.
    9900012    2    1    2    0    0 -0.13970054551E+02  0.33975034747E+02 -0.26070066206E+02  0.46142314721E+02  0.99999722811E+01 0.  0.
        -12    1    1    2    0    0  0.13970054551E+02 -0.33975034747E+02  0.26070066206E+02  0.45045685279E+02  0.00000000000E+00 0.  1.
         11    1    3    3    0    0 -0.89919244140E+01  0.18908637543E+02 -0.16420047578E+02  0.26608443042E+02  0.51100000000E-03 0. -1.
        -11    1    3    3    0    0 -0.25684902749E+01  0.63009034976E+01 -0.80762034613E+00  0.68520637813E+01  0.51100000000E-03 0.  1.
        -12    1    3    3    0    0 -0.24096398623E+01  0.87654937071E+01 -0.88423982818E+01  0.12681807898E+02  0.00000000000E+00 0.  1.
</event>
<event>
 7    1  0.1486782E-008  0.4614232E+02  0.7816164E-02  0.1320468E+00
        -11   -1    0    0    0    0  0.00000000000E+00  0.00000000000E+00  0.45593999997E+02  0.45594000000E+02  0.51100000000E-03 0.  1.
         11   -1    0    0    0    0 -0.00000000000E+00 -0.00000000000E+00 -0.45593999997E+02  0.45594000000E+02  0.51100000000E-03 0. -1.
    9900012    2    1    2    0    0  0.16496423238E+02 -0.31643305980E+02 -0.27489679428E+02  0.46142320207E+02  0.10000022302E+02 0.  0.
        -12    1    1    2    0    0 -0.16496423238E+02  0.31643305980E+02  0.27489679428E+02  0.45045679793E+02  0.00000000000E+00 0.  1.
         11    1    3    3    0    0  0.79146193270E+01 -0.17386707497E+02 -0.11988152517E+02  0.22553372203E+02  0.51100000000E-03 0. -1.
        -11    1    3    3    0    0  0.36021058039E+01 -0.41131270201E+01 -0.90602828346E+01  0.10582140871E+02  0.51100000000E-03 0.  1.
        -12    1    3    3    0    0  0.49796981070E+01 -0.10143471462E+02 -0.64412440761E+01  0.13006807133E+02  0.00000000000E+00 0.  1.
</event>
<event>
 7    1  0.1486782E-008  0.4614232E+02  0.7816164E-02  0.1320468E+00
        -11   -1    0    0    0    0  0.00000000000E+00  0.00000000000E+00  0.45593999997E+02  0.45594000000E+02  0.51100000000E-03 0.  1.
         11   -1    0    0    0    0 -0.00000000000E+00 -0.00000000000E+00 -0.45593999997E+02  0.45594000000E+02  0.51100000000E-03 0. -1.
    9900012    2    1    2    0    0  0.32332789984E+02  0.31150562381E+02  0.36533324333E+01  0.46142315604E+02  0.99999803273E+01 0.  0.
        -12    1    1    2    0    0 -0.32332789984E+02 -0.31150562381E+02 -0.36533324333E+01  0.45045684396E+02  0.00000000000E+00 0.  1.
         11    1    3    3    0    0  0.13241233957E+02  0.16907093585E+02 -0.34393395168E+00  0.21477857925E+02  0.51100000000E-03 0. -1.
        -11    1    3    3    0    0  0.77659857442E+01  0.43206711551E+01 -0.63720974848E+00  0.89098131481E+01  0.51100000000E-03 0.  1.
        -12    1    3    3    0    0  0.11325570283E+02  0.99227976410E+01  0.46344761335E+01  0.15754644531E+02  0.00000000000E+00 0.  1.
</event>
<event>
 7    1  0.1486782E-008  0.4614232E+02  0.7816164E-02  0.1320468E+00
        -11   -1    0    0    0    0  0.00000000000E+00  0.00000000000E+00  0.45593999997E+02  0.45594000000E+02  0.51100000000E-03 0.  1.
         11   -1    0    0    0    0 -0.00000000000E+00 -0.00000000000E+00 -0.45593999997E+02  0.45594000000E+02  0.51100000000E-03 0. -1.
    9900012    2    1    2    0    0  0.85356985014E+01 -0.36663463432E+02 -0.24739558788E+02  0.46142317979E+02  0.10000001988E+02 0.  0.
        -12    1    1    2    0    0 -0.85356985014E+01  0.36663463432E+02  0.24739558788E+02  0.45045682021E+02  0.00000000000E+00 0.  1.
         11    1    3    3    0    0  0.35674616095E+01 -0.90582223426E+01 -0.31413451140E+01  0.10229673686E+02  0.51100000000E-03 0. -1.
        -11    1    3    3    0    0  0.40392429827E+01 -0.14391375085E+02 -0.81027065581E+01  0.17002382614E+02  0.51100000000E-03 0.  1.
        -12    1    3    3    0    0  0.92899390915E+00 -0.13213866004E+02 -0.13495507116E+02  0.18910261679E+02  0.00000000000E+00 0.  1.
</event>
<event>
 7    1  0.1486782E-008  0.4614232E+02  0.7816164E-02  0.1320468E+00
        -11   -1    0    0    0    0  0.00000000000E+00  0.00000000000E+00  0.45593999997E+02  0.45594000000E+02  0.51100000000E-03 0.  1.
         11   -1    0    0    0    0 -0.00000000000E+00 -0.00000000000E+00 -0.45593999997E+02  0.45594000000E+02  0.51100000000E-03 0. -1.
    9900012    2    1    2    0    0 -0.83103585674E+00  0.13665707873E+02 -0.42914697565E+02  0.46142318083E+02  0.10000002936E+02 0.  0.
        -12    1    1    2    0    0  0.83103585674E+00 -0.13665707873E+02  0.42914697565E+02  0.45045681917E+02  0.00000000000E+00 0.  1.
         11    1    3    3    0    0 -0.16306284908E+01  0.32864862077E+01 -0.50777507476E+01  0.62644627690E+01  0.51100000000E-03 0.  1.
        -11    1    3    3    0    0  0.12762902521E+01  0.39491898028E+01 -0.26605442111E+02  0.26927208676E+02  0.51100000000E-03 0. -1.
        -12    1    3    3    0    0 -0.47669761805E+00  0.64300318622E+01 -0.11231504706E+02  0.12950646638E+02  0.00000000000E+00 0.  1.
</event>
<event>
 7    1  0.1486782E-008  0.4614232E+02  0.7816164E-02  0.1320468E+00
        -11   -1    0    0    0    0  0.00000000000E+00  0.00000000000E+00  0.45593999997E+02  0.45594000000E+02  0.51100000000E-03 0.  1.
         11   -1    0    0    0    0 -0.00000000000E+00 -0.00000000000E+00 -0.45593999997E+02  0.45594000000E+02  0.51100000000E-03 0. -1.
    9900012    2    1    2    0    0 -0.44328871933E+02  0.14867725059E+01 -0.78647379608E+01  0.46142317826E+02  0.10000000587E+02 0.  0.
        -12    1    1    2    0    0  0.44328871933E+02 -0.14867725059E+01  0.78647379608E+01  0.45045682174E+02  0.00000000000E+00 0.  1.
         11    1    3    3    0    0 -0.34232382643E+02  0.84570246148E+00 -0.22446486995E+01  0.34316318015E+02  0.51100000000E-03 0. -1.
        -11    1    3    3    0    0 -0.78737944578E+01  0.15015993297E+01 -0.45000440008E+01  0.91924880191E+01  0.51100000000E-03 0.  1.
         12    1    3    3    0    0 -0.22226948330E+01 -0.86052928525E+00 -0.11200452605E+01  0.26335117917E+01  0.00000000000E+00 0. -1.
</event>
<event>
 7    1  0.1486782E-008  0.4614232E+02  0.7816164E-02  0.1320468E+00
        -11   -1    0    0    0    0  0.00000000000E+00  0.00000000000E+00  0.45593999997E+02  0.45594000000E+02  0.51100000000E-03 0.  1.
         11   -1    0    0    0    0 -0.00000000000E+00 -0.00000000000E+00 -0.45593999997E+02  0.45594000000E+02  0.51100000000E-03 0. -1.
    9900012    2    1    2    0    0  0.19038143066E+02 -0.22861014760E+02 -0.33823610304E+02  0.46142317618E+02  0.99999986966E+01 0.  0.
        -12    1    1    2    0    0 -0.19038143066E+02  0.22861014760E+02  0.33823610304E+02  0.45045682382E+02  0.00000000000E+00 0.  1.
         11    1    3    3    0    0  0.15318860445E+01 -0.24716890886E+01 -0.70097758833E+01  0.75889972986E+01  0.51100000000E-03 0. -1.
        -11    1    3    3    0    0  0.10130540712E+02 -0.13074302766E+02 -0.11889866277E+02  0.20369932947E+02  0.51100000000E-03 0.  1.
         12    1    3    3    0    0  0.73757163100E+01 -0.73150229059E+01 -0.14923968143E+02  0.18183387372E+02  0.00000000000E+00 0. -1.
</event>
<event>
 7    1  0.1486782E-008  0.4614232E+02  0.7816164E-02  0.1320468E+00
        -11   -1    0    0    0    0  0.00000000000E+00  0.00000000000E+00  0.45593999997E+02  0.45594000000E+02  0.51100000000E-03 0. -1.
         11   -1    0    0    0    0 -0.00000000000E+00 -0.00000000000E+00 -0.45593999997E+02  0.45594000000E+02  0.51100000000E-03 0.  1.
    9900012    2    1    2    0    0  0.70847520921E+01  0.42585334619E+02  0.12861144580E+02  0.46142317890E+02  0.10000001175E+02 0.  0.
        -12    1    1    2    0    0 -0.70847520921E+01 -0.42585334619E+02 -0.12861144580E+02  0.45045682110E+02  0.00000000000E+00 0.  1.
         11    1    3    3    0    0  0.36777297483E+01  0.20986102675E+02  0.48769180296E+01  0.21856956131E+02  0.51100000000E-03 0. -1.
        -11    1    3    3    0    0 -0.10439201610E+01  0.26032261158E+00  0.14591286984E-01  0.10759880721E+01  0.51100000000E-03 0.  1.
        -12    1    3    3    0    0  0.44509425047E+01  0.21338909333E+02  0.79696352637E+01  0.23209373687E+02  0.00000000000E+00 0.  1.
</event>
<event>
 7    1  0.1486782E-008  0.4614233E+02  0.7816164E-02  0.1320468E+00
        -11   -1    0    0    0    0  0.00000000000E+00  0.00000000000E+00  0.45593999997E+02  0.45594000000E+02  0.51100000000E-03 0.  1.
         11   -1    0    0    0    0 -0.00000000000E+00 -0.00000000000E+00 -0.45593999997E+02  0.45594000000E+02  0.51100000000E-03 0. -1.
    9900012    2    1    2    0    0 -0.28416330668E+02  0.90159429023E+01 -0.33768885288E+02  0.46142326638E+02  0.10000080946E+02 0.  0.
        -12    1    1    2    0    0  0.28416330668E+02 -0.90159429023E+01  0.33768885288E+02  0.45045673362E+02  0.00000000000E+00 0.  1.
         11    1    3    3    0    0 -0.96820328564E-01 -0.45926567691E+00 -0.33633229720E+01  0.33959153130E+01  0.51100000000E-03 0. -1.
        -11    1    3    3    0    0 -0.37499163890E+01  0.22936160183E+01 -0.35986457770E+01  0.56809153359E+01  0.51100000000E-03 0.  1.
         12    1    3    3    0    0 -0.24569593950E+02  0.71815925609E+01 -0.26806916539E+02  0.37065495989E+02  0.00000000000E+00 0. -1.
</event>
<event>
 7    1  0.1486782E-008  0.4614232E+02  0.7816164E-02  0.1320468E+00
        -11   -1    0    0    0    0  0.00000000000E+00  0.00000000000E+00  0.45593999997E+02  0.45594000000E+02  0.51100000000E-03 0.  1.
         11   -1    0    0    0    0 -0.00000000000E+00 -0.00000000000E+00 -0.45593999997E+02  0.45594000000E+02  0.51100000000E-03 0. -1.
    9900012    2    1    2    0    0  0.32651699441E+01 -0.23274500481E+02 -0.38428502414E+02  0.46142317575E+02  0.99999982988E+01 0.  0.
        -12    1    1    2    0    0 -0.32651699441E+01  0.23274500481E+02  0.38428502414E+02  0.45045682425E+02  0.00000000000E+00 0.  1.
         11    1    3    3    0    0  0.13319980446E+01 -0.18040059341E+02 -0.29475824763E+02  0.34583843129E+02  0.51100000000E-03 0. -1.
        -11    1    3    3    0    0 -0.66970094595E+00 -0.50825147590E+00  0.26179096529E+00  0.88054170282E+00  0.51100000000E-03 0.  1.
        -12    1    3    3    0    0  0.26028728455E+01 -0.47261896640E+01 -0.92144686160E+01  0.10677932743E+02  0.00000000000E+00 0.  1.
</event>
<event>
 7    1  0.1486782E-008  0.4614232E+02  0.7816164E-02  0.1320468E+00
        -11   -1    0    0    0    0  0.00000000000E+00  0.00000000000E+00  0.45593999997E+02  0.45594000000E+02  0.51100000000E-03 0.  1.
         11   -1    0    0    0    0 -0.00000000000E+00 -0.00000000000E+00 -0.45593999997E+02  0.45594000000E+02  0.51100000000E-03 0. -1.
    9900012    2    1    2    0    0 -0.32115174752E+02  0.22418177683E+02 -0.22252063288E+02  0.46142318070E+02  0.10000002816E+02 0.  0.
        -12    1    1    2    0    0  0.32115174752E+02 -0.22418177683E+02  0.22252063288E+02  0.45045681930E+02  0.00000000000E+00 0.  1.
         11    1    3    3    0    0 -0.12533408898E+02  0.12036367048E+02 -0.11634995350E+02  0.20912522263E+02  0.51100000000E-03 0. -1.
        -11    1    3    3    0    0 -0.14203352129E+02  0.10125907743E+02 -0.88696570895E+01  0.19568853734E+02  0.51100000000E-03 0.  1.
        -12    1    3    3    0    0 -0.53784137249E+01  0.25590289222E+00 -0.17474108487E+01  0.56609420736E+01  0.00000000000E+00 0.  1.
</event>
<event>
 7    1  0.1583554E-008  0.4614232E+02  0.7816164E-02  0.1320468E+00
        -11   -1    0    0    0    0  0.00000000000E+00  0.00000000000E+00  0.45593999997E+02  0.45594000000E+02  0.51100000000E-03 0. -1.
         11   -1    0    0    0    0 -0.00000000000E+00 -0.00000000000E+00 -0.45593999997E+02  0.45594000000E+02  0.51100000000E-03 0.  1.
    9900012    2    1    2    0    0 -0.40001026336E+02 -0.20593547676E+02  0.22219783538E+01  0.46142317614E+02  0.99999986572E+01 0.  0.
        -12    1    1    2    0    0  0.40001026336E+02  0.20593547676E+02 -0.22219783538E+01  0.45045682386E+02  0.00000000000E+00 0.  1.
         11    1    3    3    0    0 -0.24986139549E+02 -0.11775820188E+02  0.61222019746E+01  0.28292374732E+02  0.51100000000E-03 0. -1.
        -11    1    3    3    0    0 -0.70623158212E+01 -0.42206550701E+01 -0.20679628037E+01  0.84833191852E+01  0.51100000000E-03 0.  1.
         12    1    3    3    0    0 -0.79525709653E+01 -0.45970724181E+01 -0.18322608171E+01  0.93666236968E+01  0.00000000000E+00 0. -1.
</event>
<event>
 7    1  0.1486782E-008  0.4614232E+02  0.7816164E-02  0.1320468E+00
        -11   -1    0    0    0    0  0.00000000000E+00  0.00000000000E+00  0.45593999997E+02  0.45594000000E+02  0.51100000000E-03 0.  1.
         11   -1    0    0    0    0 -0.00000000000E+00 -0.00000000000E+00 -0.45593999997E+02  0.45594000000E+02  0.51100000000E-03 0. -1.
    9900012    2    1    2    0    0 -0.14184768263E+02  0.29909064386E+02 -0.30550836643E+02  0.46142318712E+02  0.10000008668E+02 0.  0.
        -12    1    1    2    0    0  0.14184768263E+02 -0.29909064386E+02  0.30550836643E+02  0.45045681288E+02  0.00000000000E+00 0.  1.
         11    1    3    3    0    0 -0.27797888433E+01  0.46643848557E+01 -0.10831476490E+02  0.12116294619E+02  0.51100000000E-03 0. -1.
        -11    1    3    3    0    0 -0.10271207151E+02  0.23428040016E+02 -0.17983494547E+02  0.31269423271E+02  0.51100000000E-03 0.  1.
         12    1    3    3    0    0 -0.11337722691E+01  0.18166395143E+01 -0.17358656063E+01  0.27566008210E+01  0.00000000000E+00 0. -1.
</event>
<event>
 7    1  0.1486782E-008  0.4614232E+02  0.7816164E-02  0.1320468E+00
        -11   -1    0    0    0    0  0.00000000000E+00  0.00000000000E+00  0.45593999997E+02  0.45594000000E+02  0.51100000000E-03 0.  1.
         11   -1    0    0    0    0 -0.00000000000E+00 -0.00000000000E+00 -0.45593999997E+02  0.45594000000E+02  0.51100000000E-03 0. -1.
    9900012    2    1    2    0    0 -0.14650327333E+02  0.13334186928E+02 -0.40455910930E+02  0.46142319173E+02  0.10000012878E+02 0.  0.
        -12    1    1    2    0    0  0.14650327333E+02 -0.13334186928E+02  0.40455910930E+02  0.45045680827E+02  0.00000000000E+00 0.  1.
         11    1    3    3    0    0 -0.50462209501E+01  0.82983155845E+01 -0.22488730746E+02  0.24496313973E+02  0.51100000000E-03 0. -1.
        -11    1    3    3    0    0 -0.41049599785E+01 -0.65449094384E+00 -0.60145383984E+01  0.73112055934E+01  0.51100000000E-03 0.  1.
         12    1    3    3    0    0 -0.54991464043E+01  0.56903622875E+01 -0.11952641785E+02  0.14334799607E+02  0.00000000000E+00 0. -1.
</event>
<event>
 7    1  0.1486782E-008  0.4614232E+02  0.7816164E-02  0.1320468E+00
        -11   -1    0    0    0    0  0.00000000000E+00  0.00000000000E+00  0.45593999997E+02  0.45594000000E+02  0.51100000000E-03 0.  1.
         11   -1    0    0    0    0 -0.00000000000E+00 -0.00000000000E+00 -0.45593999997E+02  0.45594000000E+02  0.51100000000E-03 0. -1.
    9900012    2    1    2    0    0 -0.93803285810E+01  0.43465833003E+02 -0.72003034248E+01  0.46142316829E+02  0.99999915011E+01 0.  0.
        -12    1    1    2    0    0  0.93803285810E+01 -0.43465833003E+02  0.72003034248E+01  0.45045683171E+02  0.00000000000E+00 0.  1.
         11    1    3    3    0    0 -0.37897146917E+01  0.16769192823E+02 -0.45774305281E+01  0.17791026836E+02  0.51100000000E-03 0. -1.
        -11    1    3    3    0    0 -0.20224972750E+01  0.18822358311E+02  0.10469268321E+01  0.18959634060E+02  0.51100000000E-03 0.  1.
        -12    1    3    3    0    0 -0.35681166143E+01  0.78742818684E+01 -0.36697997288E+01  0.93916559331E+01  0.00000000000E+00 0.  1.
</event>
<event>
 7    1  0.1486782E-008  0.4614232E+02  0.7816164E-02  0.1320468E+00
        -11   -1    0    0    0    0  0.00000000000E+00  0.00000000000E+00  0.45593999997E+02  0.45594000000E+02  0.51100000000E-03 0.  1.
         11   -1    0    0    0    0 -0.00000000000E+00 -0.00000000000E+00 -0.45593999997E+02  0.45594000000E+02  0.51100000000E-03 0. -1.
    9900012    2    1    2    0    0 -0.62142967279E+01 -0.43840226011E+02 -0.82783234533E+01  0.46142317191E+02  0.99999948007E+01 0.  0.
        -12    1    1    2    0    0  0.62142967279E+01  0.43840226011E+02  0.82783234533E+01  0.45045682809E+02  0.00000000000E+00 0.  1.
         11    1    3    3    0    0 -0.37321802502E+01 -0.16404998941E+02 -0.56735636164E+01  0.17755069249E+02  0.51100000000E-03 0. -1.
        -11    1    3    3    0    0 -0.10543720022E+01 -0.14125525014E+02  0.18371180899E+01  0.14283457578E+02  0.51100000000E-03 0.  1.
         12    1    3    3    0    0 -0.14277444755E+01 -0.13309702056E+02 -0.44418779268E+01  0.14103790364E+02  0.00000000000E+00 0. -1.
</event>
<event>
 7    1  0.1486782E-008  0.4614232E+02  0.7816164E-02  0.1320468E+00
        -11   -1    0    0    0    0  0.00000000000E+00  0.00000000000E+00  0.45593999997E+02  0.45594000000E+02  0.51100000000E-03 0.  1.
         11   -1    0    0    0    0 -0.00000000000E+00 -0.00000000000E+00 -0.45593999997E+02  0.45594000000E+02  0.51100000000E-03 0. -1.
    9900012    2    1    2    0    0  0.35027195653E+02 -0.12636777545E+01 -0.28295091440E+02  0.46142317450E+02  0.99999971673E+01 0.  0.
        -12    1    1    2    0    0 -0.35027195653E+02  0.12636777545E+01  0.28295091440E+02  0.45045682550E+02  0.00000000000E+00 0.  1.
         11    1    3    3    0    0  0.22041499903E+02 -0.58969221975E+00 -0.19351959111E+02  0.29337242144E+02  0.51100000000E-03 0. -1.
        -11    1    3    3    0    0  0.17646309039E+01 -0.20208675371E+01 -0.30403243172E+01  0.40547996306E+01  0.51100000000E-03 0.  1.
        -12    1    3    3    0    0  0.11221064846E+02  0.13468820023E+01 -0.59028080116E+01  0.12750275676E+02  0.00000000000E+00 0.  1.
</event>
<event>
 7    1  0.1486782E-008  0.4614232E+02  0.7816164E-02  0.1320468E+00
        -11   -1    0    0    0    0  0.00000000000E+00  0.00000000000E+00  0.45593999997E+02  0.45594000000E+02  0.51100000000E-03 0. -1.
         11   -1    0    0    0    0 -0.00000000000E+00 -0.00000000000E+00 -0.45593999997E+02  0.45594000000E+02  0.51100000000E-03 0.  1.
    9900012    2    1    2    0    0 -0.20411694251E+02 -0.69876458656E+01  0.39543002595E+02  0.46142317508E+02  0.99999976891E+01 0.  0.
        -12    1    1    2    0    0  0.20411694251E+02  0.69876458656E+01 -0.39543002595E+02  0.45045682492E+02  0.00000000000E+00 0.  1.
         11    1    3    3    0    0 -0.10095134701E+02  0.16372878058E+01  0.15125620173E+02  0.18258610075E+02  0.51100000000E-03 0. -1.
        -11    1    3    3    0    0 -0.61066553944E+01 -0.54798434306E+01  0.14525648965E+02  0.16682757633E+02  0.51100000000E-03 0.  1.
         12    1    3    3    0    0 -0.42099041557E+01 -0.31450902408E+01  0.98917334567E+01  0.11200949799E+02  0.00000000000E+00 0. -1.
</event>
<event>
 7    1  0.1486782E-008  0.4614232E+02  0.7816164E-02  0.1320468E+00
        -11   -1    0    0    0    0  0.00000000000E+00  0.00000000000E+00  0.45593999997E+02  0.45594000000E+02  0.51100000000E-03 0.  1.
         11   -1    0    0    0    0 -0.00000000000E+00 -0.00000000000E+00 -0.45593999997E+02  0.45594000000E+02  0.51100000000E-03 0. -1.
    9900012    2    1    2    0    0 -0.23002268106E+01  0.22118605014E+02 -0.39173841150E+02  0.46142316948E+02  0.99999925855E+01 0.  0.
        -12    1    1    2    0    0  0.23002268106E+01 -0.22118605014E+02  0.39173841150E+02  0.45045683052E+02  0.00000000000E+00 0.  1.
         11    1    3    3    0    0 -0.32898250038E+01  0.48302784839E+01 -0.12056245446E+02  0.13398044384E+02  0.51100000000E-03 0. -1.
        -11    1    3    3    0    0  0.29382988147E+01  0.81590522514E+01 -0.99171175660E+01  0.13173949850E+02  0.51100000000E-03 0.  1.
        -12    1    3    3    0    0 -0.19487006215E+01  0.91292742788E+01 -0.17200478138E+02  0.19570322714E+02  0.00000000000E+00 0.  1.
</event>
<event>
 7    1  0.1486782E-008  0.4614232E+02  0.7816164E-02  0.1320468E+00
        -11   -1    0    0    0    0  0.00000000000E+00  0.00000000000E+00  0.45593999997E+02  0.45594000000E+02  0.51100000000E-03 0. -1.
         11   -1    0    0    0    0 -0.00000000000E+00 -0.00000000000E+00 -0.45593999997E+02  0.45594000000E+02  0.51100000000E-03 0.  1.
    9900012    2    1    2    0    0 -0.40516500489E+02  0.19673229111E+02 -0.70045505573E+00  0.46142318822E+02  0.10000009672E+02 0.  0.
        -12    1    1    2    0    0  0.40516500489E+02 -0.19673229111E+02  0.70045505573E+00  0.45045681178E+02  0.00000000000E+00 0.  1.
         11    1    3    3    0    0 -0.81200760126E+01  0.27017629904E+01  0.20441188283E+01  0.87984987215E+01  0.51100000000E-03 0. -1.
        -11    1    3    3    0    0 -0.28022661809E+02  0.11643341807E+02 -0.20197836402E+01  0.30412440045E+02  0.51100000000E-03 0.  1.
        -12    1    3    3    0    0 -0.43737626678E+01  0.53281243131E+01 -0.72479024376E+00  0.69313800551E+01  0.00000000000E+00 0.  1.
</event>
<event>
 7    1  0.1486782E-008  0.4614232E+02  0.7816164E-02  0.1320468E+00
        -11   -1    0    0    0    0  0.00000000000E+00  0.00000000000E+00  0.45593999997E+02  0.45594000000E+02  0.51100000000E-03 0. -1.
         11   -1    0    0    0    0 -0.00000000000E+00 -0.00000000000E+00 -0.45593999997E+02  0.45594000000E+02  0.51100000000E-03 0.  1.
    9900012    2    1    2    0    0  0.27043359527E+02 -0.15530430587E+02  0.32505009457E+02  0.46142320867E+02  0.10000028325E+02 0.  0.
        -12    1    1    2    0    0 -0.27043359527E+02  0.15530430587E+02 -0.32505009457E+02  0.45045679133E+02  0.00000000000E+00 0.  1.
         11    1    3    3    0    0  0.18760866346E+01 -0.80955572719E+00  0.37423408453E+00  0.20772898082E+01  0.51100000000E-03 0. -1.
        -11    1    3    3    0    0  0.52039582038E+01 -0.60954897393E+00  0.89740066260E+01  0.10391608447E+02  0.51100000000E-03 0.  1.
         12    1    3    3    0    0  0.19963314688E+02 -0.14111325885E+02  0.23156768747E+02  0.33673422612E+02  0.00000000000E+00 0. -1.
</event>
<event>
 7    1  0.1486782E-008  0.4614232E+02  0.7816164E-02  0.1320468E+00
        -11   -1    0    0    0    0  0.00000000000E+00  0.00000000000E+00  0.45593999997E+02  0.45594000000E+02  0.51100000000E-03 0.  1.
         11   -1    0    0    0    0 -0.00000000000E+00 -0.00000000000E+00 -0.45593999997E+02  0.45594000000E+02  0.51100000000E-03 0. -1.
    9900012    2    1    2    0    0  0.37742147810E+02  0.12501995963E+01 -0.24557704441E+02  0.46142316880E+02  0.99999919669E+01 0.  0.
        -12    1    1    2    0    0 -0.37742147810E+02 -0.12501995963E+01  0.24557704441E+02  0.45045683120E+02  0.00000000000E+00 0.  1.
         11    1    3    3    0    0  0.13906435721E+02 -0.14649260481E+01 -0.11501613842E+02  0.18105857727E+02  0.51100000000E-03 0. -1.
        -11    1    3    3    0    0  0.35014794186E+01  0.62653364478E-01 -0.47737195335E+01  0.59205305512E+01  0.51100000000E-03 0.  1.
        -12    1    3    3    0    0  0.20334232670E+02  0.26524722800E+01 -0.82823710659E+01  0.22115928602E+02  0.00000000000E+00 0.  1.
</event>
<event>
 7    1  0.1486782E-008  0.4614232E+02  0.7816164E-02  0.1320468E+00
        -11   -1    0    0    0    0  0.00000000000E+00  0.00000000000E+00  0.45593999997E+02  0.45594000000E+02  0.51100000000E-03 0.  1.
         11   -1    0    0    0    0 -0.00000000000E+00 -0.00000000000E+00 -0.45593999997E+02  0.45594000000E+02  0.51100000000E-03 0. -1.
    9900012    2    1    2    0    0  0.24960703375E+02 -0.24723278111E+02 -0.28192840992E+02  0.46142317890E+02  0.10000001174E+02 0.  0.
        -12    1    1    2    0    0 -0.24960703375E+02  0.24723278111E+02  0.28192840992E+02  0.45045682110E+02  0.00000000000E+00 0.  1.
         11    1    3    3    0    0  0.11698908134E+02 -0.62970371667E+01 -0.93991612969E+01  0.16274561805E+02  0.51100000000E-03 0. -1.
        -11    1    3    3    0    0  0.38170365409E+01 -0.80642222897E+01 -0.51361119217E+01  0.10294711993E+02  0.51100000000E-03 0.  1.
         12    1    3    3    0    0  0.94447587005E+01 -0.10362018655E+02 -0.13657567774E+02  0.19573044091E+02  0.00000000000E+00 0. -1.
</event>
<event>
 7    1  0.1486782E-008  0.4614232E+02  0.7816164E-02  0.1320468E+00
        -11   -1    0    0    0    0  0.00000000000E+00  0.00000000000E+00  0.45593999997E+02  0.45594000000E+02  0.51100000000E-03 0. -1.
         11   -1    0    0    0    0 -0.00000000000E+00 -0.00000000000E+00 -0.45593999997E+02  0.45594000000E+02  0.51100000000E-03 0.  1.
    9900012    2    1    2    0    0 -0.23714533090E+02 -0.73556926679E+01  0.37584949324E+02  0.46142315301E+02  0.99999775689E+01 0.  0.
        -12    1    1    2    0    0  0.23714533090E+02  0.73556926679E+01 -0.37584949324E+02  0.45045684699E+02  0.00000000000E+00 0.  1.
         11    1    3    3    0    0 -0.43658218602E+01 -0.31632521181E+01  0.11043160280E+02  0.12288936232E+02  0.51100000000E-03 0. -1.
        -11    1    3    3    0    0 -0.15276072002E+01  0.12664510060E+01  0.96667833266E+00  0.22072492312E+01  0.51100000000E-03 0.  1.
        -12    1    3    3    0    0 -0.17821104029E+02 -0.54588915558E+01  0.25575110711E+02  0.31646129838E+02  0.00000000000E+00 0.  1.
</event>
<event>
 7    1  0.1486782E-008  0.4614232E+02  0.7816164E-02  0.1320468E+00
        -11   -1    0    0    0    0  0.00000000000E+00  0.00000000000E+00  0.45593999997E+02  0.45594000000E+02  0.51100000000E-03 0.  1.
         11   -1    0    0    0    0 -0.00000000000E+00 -0.00000000000E+00 -0.45593999997E+02  0.45594000000E+02  0.51100000000E-03 0. -1.
    9900012    2    1    2    0    0  0.45917386359E+01  0.35301703704E+02 -0.27601070773E+02  0.46142318121E+02  0.10000003279E+02 0.  0.
        -12    1    1    2    0    0 -0.45917386359E+01 -0.35301703704E+02  0.27601070773E+02  0.45045681879E+02  0.00000000000E+00 0.  1.
         11    1    3    3    0    0  0.26541250719E+01  0.37072171477E+01 -0.65555031424E+01  0.79851399856E+01  0.51100000000E-03 0. -1.
        -11    1    3    3    0    0  0.10592611488E+01  0.55456696845E+01 -0.25335102387E+01  0.61883083974E+01  0.51100000000E-03 0.  1.
         12    1    3    3    0    0  0.87835241513E+00  0.26048816872E+02 -0.18512057392E+02  0.31968869738E+02  0.00000000000E+00 0. -1.
</event>
<event>
 7    1  0.1486782E-008  0.4614232E+02  0.7816164E-02  0.1320468E+00
        -11   -1    0    0    0    0  0.00000000000E+00  0.00000000000E+00  0.45593999997E+02  0.45594000000E+02  0.51100000000E-03 0. -1.
         11   -1    0    0    0    0 -0.00000000000E+00 -0.00000000000E+00 -0.45593999997E+02  0.45594000000E+02  0.51100000000E-03 0.  1.
    9900012    2    1    2    0    0  0.15781476202E+02  0.40666596909E+02  0.11237718629E+02  0.46142318572E+02  0.10000007395E+02 0.  0.
        -12    1    1    2    0    0 -0.15781476202E+02 -0.40666596909E+02 -0.11237718629E+02  0.45045681428E+02  0.00000000000E+00 0.  1.
         11    1    3    3    0    0  0.28236695301E+01  0.10114038530E+02  0.42735217869E+01  0.11337101646E+02  0.51100000000E-03 0. -1.
        -11    1    3    3    0    0  0.75453021686E+01  0.24293829037E+02  0.74776057280E+01  0.26514831732E+02  0.51100000000E-03 0.  1.
        -12    1    3    3    0    0  0.54125045037E+01  0.62587293420E+01 -0.51340888567E+00  0.82903851939E+01  0.00000000000E+00 0.  1.
</event>
<event>
 7    1  0.1486782E-008  0.4614232E+02  0.7816164E-02  0.1320468E+00
        -11   -1    0    0    0    0  0.00000000000E+00  0.00000000000E+00  0.45593999997E+02  0.45594000000E+02  0.51100000000E-03 0. -1.
         11   -1    0    0    0    0 -0.00000000000E+00 -0.00000000000E+00 -0.45593999997E+02  0.45594000000E+02  0.51100000000E-03 0.  1.
    9900012    2    1    2    0    0  0.96864616400E+01 -0.13248243162E+02  0.41949613612E+02  0.46142316875E+02  0.99999919235E+01 0.  0.
        -12    1    1    2    0    0 -0.96864616400E+01  0.13248243162E+02 -0.41949613612E+02  0.45045683125E+02  0.00000000000E+00 0.  1.
         11    1    3    3    0    0  0.40129001662E+01 -0.52739210654E+01  0.25824822455E+02  0.26661565337E+02  0.51100000000E-03 0. -1.
        -11    1    3    3    0    0  0.28815939659E+01 -0.66974242065E+01  0.81496013174E+01  0.10935038943E+02  0.51100000000E-03 0.  1.
         12    1    3    3    0    0  0.27919675080E+01 -0.12768978904E+01  0.79751898398E+01  0.85457125957E+01  0.00000000000E+00 0. -1.
</event>
<event>
 7    1  0.1899697E-008  0.4614232E+02  0.7816164E-02  0.1320468E+00
        -11   -1    0    0    0    0  0.00000000000E+00  0.00000000000E+00  0.45593999997E+02  0.45594000000E+02  0.51100000000E-03 0. -1.
         11   -1    0    0    0    0 -0.00000000000E+00 -0.00000000000E+00 -0.45593999997E+02  0.45594000000E+02  0.51100000000E-03 0.  1.
    9900012    2    1    2    0    0  0.25064751529E+02 -0.21782956812E+02  0.30436401278E+02  0.46142317639E+02  0.99999988837E+01 0.  0.
        -12    1    1    2    0    0 -0.25064751529E+02  0.21782956812E+02 -0.30436401278E+02  0.45045682361E+02  0.00000000000E+00 0.  1.
         11    1    3    3    0    0  0.20315298999E+02 -0.18909945703E+02  0.27936638964E+02  0.39379604071E+02  0.51100000000E-03 0. -1.
        -11    1    3    3    0    0  0.40982188481E+01 -0.11416328014E+01  0.24561991381E+01  0.49123963243E+01  0.51100000000E-03 0.  1.
         12    1    3    3    0    0  0.65123368111E+00 -0.17313783076E+01  0.43563175825E-01  0.18503172435E+01  0.00000000000E+00 0. -1.
</event>
<event>
 7    1  0.1486782E-008  0.4614233E+02  0.7816164E-02  0.1320468E+00
        -11   -1    0    0    0    0  0.00000000000E+00  0.00000000000E+00  0.45593999997E+02  0.45594000000E+02  0.51100000000E-03 0.  1.
         11   -1    0    0    0    0 -0.00000000000E+00 -0.00000000000E+00 -0.45593999997E+02  0.45594000000E+02  0.51100000000E-03 0. -1.
    9900012    2    1    2    0    0  0.13589080525E+02 -0.33169717546E+02 -0.27280383364E+02  0.46142327754E+02  0.10000091126E+02 0.  0.
        -12    1    1    2    0    0 -0.13589080525E+02  0.33169717546E+02  0.27280383364E+02  0.45045672246E+02  0.00000000000E+00 0.  1.
         11    1    3    3    0    0  0.44650536520E+01 -0.16191961782E+02 -0.13079346188E+02  0.21288156976E+02  0.51100000000E-03 0. -1.
        -11    1    3    3    0    0  0.43419902598E+01 -0.24498215040E+01 -0.46812523315E+01  0.68387592786E+01  0.51100000000E-03 0.  1.
         12    1    3    3    0    0  0.47820366134E+01 -0.14527934260E+02 -0.95197848440E+01  0.18015411500E+02  0.00000000000E+00 0. -1.
</event>
<event>
 7    1  0.1486782E-008  0.4614232E+02  0.7816164E-02  0.1320468E+00
        -11   -1    0    0    0    0  0.00000000000E+00  0.00000000000E+00  0.45593999997E+02  0.45594000000E+02  0.51100000000E-03 0.  1.
         11   -1    0    0    0    0 -0.00000000000E+00 -0.00000000000E+00 -0.45593999997E+02  0.45594000000E+02  0.51100000000E-03 0. -1.
    9900012    2    1    2    0    0  0.44517570846E+02 -0.68318703562E+01 -0.79040670237E+00  0.46142319748E+02  0.10000018120E+02 0.  0.
        -12    1    1    2    0    0 -0.44517570846E+02  0.68318703562E+01  0.79040670237E+00  0.45045680252E+02  0.00000000000E+00 0.  1.
         11    1    3    3    0    0  0.18816370551E+02 -0.61488929200E+01 -0.29082839436E+01  0.20008068387E+02  0.51100000000E-03 0. -1.
        -11    1    3    3    0    0  0.20163720476E+02 -0.10923000829E+01  0.50945810692E-02  0.20193285248E+02  0.51100000000E-03 0.  1.
         12    1    3    3    0    0  0.55374798197E+01  0.40932264663E+00  0.21127826601E+01  0.59409661126E+01  0.00000000000E+00 0. -1.
</event>
<event>
 7    1  0.1486782E-008  0.4614232E+02  0.7816164E-02  0.1320468E+00
        -11   -1    0    0    0    0  0.00000000000E+00  0.00000000000E+00  0.45593999997E+02  0.45594000000E+02  0.51100000000E-03 0.  1.
         11   -1    0    0    0    0 -0.00000000000E+00 -0.00000000000E+00 -0.45593999997E+02  0.45594000000E+02  0.51100000000E-03 0. -1.
    9900012    2    1    2    0    0  0.26935389964E+01  0.15362680092E+02 -0.42259276620E+02  0.46142317051E+02  0.99999935223E+01 0.  0.
        -12    1    1    2    0    0 -0.26935389964E+01 -0.15362680092E+02  0.42259276620E+02  0.45045682949E+02  0.00000000000E+00 0.  1.
         11    1    3    3    0    0  0.54257950651E+00  0.15116368121E+00 -0.12632230576E+02  0.12644781239E+02  0.51100000000E-03 0. -1.
        -11    1    3    3    0    0  0.21814202277E+01  0.14266949425E+02 -0.25872180649E+02  0.29625566187E+02  0.51100000000E-03 0.  1.
         12    1    3    3    0    0 -0.30460737735E-01  0.94456698604E+00 -0.37548653942E+01  0.38719696249E+01  0.00000000000E+00 0. -1.
</event>
<event>
 7    1  0.1486782E-008  0.4614232E+02  0.7816164E-02  0.1320468E+00
        -11   -1    0    0    0    0  0.00000000000E+00  0.00000000000E+00  0.45593999997E+02  0.45594000000E+02  0.51100000000E-03 0. -1.
         11   -1    0    0    0    0 -0.00000000000E+00 -0.00000000000E+00 -0.45593999997E+02  0.45594000000E+02  0.51100000000E-03 0.  1.
    9900012    2    1    2    0    0 -0.11182025164E+02  0.18586278888E+02  0.39479438784E+02  0.46142317229E+02  0.99999951440E+01 0.  0.
        -12    1    1    2    0    0  0.11182025164E+02 -0.18586278888E+02 -0.39479438784E+02  0.45045682771E+02  0.00000000000E+00 0.  1.
         11    1    3    3    0    0 -0.44893379960E+01  0.73310849316E+01  0.16647811078E+02  0.18736290344E+02  0.51100000000E-03 0. -1.
        -11    1    3    3    0    0 -0.18305356049E+01  0.23837428984E+01  0.12840400038E+02  0.13187454804E+02  0.51100000000E-03 0.  1.
        -12    1    3    3    0    0 -0.48621515634E+01  0.88714510580E+01  0.99912276676E+01  0.14218572080E+02  0.00000000000E+00 0.  1.
</event>
<event>
 7    1  0.1486782E-008  0.4614232E+02  0.7816164E-02  0.1320468E+00
        -11   -1    0    0    0    0  0.00000000000E+00  0.00000000000E+00  0.45593999997E+02  0.45594000000E+02  0.51100000000E-03 0.  1.
         11   -1    0    0    0    0 -0.00000000000E+00 -0.00000000000E+00 -0.45593999997E+02  0.45594000000E+02  0.51100000000E-03 0. -1.
    9900012    2    1    2    0    0  0.11743257253E+01 -0.25134337920E+02 -0.37363077516E+02  0.46142317132E+02  0.99999942618E+01 0.  0.
        -12    1    1    2    0    0 -0.11743257253E+01  0.25134337920E+02  0.37363077516E+02  0.45045682868E+02  0.00000000000E+00 0.  1.
         11    1    3    3    0    0 -0.37301742220E+00 -0.20352640113E+02 -0.31608252045E+02  0.37595886733E+02  0.51100000000E-03 0. -1.
        -11    1    3    3    0    0  0.17986343611E+01 -0.40457181946E+00 -0.10767910352E+01  0.21350042428E+01  0.51100000000E-03 0.  1.
         12    1    3    3    0    0 -0.25129121354E+00 -0.43771259870E+01 -0.46780344357E+01  0.64114261566E+01  0.00000000000E+00 0. -1.
</event>
<event>
 7    1  0.1486782E-008  0.4614232E+02  0.7816164E-02  0.1320468E+00
        -11   -1    0    0    0    0  0.00000000000E+00  0.00000000000E+00  0.45593999997E+02  0.45594000000E+02  0.51100000000E-03 0.  1.
         11   -1    0    0    0    0 -0.00000000000E+00 -0.00000000000E+00 -0.45593999997E+02  0.45594000000E+02  0.51100000000E-03 0. -1.
    9900012    2    1    2    0    0 -0.17653040754E+02 -0.40519775028E+02 -0.86966344449E+01  0.46142318000E+02  0.10000002175E+02 0.  0.
        -12    1    1    2    0    0  0.17653040754E+02  0.40519775028E+02  0.86966344449E+01  0.45045682000E+02  0.00000000000E+00 0.  1.
         11    1    3    3    0    0 -0.75624444179E+01 -0.79393508326E+01 -0.20057834049E+01  0.11146614937E+02  0.51100000000E-03 0. -1.
        -11    1    3    3    0    0 -0.71857575534E+01 -0.27924542320E+02 -0.50980809158E+01  0.29281489113E+02  0.51100000000E-03 0.  1.
        -12    1    3    3    0    0 -0.29048387831E+01 -0.46558818754E+01 -0.15927701242E+01  0.57142139496E+01  0.00000000000E+00 0.  1.
</event>
<event>
 7    1  0.1486782E-008  0.4614232E+02  0.7816164E-02  0.1320468E+00
        -11   -1    0    0    0    0  0.00000000000E+00  0.00000000000E+00  0.45593999997E+02  0.45594000000E+02  0.51100000000E-03 0. -1.
         11   -1    0    0    0    0 -0.00000000000E+00 -0.00000000000E+00 -0.45593999997E+02  0.45594000000E+02  0.51100000000E-03 0.  1.
    9900012    2    1    2    0    0 -0.28484579587E+02 -0.81710519494E+01  0.33926034550E+02  0.46142321134E+02  0.10000030759E+02 0.  0.
        -12    1    1    2    0    0  0.28484579587E+02  0.81710519494E+01 -0.33926034550E+02  0.45045678866E+02  0.00000000000E+00 0.  1.
         11    1    3    3    0    0 -0.27546702124E+01 -0.71297013166E+00  0.11410998229E+00  0.28477281712E+01  0.51100000000E-03 0. -1.
        -11    1    3    3    0    0 -0.10832149990E+02 -0.12676029341E+01  0.13858457774E+02  0.17635167783E+02  0.51100000000E-03 0.  1.
         12    1    3    3    0    0 -0.14897759385E+02 -0.61904788836E+01  0.19953466793E+02  0.25659425180E+02  0.00000000000E+00 0. -1.
</event>
<event>
 7    1  0.1486782E-008  0.4614232E+02  0.7816164E-02  0.1320468E+00
        -11   -1    0    0    0    0  0.00000000000E+00  0.00000000000E+00  0.45593999997E+02  0.45594000000E+02  0.51100000000E-03 0. -1.
         11   -1    0    0    0    0 -0.00000000000E+00 -0.00000000000E+00 -0.45593999997E+02  0.45594000000E+02  0.51100000000E-03 0.  1.
    9900012    2    1    2    0    0  0.24889157265E+02 -0.35946441611E+02  0.10839589245E+02  0.46142317534E+02  0.99999979291E+01 0.  0.
        -12    1    1    2    0    0 -0.24889157265E+02  0.35946441611E+02 -0.10839589245E+02  0.45045682466E+02  0.00000000000E+00 0.  1.
         11    1    3    3    0    0  0.81413849491E+01 -0.15906463223E+02  0.66683169569E+01  0.19072602666E+02  0.51100000000E-03 0. -1.
        -11    1    3    3    0    0  0.16898881931E+02 -0.19327673532E+02  0.32244024715E+01  0.25875238090E+02  0.51100000000E-03 0.  1.
        -12    1    3    3    0    0 -0.15110961507E+00 -0.71230485579E+00  0.94686981642E+00  0.11944767778E+01  0.00000000000E+00 0.  1.
</event>
<event>
 7    1  0.1486782E-008  0.4614232E+02  0.7816164E-02  0.1320468E+00
        -11   -1    0    0    0    0  0.00000000000E+00  0.00000000000E+00  0.45593999997E+02  0.45594000000E+02  0.51100000000E-03 0. -1.
         11   -1    0    0    0    0 -0.00000000000E+00 -0.00000000000E+00 -0.45593999997E+02  0.45594000000E+02  0.51100000000E-03 0.  1.
    9900012    2    1    2    0    0  0.23330645482E+02 -0.13415591637E+02  0.36122240424E+02  0.46142319066E+02  0.10000011897E+02 0.  0.
        -12    1    1    2    0    0 -0.23330645482E+02  0.13415591637E+02 -0.36122240424E+02  0.45045680934E+02  0.00000000000E+00 0.  1.
         11    1    3    3    0    0  0.27921481005E+01 -0.29814179527E+01  0.11475529759E+02  0.12180834435E+02  0.51100000000E-03 0.  1.
        -11    1    3    3    0    0  0.16928800643E+02 -0.73666040344E+01  0.21144945104E+02  0.28070622543E+02  0.51100000000E-03 0. -1.
        -12    1    3    3    0    0  0.36096967383E+01 -0.30675696497E+01  0.35017655612E+01  0.58908620883E+01  0.00000000000E+00 0.  1.
</event>
<event>
 7    1  0.1486782E-008  0.4614232E+02  0.7816164E-02  0.1320468E+00
        -11   -1    0    0    0    0  0.00000000000E+00  0.00000000000E+00  0.45593999997E+02  0.45594000000E+02  0.51100000000E-03 0.  1.
         11   -1    0    0    0    0 -0.00000000000E+00 -0.00000000000E+00 -0.45593999997E+02  0.45594000000E+02  0.51100000000E-03 0. -1.
    9900012    2    1    2    0    0  0.39188761271E+02 -0.21957686988E+02  0.33488024057E+01  0.46142317572E+02  0.99999982752E+01 0.  0.
        -12    1    1    2    0    0 -0.39188761271E+02  0.21957686988E+02 -0.33488024057E+01  0.45045682428E+02  0.00000000000E+00 0.  1.
         11    1    3    3    0    0  0.18489307850E+02 -0.14873109891E+02  0.37338188637E+01  0.24020934748E+02  0.51100000000E-03 0. -1.
        -11    1    3    3    0    0  0.20203769147E+02 -0.65612613782E+01 -0.85708263104E+00  0.21259751398E+02  0.51100000000E-03 0.  1.
        -12    1    3    3    0    0  0.49568427359E+00 -0.52331571958E+00  0.47206617297E+00  0.86163142532E+00  0.00000000000E+00 0.  1.
</event>
<event>
 7    1  0.1486782E-008  0.4614232E+02  0.7816164E-02  0.1320468E+00
        -11   -1    0    0    0    0  0.00000000000E+00  0.00000000000E+00  0.45593999997E+02  0.45594000000E+02  0.51100000000E-03 0.  1.
         11   -1    0    0    0    0 -0.00000000000E+00 -0.00000000000E+00 -0.45593999997E+02  0.45594000000E+02  0.51100000000E-03 0. -1.
    9900012    2    1    2    0    0 -0.21309986804E+02 -0.39642810548E+02 -0.18562046124E+01  0.46142318062E+02  0.10000002743E+02 0.  0.
        -12    1    1    2    0    0  0.21309986804E+02  0.39642810548E+02  0.18562046124E+01  0.45045681938E+02  0.00000000000E+00 0.  1.
         11    1    3    3    0    0 -0.42598819973E+01 -0.13771203594E+02  0.18068446173E+00  0.14416146856E+02  0.51100000000E-03 0. -1.
        -11    1    3    3    0    0 -0.26869773780E+01 -0.25286886779E+01  0.17039699781E+01  0.40641884561E+01  0.51100000000E-03 0.  1.
         12    1    3    3    0    0 -0.14363127428E+02 -0.23342918276E+02 -0.37408590522E+01  0.27661982749E+02  0.00000000000E+00 0. -1.
</event>
<event>
 7    1  0.1486782E-008  0.4614232E+02  0.7816164E-02  0.1320468E+00
        -11   -1    0    0    0    0  0.00000000000E+00  0.00000000000E+00  0.45593999997E+02  0.45594000000E+02  0.51100000000E-03 0. -1.
         11   -1    0    0    0    0 -0.00000000000E+00 -0.00000000000E+00 -0.45593999997E+02  0.45594000000E+02  0.51100000000E-03 0.  1.
    9900012    2    1    2    0    0 -0.49983383067E+01  0.40692975844E+02  0.18660431945E+02  0.46142318862E+02  0.10000010034E+02 0.  0.
        -12    1    1    2    0    0  0.49983383067E+01 -0.40692975844E+02 -0.18660431945E+02  0.45045681138E+02  0.00000000000E+00 0.  1.
         11    1    3    3    0    0  0.10518504381E+01  0.30344178128E+01 -0.33615113515E+00  0.32290987370E+01  0.51100000000E-03 0. -1.
        -11    1    3    3    0    0 -0.73512169340E+00  0.46219520330E+00  0.16422288812E+00  0.88374075846E+00  0.51100000000E-03 0.  1.
         12    1    3    3    0    0 -0.53150670514E+01  0.37196362828E+02  0.18832360192E+02  0.42029479366E+02  0.00000000000E+00 0. -1.
</event>
<event>
 7    1  0.1486782E-008  0.4614232E+02  0.7816164E-02  0.1320468E+00
        -11   -1    0    0    0    0  0.00000000000E+00  0.00000000000E+00  0.45593999997E+02  0.45594000000E+02  0.51100000000E-03 0.  1.
         11   -1    0    0    0    0 -0.00000000000E+00 -0.00000000000E+00 -0.45593999997E+02  0.45594000000E+02  0.51100000000E-03 0. -1.
    9900012    2    1    2    0    0 -0.38670655148E+01  0.12193131238E+02 -0.43191281145E+02  0.46142318609E+02  0.10000007729E+02 0.  0.
        -12    1    1    2    0    0  0.38670655148E+01 -0.12193131238E+02  0.43191281145E+02  0.45045681391E+02  0.00000000000E+00 0.  1.
         11    1    3    3    0    0  0.26635816614E+01  0.10252454478E+01 -0.61316475309E+01  0.67633495547E+01  0.51100000000E-03 0. -1.
        -11    1    3    3    0    0 -0.61484748507E+01  0.94411269004E+01 -0.28657182999E+02  0.30792413966E+02  0.51100000000E-03 0.  1.
        -12    1    3    3    0    0 -0.38217232557E+00  0.17267588899E+01 -0.84024506147E+01  0.85865550882E+01  0.00000000000E+00 0.  1.
</event>
<event>
 7    1  0.1486782E-008  0.4614232E+02  0.7816164E-02  0.1320468E+00
        -11   -1    0    0    0    0  0.00000000000E+00  0.00000000000E+00  0.45593999997E+02  0.45594000000E+02  0.51100000000E-03 0. -1.
         11   -1    0    0    0    0 -0.00000000000E+00 -0.00000000000E+00 -0.45593999997E+02  0.45594000000E+02  0.51100000000E-03 0.  1.
    9900012    2    1    2    0    0  0.54909572812E+01 -0.39220497182E+02 -0.21464283969E+02  0.46142317661E+02  0.99999990849E+01 0.  0.
        -12    1    1    2    0    0 -0.54909572812E+01  0.39220497182E+02  0.21464283969E+02  0.45045682339E+02  0.00000000000E+00 0.  1.
         11    1    3    3    0    0  0.21734857903E+00 -0.10716294642E+02 -0.77774093017E+01  0.13242896472E+02  0.51100000000E-03 0. -1.
        -11    1    3    3    0    0  0.15788238306E+00 -0.17438201545E+02 -0.10270328708E+02  0.20238464665E+02  0.51100000000E-03 0.  1.
        -12    1    3    3    0    0  0.51157263191E+01 -0.11066000996E+02 -0.34165459598E+01  0.12660956524E+02  0.00000000000E+00 0.  1.
</event>
<event>
 7    1  0.1486782E-008  0.4614232E+02  0.7816164E-02  0.1320468E+00
        -11   -1    0    0    0    0  0.00000000000E+00  0.00000000000E+00  0.45593999997E+02  0.45594000000E+02  0.51100000000E-03 0.  1.
         11   -1    0    0    0    0 -0.00000000000E+00 -0.00000000000E+00 -0.45593999997E+02  0.45594000000E+02  0.51100000000E-03 0. -1.
    9900012    2    1    2    0    0  0.11521624923E+02 -0.34624277287E+02 -0.26410700206E+02  0.46142317589E+02  0.99999984323E+01 0.  0.
        -12    1    1    2    0    0 -0.11521624923E+02  0.34624277287E+02  0.26410700206E+02  0.45045682411E+02  0.00000000000E+00 0.  1.
         11    1    3    3    0    0  0.20884016151E+01 -0.10336369034E+02 -0.11485975906E+02  0.15592613279E+02  0.51100000000E-03 0. -1.
        -11    1    3    3    0    0  0.92605722400E+01 -0.17218199196E+02 -0.11628098649E+02  0.22747247310E+02  0.51100000000E-03 0.  1.
        -12    1    3    3    0    0  0.17265106771E+00 -0.70697090571E+01 -0.32966256516E+01  0.78024569995E+01  0.00000000000E+00 0.  1.
</event>
<event>
 7    1  0.1486782E-008  0.4614232E+02  0.7816164E-02  0.1320468E+00
        -11   -1    0    0    0    0  0.00000000000E+00  0.00000000000E+00  0.45593999997E+02  0.45594000000E+02  0.51100000000E-03 0.  1.
         11   -1    0    0    0    0 -0.00000000000E+00 -0.00000000000E+00 -0.45593999997E+02  0.45594000000E+02  0.51100000000E-03 0. -1.
    9900012    2    1    2    0    0  0.35315480774E+01  0.42223087381E+02  0.15292237600E+02  0.46142317958E+02  0.10000001799E+02 0.  0.
        -12    1    1    2    0    0 -0.35315480774E+01 -0.42223087381E+02 -0.15292237600E+02  0.45045682042E+02  0.00000000000E+00 0.  1.
         11    1    3    3    0    0  0.24090157044E+01  0.15301155010E+02  0.31401650975E+01  0.15804725192E+02  0.51100000000E-03 0. -1.
        -11    1    3    3    0    0  0.72109941136E+00  0.11509873068E+02  0.89337577479E+01  0.14587981017E+02  0.51100000000E-03 0.  1.
        -12    1    3    3    0    0  0.40143296164E+00  0.15412059303E+02  0.32183147542E+01  0.15749611749E+02  0.00000000000E+00 0.  1.
</event>
<event>
 7    1  0.1486782E-008  0.4614232E+02  0.7816164E-02  0.1320468E+00
        -11   -1    0    0    0    0  0.00000000000E+00  0.00000000000E+00  0.45593999997E+02  0.45594000000E+02  0.51100000000E-03 0.  1.
         11   -1    0    0    0    0 -0.00000000000E+00 -0.00000000000E+00 -0.45593999997E+02  0.45594000000E+02  0.51100000000E-03 0. -1.
    9900012    2    1    2    0    0 -0.13686557104E+02 -0.41651416953E+02 -0.10341720580E+02  0.46142316921E+02  0.99999923359E+01 0.  0.
        -12    1    1    2    0    0  0.13686557104E+02  0.41651416953E+02  0.10341720580E+02  0.45045683079E+02  0.00000000000E+00 0.  1.
         11    1    3    3    0    0 -0.60564665677E+01 -0.19855858255E+02 -0.49172684427E+01  0.21333434406E+02  0.51100000000E-03 0. -1.
        -11    1    3    3    0    0 -0.55358914517E+01 -0.19793889548E+02 -0.25211778985E+01  0.20707498541E+02  0.51100000000E-03 0.  1.
        -12    1    3    3    0    0 -0.20941990843E+01 -0.20016691497E+01 -0.29032742393E+01  0.41013839735E+01  0.00000000000E+00 0.  1.
</event>
<event>
 7    1  0.1486782E-008  0.4614232E+02  0.7816164E-02  0.1320468E+00
        -11   -1    0    0    0    0  0.00000000000E+00  0.00000000000E+00  0.45593999997E+02  0.45594000000E+02  0.51100000000E-03 0. -1.
         11   -1    0    0    0    0 -0.00000000000E+00 -0.00000000000E+00 -0.45593999997E+02  0.45594000000E+02  0.51100000000E-03 0.  1.
    9900012    2    1    2    0    0 -0.15769041554E+02 -0.40903132474E+02  0.10362654226E+02  0.46142317406E+02  0.99999967657E+01 0.  0.
        -12    1    1    2    0    0  0.15769041554E+02  0.40903132474E+02 -0.10362654226E+02  0.45045682594E+02  0.00000000000E+00 0.  1.
         11    1    3    3    0    0 -0.69061600971E+01 -0.11555374361E+02  0.36513603151E+01  0.13948267144E+02  0.51100000000E-03 0. -1.
        -11    1    3    3    0    0 -0.10259880473E+01 -0.15670002222E+02  0.27845589743E+01  0.15948523130E+02  0.51100000000E-03 0.  1.
        -12    1    3    3    0    0 -0.78368934091E+01 -0.13677755892E+02  0.39267349364E+01  0.16245527132E+02  0.00000000000E+00 0.  1.
</event>
<event>
 7    1  0.1486782E-008  0.4614232E+02  0.7816164E-02  0.1320468E+00
        -11   -1    0    0    0    0  0.00000000000E+00  0.00000000000E+00  0.45593999997E+02  0.45594000000E+02  0.51100000000E-03 0.  1.
         11   -1    0    0    0    0 -0.00000000000E+00 -0.00000000000E+00 -0.45593999997E+02  0.45594000000E+02  0.51100000000E-03 0. -1.
    9900012    2    1    2    0    0 -0.19740657282E+02 -0.10162846903E+02 -0.39193576051E+02  0.46142318623E+02  0.10000007860E+02 0.  0.
        -12    1    1    2    0    0  0.19740657282E+02  0.10162846903E+02  0.39193576051E+02  0.45045681377E+02  0.00000000000E+00 0.  1.
         11    1    3    3    0    0 -0.18652452208E+02 -0.96584928713E+01 -0.35877693005E+02  0.41574142366E+02  0.51100000000E-03 0. -1.
        -11    1    3    3    0    0 -0.89176008255E+00  0.65187516490E+00 -0.58577279674E-01  0.11061685379E+01  0.51100000000E-03 0.  1.
        -12    1    3    3    0    0 -0.19644499110E+00 -0.11562291965E+01 -0.32573057662E+01  0.34620077187E+01  0.00000000000E+00 0.  1.
</event>
<event>
 7    1  0.1486782E-008  0.4614232E+02  0.7816164E-02  0.1320468E+00
        -11   -1    0    0    0    0  0.00000000000E+00  0.00000000000E+00  0.45593999997E+02  0.45594000000E+02  0.51100000000E-03 0. -1.
         11   -1    0    0    0    0 -0.00000000000E+00 -0.00000000000E+00 -0.45593999997E+02  0.45594000000E+02  0.51100000000E-03 0.  1.
    9900012    2    1    2    0    0 -0.48510394362E+01 -0.25119484842E+02  0.37075495537E+02  0.46142317946E+02  0.10000001686E+02 0.  0.
        -12    1    1    2    0    0  0.48510394362E+01  0.25119484842E+02 -0.37075495537E+02  0.45045682054E+02  0.00000000000E+00 0.  1.
         11    1    3    3    0    0 -0.21412182018E+01 -0.41805818491E+01  0.11066881925E+02  0.12022393929E+02  0.51100000000E-03 0. -1.
        -11    1    3    3    0    0  0.14307219669E+01 -0.10984970389E+01  0.18198807932E+01  0.25623480352E+01  0.51100000000E-03 0.  1.
         12    1    3    3    0    0 -0.41405432013E+01 -0.19840405954E+02  0.24188732819E+02  0.31557575982E+02  0.00000000000E+00 0. -1.
</event>
<event>
 7    1  0.1486782E-008  0.4614232E+02  0.7816164E-02  0.1320468E+00
        -11   -1    0    0    0    0  0.00000000000E+00  0.00000000000E+00  0.45593999997E+02  0.45594000000E+02  0.51100000000E-03 0.  1.
         11   -1    0    0    0    0 -0.00000000000E+00 -0.00000000000E+00 -0.45593999997E+02  0.45594000000E+02  0.51100000000E-03 0. -1.
    9900012    2    1    2    0    0  0.13706970036E+02  0.42821509909E+02  0.27478780068E+01  0.46142316833E+02  0.99999915352E+01 0.  0.
        -12    1    1    2    0    0 -0.13706970036E+02 -0.42821509909E+02 -0.27478780068E+01  0.45045683167E+02  0.00000000000E+00 0.  1.
         11    1    3    3    0    0  0.88110622442E+01  0.22977950115E+02  0.37485668076E+01  0.24893227246E+02  0.51100000000E-03 0. -1.
        -11    1    3    3    0    0  0.11113438321E+01  0.45740283458E+01  0.21990341536E+01  0.51954376035E+01  0.51100000000E-03 0.  1.
        -12    1    3    3    0    0  0.37845639601E+01  0.15269531448E+02 -0.31997229544E+01  0.16053651983E+02  0.00000000000E+00 0.  1.
</event>
<event>
 7    1  0.1486782E-008  0.4614231E+02  0.7816164E-02  0.1320468E+00
        -11   -1    0    0    0    0  0.00000000000E+00  0.00000000000E+00  0.45593999997E+02  0.45594000000E+02  0.51100000000E-03 0. -1.
         11   -1    0    0    0    0 -0.00000000000E+00 -0.00000000000E+00 -0.45593999997E+02  0.45594000000E+02  0.51100000000E-03 0.  1.
    9900012    2    1    2    0    0  0.18091282748E+02  0.33824970606E+02  0.23615477912E+02  0.46142312693E+02  0.99999537809E+01 0.  0.
        -12    1    1    2    0    0 -0.18091282748E+02 -0.33824970606E+02 -0.23615477912E+02  0.45045687307E+02  0.00000000000E+00 0.  1.
         11    1    3    3    0    0  0.10975100857E+02  0.19450479458E+02  0.18130148000E+02  0.28765887032E+02  0.51100000000E-03 0. -1.
        -11    1    3    3    0    0  0.41798515361E+01  0.52571278722E+01  0.35777563462E+01  0.76097892916E+01  0.51100000000E-03 0.  1.
         12    1    3    3    0    0  0.29363303545E+01  0.91173632761E+01  0.19075735665E+01  0.97666363693E+01  0.00000000000E+00 0. -1.
</event>
<event>
 7    1  0.1486782E-008  0.4614232E+02  0.7816164E-02  0.1320468E+00
        -11   -1    0    0    0    0  0.00000000000E+00  0.00000000000E+00  0.45593999997E+02  0.45594000000E+02  0.51100000000E-03 0. -1.
         11   -1    0    0    0    0 -0.00000000000E+00 -0.00000000000E+00 -0.45593999997E+02  0.45594000000E+02  0.51100000000E-03 0.  1.
    9900012    2    1    2    0    0 -0.17222321207E+02 -0.38050159116E+02  0.16872774076E+02  0.46142318059E+02  0.10000002718E+02 0.  0.
        -12    1    1    2    0    0  0.17222321207E+02  0.38050159116E+02 -0.16872774076E+02  0.45045681941E+02  0.00000000000E+00 0.  1.
         11    1    3    3    0    0 -0.11175951082E+02 -0.17468717923E+02  0.94049076035E+01  0.22770820709E+02  0.51100000000E-03 0. -1.
        -11    1    3    3    0    0 -0.66284695077E+01 -0.18272247012E+02  0.52899929110E+01  0.20144370036E+02  0.51100000000E-03 0.  1.
        -12    1    3    3    0    0  0.58209938253E+00 -0.23091941812E+01  0.21778735611E+01  0.32271273148E+01  0.00000000000E+00 0.  1.
</event>
<event>
 7    1  0.1486782E-008  0.4614232E+02  0.7816164E-02  0.1320468E+00
        -11   -1    0    0    0    0  0.00000000000E+00  0.00000000000E+00  0.45593999997E+02  0.45594000000E+02  0.51100000000E-03 0. -1.
         11   -1    0    0    0    0 -0.00000000000E+00 -0.00000000000E+00 -0.45593999997E+02  0.45594000000E+02  0.51100000000E-03 0.  1.
    9900012    2    1    2    0    0  0.44324326962E+02 -0.76451605676E+01  0.24533663376E+01  0.46142318219E+02  0.10000004176E+02 0.  0.
        -12    1    1    2    0    0 -0.44324326962E+02  0.76451605676E+01 -0.24533663376E+01  0.45045681781E+02  0.00000000000E+00 0.  1.
         11    1    3    3    0    0  0.10505524085E+02 -0.79944669553E+00  0.18923921447E+01  0.10704499036E+02  0.51100000000E-03 0. -1.
        -11    1    3    3    0    0  0.18683207867E+02 -0.19438278561E+01 -0.32870658367E+01  0.19069491997E+02  0.51100000000E-03 0.  1.
        -12    1    3    3    0    0  0.15135595010E+02 -0.49018860159E+01  0.38480400295E+01  0.16368327186E+02  0.00000000000E+00 0.  1.
</event>
<event>
 7    1  0.1486782E-008  0.4614232E+02  0.7816164E-02  0.1320468E+00
        -11   -1    0    0    0    0  0.00000000000E+00  0.00000000000E+00  0.45593999997E+02  0.45594000000E+02  0.51100000000E-03 0. -1.
         11   -1    0    0    0    0 -0.00000000000E+00 -0.00000000000E+00 -0.45593999997E+02  0.45594000000E+02  0.51100000000E-03 0.  1.
    9900012    2    1    2    0    0 -0.44925565329E+02  0.30191015841E+01  0.13008970210E+01  0.46142315106E+02  0.99999757875E+01 0.  0.
        -12    1    1    2    0    0  0.44925565329E+02 -0.30191015841E+01 -0.13008970210E+01  0.45045684894E+02  0.00000000000E+00 0.  1.
         11    1    3    3    0    0 -0.33473318743E+02  0.32076233933E+01  0.41129272422E+01  0.33877250276E+02  0.51100000000E-03 0. -1.
        -11    1    3    3    0    0 -0.75240601425E+01  0.71464332175E+00 -0.32170088413E+01  0.82140941224E+01  0.51100000000E-03 0.  1.
        -12    1    3    3    0    0 -0.39281864435E+01 -0.90316513101E+00  0.40497862013E+00  0.40509707073E+01  0.00000000000E+00 0.  1.
</event>
<event>
 7    1  0.1650454E-008  0.4614232E+02  0.7816164E-02  0.1320468E+00
        -11   -1    0    0    0    0  0.00000000000E+00  0.00000000000E+00  0.45593999997E+02  0.45594000000E+02  0.51100000000E-03 0. -1.
         11   -1    0    0    0    0 -0.00000000000E+00 -0.00000000000E+00 -0.45593999997E+02  0.45594000000E+02  0.51100000000E-03 0.  1.
    9900012    2    1    2    0    0 -0.64996802111E+01  0.15171245974E+02  0.41913016591E+02  0.46142317554E+02  0.99999981153E+01 0.  0.
        -12    1    1    2    0    0  0.64996802111E+01 -0.15171245974E+02 -0.41913016591E+02  0.45045682446E+02  0.00000000000E+00 0.  1.
         11    1    3    3    0    0 -0.19369888566E+01  0.10147971714E+02  0.28749981923E+02  0.30549872611E+02  0.51100000000E-03 0. -1.
        -11    1    3    3    0    0  0.73130923295E+00  0.17566249991E+01  0.17062166362E+01  0.25557229999E+01  0.51100000000E-03 0.  1.
         12    1    3    3    0    0 -0.52940005874E+01  0.32666492609E+01  0.11456818031E+02  0.13036721943E+02  0.00000000000E+00 0. -1.
</event>
<event>
 7    1  0.1486782E-008  0.4614232E+02  0.7816164E-02  0.1320468E+00
        -11   -1    0    0    0    0  0.00000000000E+00  0.00000000000E+00  0.45593999997E+02  0.45594000000E+02  0.51100000000E-03 0.  1.
         11   -1    0    0    0    0 -0.00000000000E+00 -0.00000000000E+00 -0.45593999997E+02  0.45594000000E+02  0.51100000000E-03 0. -1.
    9900012    2    1    2    0    0 -0.22504494634E+02  0.28057609515E+02 -0.27118844303E+02  0.46142318223E+02  0.10000004214E+02 0.  0.
        -12    1    1    2    0    0  0.22504494634E+02 -0.28057609515E+02  0.27118844303E+02  0.45045681777E+02  0.00000000000E+00 0.  1.
         11    1    3    3    0    0 -0.13389304053E+02  0.21716984158E+02 -0.21036339425E+02  0.33067029510E+02  0.51100000000E-03 0. -1.
        -11    1    3    3    0    0 -0.89406997119E-01  0.31308725937E+00  0.33449683749E+00  0.46680364022E+00  0.51100000000E-03 0.  1.
         12    1    3    3    0    0 -0.90257835841E+01  0.60275380974E+01 -0.64170017146E+01  0.12608485073E+02  0.00000000000E+00 0. -1.
</event>
<event>
 7    1  0.1486782E-008  0.4614232E+02  0.7816164E-02  0.1320468E+00
        -11   -1    0    0    0    0  0.00000000000E+00  0.00000000000E+00  0.45593999997E+02  0.45594000000E+02  0.51100000000E-03 0.  1.
         11   -1    0    0    0    0 -0.00000000000E+00 -0.00000000000E+00 -0.45593999997E+02  0.45594000000E+02  0.51100000000E-03 0. -1.
    9900012    2    1    2    0    0  0.41063515828E+02  0.63116253699E+01 -0.17408752192E+02  0.46142316524E+02  0.99999887150E+01 0.  0.
        -12    1    1    2    0    0 -0.41063515828E+02 -0.63116253699E+01  0.17408752192E+02  0.45045683476E+02  0.00000000000E+00 0.  1.
         11    1    3    3    0    0  0.12900980615E+01  0.11425611534E+01 -0.46253864661E+00  0.17843041384E+01  0.51100000000E-03 0.  1.
        -11    1    3    3    0    0  0.16027352890E+02  0.62868749281E+01 -0.74513565532E+01  0.18759625577E+02  0.51100000000E-03 0. -1.
        -12    1    3    3    0    0  0.23746064876E+02 -0.11178107116E+01 -0.94948569921E+01  0.25598386808E+02  0.00000000000E+00 0.  1.
</event>
<event>
 7    1  0.1486782E-008  0.4614232E+02  0.7816164E-02  0.1320468E+00
        -11   -1    0    0    0    0  0.00000000000E+00  0.00000000000E+00  0.45593999997E+02  0.45594000000E+02  0.51100000000E-03 0.  1.
         11   -1    0    0    0    0 -0.00000000000E+00 -0.00000000000E+00 -0.45593999997E+02  0.45594000000E+02  0.51100000000E-03 0. -1.
    9900012    2    1    2    0    0  0.22237577452E+02 -0.73383593670E+01 -0.38480542471E+02  0.46142317433E+02  0.99999970041E+01 0.  0.
        -12    1    1    2    0    0 -0.22237577452E+02  0.73383593670E+01  0.38480542471E+02  0.45045682567E+02  0.00000000000E+00 0.  1.
         11    1    3    3    0    0  0.16943944739E+02 -0.72155025024E+01 -0.25453035459E+02  0.31416838702E+02  0.51100000000E-03 0. -1.
        -11    1    3    3    0    0  0.14345590519E+01  0.82496734875E+00 -0.86766256563E+01  0.88330268788E+01  0.51100000000E-03 0.  1.
        -12    1    3    3    0    0  0.38590736602E+01 -0.94782421326E+00 -0.43508813551E+01  0.58924518513E+01  0.00000000000E+00 0.  1.
</event>
<event>
 7    1  0.1486782E-008  0.4614232E+02  0.7816164E-02  0.1320468E+00
        -11   -1    0    0    0    0  0.00000000000E+00  0.00000000000E+00  0.45593999997E+02  0.45594000000E+02  0.51100000000E-03 0.  1.
         11   -1    0    0    0    0 -0.00000000000E+00 -0.00000000000E+00 -0.45593999997E+02  0.45594000000E+02  0.51100000000E-03 0. -1.
    9900012    2    1    2    0    0 -0.25512948086E+02  0.27925227558E+02 -0.24461902525E+02  0.46142317306E+02  0.99999958512E+01 0.  0.
        -12    1    1    2    0    0  0.25512948086E+02 -0.27925227558E+02  0.24461902525E+02  0.45045682694E+02  0.00000000000E+00 0.  1.
         11    1    3    3    0    0 -0.11957240285E+02  0.11352499997E+02 -0.12864286567E+02  0.20912788446E+02  0.51100000000E-03 0. -1.
        -11    1    3    3    0    0 -0.21569624259E+01  0.61234079877E+01 -0.12180187262E+01  0.66054660826E+01  0.51100000000E-03 0.  1.
        -12    1    3    3    0    0 -0.11398745375E+02  0.10449319573E+02 -0.10379597232E+02  0.18624062778E+02  0.00000000000E+00 0.  1.
</event>
<event>
 7    1  0.1486782E-008  0.4614232E+02  0.7816164E-02  0.1320468E+00
        -11   -1    0    0    0    0  0.00000000000E+00  0.00000000000E+00  0.45593999997E+02  0.45594000000E+02  0.51100000000E-03 0.  1.
         11   -1    0    0    0    0 -0.00000000000E+00 -0.00000000000E+00 -0.45593999997E+02  0.45594000000E+02  0.51100000000E-03 0. -1.
    9900012    2    1    2    0    0 -0.42617834388E+02 -0.40962351778E+01 -0.14001947855E+02  0.46142317695E+02  0.99999993969E+01 0.  0.
        -12    1    1    2    0    0  0.42617834388E+02  0.40962351778E+01  0.14001947855E+02  0.45045682305E+02  0.00000000000E+00 0.  1.
         11    1    3    3    0    0 -0.23803445413E+02 -0.33649366146E+00 -0.87601101795E+01  0.25366449734E+02  0.51100000000E-03 0. -1.
        -11    1    3    3    0    0 -0.56610885018E+01  0.16257727397E+01 -0.16138898614E+01  0.61070206133E+01  0.51100000000E-03 0.  1.
         12    1    3    3    0    0 -0.13153300474E+02 -0.53855142560E+01 -0.36279478141E+01  0.14668847347E+02  0.00000000000E+00 0. -1.
</event>
<event>
 7    1  0.1486782E-008  0.4614232E+02  0.7816164E-02  0.1320468E+00
        -11   -1    0    0    0    0  0.00000000000E+00  0.00000000000E+00  0.45593999997E+02  0.45594000000E+02  0.51100000000E-03 0.  1.
         11   -1    0    0    0    0 -0.00000000000E+00 -0.00000000000E+00 -0.45593999997E+02  0.45594000000E+02  0.51100000000E-03 0. -1.
    9900012    2    1    2    0    0 -0.25210544781E+02  0.26977241002E+01 -0.37232569189E+02  0.46142317722E+02  0.99999996439E+01 0.  0.
        -12    1    1    2    0    0  0.25210544781E+02 -0.26977241002E+01  0.37232569189E+02  0.45045682278E+02  0.00000000000E+00 0.  1.
         11    1    3    3    0    0 -0.57724585834E+01 -0.24475939411E+01 -0.75816681746E+01  0.98383782591E+01  0.51100000000E-03 0. -1.
        -11    1    3    3    0    0  0.27280048569E+00  0.30522369874E+00 -0.49149915300E-01  0.41230763582E+00  0.51100000000E-03 0.  1.
         12    1    3    3    0    0 -0.19710886683E+02  0.48400943426E+01 -0.29601751099E+02  0.35891631827E+02  0.00000000000E+00 0. -1.
</event>
<event>
 7    1  0.1486782E-008  0.4614232E+02  0.7816164E-02  0.1320468E+00
        -11   -1    0    0    0    0  0.00000000000E+00  0.00000000000E+00  0.45593999997E+02  0.45594000000E+02  0.51100000000E-03 0.  1.
         11   -1    0    0    0    0 -0.00000000000E+00 -0.00000000000E+00 -0.45593999997E+02  0.45594000000E+02  0.51100000000E-03 0. -1.
    9900012    2    1    2    0    0 -0.99887308053E+01 -0.25267941763E+02 -0.35928678369E+02  0.46142317040E+02  0.99999934239E+01 0.  0.
        -12    1    1    2    0    0  0.99887308053E+01  0.25267941763E+02  0.35928678369E+02  0.45045682960E+02  0.00000000000E+00 0.  1.
         11    1    3    3    0    0 -0.49530037325E+01 -0.31587370519E+01 -0.97499523546E+01  0.11382945002E+02  0.51100000000E-03 0. -1.
        -11    1    3    3    0    0 -0.45860764456E+01 -0.21158254820E+02 -0.25700514586E+02  0.33603873207E+02  0.51100000000E-03 0.  1.
        -12    1    3    3    0    0 -0.44965062719E+00 -0.95094989019E+00 -0.47821142766E+00  0.11554988316E+01  0.00000000000E+00 0.  1.
</event>
<event>
 7    1  0.1486782E-008  0.4614232E+02  0.7816164E-02  0.1320468E+00
        -11   -1    0    0    0    0  0.00000000000E+00  0.00000000000E+00  0.45593999997E+02  0.45594000000E+02  0.51100000000E-03 0.  1.
         11   -1    0    0    0    0 -0.00000000000E+00 -0.00000000000E+00 -0.45593999997E+02  0.45594000000E+02  0.51100000000E-03 0. -1.
    9900012    2    1    2    0    0  0.36918408528E+02 -0.11307867943E+02 -0.23200791167E+02  0.46142317894E+02  0.10000001209E+02 0.  0.
        -12    1    1    2    0    0 -0.36918408528E+02  0.11307867943E+02  0.23200791167E+02  0.45045682106E+02  0.00000000000E+00 0.  1.
         11    1    3    3    0    0  0.13782587784E+02 -0.54365447080E+00 -0.70688288423E+01  0.15499149256E+02  0.51100000000E-03 0.  1.
        -11    1    3    3    0    0  0.68073246346E+01 -0.23978995723E+01 -0.20142423482E+01  0.74931144084E+01  0.51100000000E-03 0. -1.
         12    1    3    3    0    0  0.16328496109E+02 -0.83663138996E+01 -0.14117719977E+02  0.23150054229E+02  0.00000000000E+00 0. -1.
</event>
<event>
 7    1  0.1486782E-008  0.4614232E+02  0.7816164E-02  0.1320468E+00
        -11   -1    0    0    0    0  0.00000000000E+00  0.00000000000E+00  0.45593999997E+02  0.45594000000E+02  0.51100000000E-03 0. -1.
         11   -1    0    0    0    0 -0.00000000000E+00 -0.00000000000E+00 -0.45593999997E+02  0.45594000000E+02  0.51100000000E-03 0.  1.
    9900012    2    1    2    0    0  0.31681576965E+01  0.34837679036E+02  0.28379789277E+02  0.46142317152E+02  0.99999944469E+01 0.  0.
        -12    1    1    2    0    0 -0.31681576965E+01 -0.34837679036E+02 -0.28379789277E+02  0.45045682848E+02  0.00000000000E+00 0.  1.
         11    1    3    3    0    0  0.18581296143E+01  0.15165530619E+02  0.91394767257E+01  0.17803819806E+02  0.51100000000E-03 0. -1.
        -11    1    3    3    0    0  0.74307815331E+00  0.12663716122E+02  0.16451383744E+02  0.20774260481E+02  0.51100000000E-03 0.  1.
        -12    1    3    3    0    0  0.56694992893E+00  0.70084322951E+01  0.27889288070E+01  0.75642368649E+01  0.00000000000E+00 0.  1.
</event>
<event>
 7    1  0.1486782E-008  0.4614232E+02  0.7816164E-02  0.1320468E+00
        -11   -1    0    0    0    0  0.00000000000E+00  0.00000000000E+00  0.45593999997E+02  0.45594000000E+02  0.51100000000E-03 0.  1.
         11   -1    0    0    0    0 -0.00000000000E+00 -0.00000000000E+00 -0.45593999997E+02  0.45594000000E+02  0.51100000000E-03 0. -1.
    9900012    2    1    2    0    0 -0.98337223454E+01 -0.24370175602E+02 -0.36585597571E+02  0.46142317591E+02  0.99999984523E+01 0.  0.
        -12    1    1    2    0    0  0.98337223454E+01  0.24370175602E+02  0.36585597571E+02  0.45045682409E+02  0.00000000000E+00 0.  1.
         11    1    3    3    0    0 -0.35833461064E+01 -0.95045494680E+01 -0.18238096939E+02  0.20875943335E+02  0.51100000000E-03 0.  1.
        -11    1    3    3    0    0 -0.52584706293E+01 -0.11596348919E+02 -0.17675988006E+02  0.21784567332E+02  0.51100000000E-03 0. -1.
        -12    1    3    3    0    0 -0.99190560972E+00 -0.32692772155E+01 -0.67151262567E+00  0.34818069241E+01  0.00000000000E+00 0.  1.
</event>
<event>
 7    1  0.1486782E-008  0.4614232E+02  0.7816164E-02  0.1320468E+00
        -11   -1    0    0    0    0  0.00000000000E+00  0.00000000000E+00  0.45593999997E+02  0.45594000000E+02  0.51100000000E-03 0.  1.
         11   -1    0    0    0    0 -0.00000000000E+00 -0.00000000000E+00 -0.45593999997E+02  0.45594000000E+02  0.51100000000E-03 0. -1.
    9900012    2    1    2    0    0  0.31279625303E+02  0.21177797738E+02 -0.24539753554E+02  0.46142316737E+02  0.99999906650E+01 0.  0.
        -12    1    1    2    0    0 -0.31279625303E+02 -0.21177797738E+02  0.24539753554E+02  0.45045683263E+02  0.00000000000E+00 0.  1.
         11    1    3    3    0    0  0.15729509123E+02  0.10590166095E+02 -0.87239720093E+01  0.20872871462E+02  0.51100000000E-03 0. -1.
        -11    1    3    3    0    0  0.70583736128E+00 -0.47705960956E+00 -0.19830732208E+01  0.21583261829E+01  0.51100000000E-03 0.  1.
         12    1    3    3    0    0  0.14844278818E+02  0.11064691252E+02 -0.13832708324E+02  0.23111119093E+02  0.00000000000E+00 0. -1.
</event>
<event>
 7    1  0.1486782E-008  0.4614232E+02  0.7816164E-02  0.1320468E+00
        -11   -1    0    0    0    0  0.00000000000E+00  0.00000000000E+00  0.45593999997E+02  0.45594000000E+02  0.51100000000E-03 0. -1.
         11   -1    0    0    0    0 -0.00000000000E+00 -0.00000000000E+00 -0.45593999997E+02  0.45594000000E+02  0.51100000000E-03 0.  1.
    9900012    2    1    2    0    0 -0.33708190568E+02  0.14443531283E+02  0.26158283210E+02  0.46142317768E+02  0.10000000059E+02 0.  0.
        -12    1    1    2    0    0  0.33708190568E+02 -0.14443531283E+02 -0.26158283210E+02  0.45045682232E+02  0.00000000000E+00 0.  1.
         11    1    3    3    0    0 -0.13114036170E+02  0.26273250535E+01  0.11665861328E+02  0.17747481578E+02  0.51100000000E-03 0. -1.
        -11    1    3    3    0    0 -0.68000068521E+00 -0.63443070908E+00  0.62194692111E+00  0.11188035977E+01  0.51100000000E-03 0.  1.
         12    1    3    3    0    0 -0.19914153713E+02  0.12450636939E+02  0.13870474962E+02  0.27276032591E+02  0.00000000000E+00 0. -1.
</event>
<event>
 7    1  0.1486782E-008  0.4614232E+02  0.7816164E-02  0.1320468E+00
        -11   -1    0    0    0    0  0.00000000000E+00  0.00000000000E+00  0.45593999997E+02  0.45594000000E+02  0.51100000000E-03 0.  1.
         11   -1    0    0    0    0 -0.00000000000E+00 -0.00000000000E+00 -0.45593999997E+02  0.45594000000E+02  0.51100000000E-03 0. -1.
    9900012    2    1    2    0    0  0.10956732938E+02 -0.11964382189E+02 -0.42022815045E+02  0.46142318496E+02  0.10000006698E+02 0.  0.
        -12    1    1    2    0    0 -0.10956732938E+02  0.11964382189E+02  0.42022815045E+02  0.45045681504E+02  0.00000000000E+00 0.  1.
         11    1    3    3    0    0  0.76422129498E+01 -0.31265655962E+01 -0.16402577622E+02  0.18363642997E+02  0.51100000000E-03 0. -1.
        -11    1    3    3    0    0 -0.13897306827E+01 -0.20385164736E+01 -0.60161312595E+01  0.65023639068E+01  0.51100000000E-03 0.  1.
         12    1    3    3    0    0  0.47042506713E+01 -0.67993001192E+01 -0.19604106164E+02  0.21276311592E+02  0.00000000000E+00 0. -1.
</event>
<event>
 7    1  0.1486782E-008  0.4614232E+02  0.7816164E-02  0.1320468E+00
        -11   -1    0    0    0    0  0.00000000000E+00  0.00000000000E+00  0.45593999997E+02  0.45594000000E+02  0.51100000000E-03 0.  1.
         11   -1    0    0    0    0 -0.00000000000E+00 -0.00000000000E+00 -0.45593999997E+02  0.45594000000E+02  0.51100000000E-03 0. -1.
    9900012    2    1    2    0    0 -0.34848916941E+02 -0.60097265827E+01 -0.27902504963E+02  0.46142316424E+02  0.99999878113E+01 0.  0.
        -12    1    1    2    0    0  0.34848916941E+02  0.60097265827E+01  0.27902504963E+02  0.45045683576E+02  0.00000000000E+00 0.  1.
         11    1    3    3    0    0 -0.24598643882E+02 -0.33980520782E+01 -0.23402147493E+02  0.34121848518E+02  0.51100000000E-03 0. -1.
        -11    1    3    3    0    0 -0.54921382049E+01 -0.36315858329E+00 -0.74280934855E+00  0.55540284666E+01  0.51100000000E-03 0.  1.
         12    1    3    3    0    0 -0.47581348541E+01 -0.22485159213E+01 -0.37575481214E+01  0.64664394394E+01  0.00000000000E+00 0. -1.
</event>
<event>
 7    1  0.1486782E-008  0.4614232E+02  0.7816164E-02  0.1320468E+00
        -11   -1    0    0    0    0  0.00000000000E+00  0.00000000000E+00  0.45593999997E+02  0.45594000000E+02  0.51100000000E-03 0.  1.
         11   -1    0    0    0    0 -0.00000000000E+00 -0.00000000000E+00 -0.45593999997E+02  0.45594000000E+02  0.51100000000E-03 0. -1.
    9900012    2    1    2    0    0 -0.37083117935E+02  0.20562289903E+02 -0.15203552144E+02  0.46142318746E+02  0.10000008983E+02 0.  0.
        -12    1    1    2    0    0  0.37083117935E+02 -0.20562289903E+02  0.15203552144E+02  0.45045681254E+02  0.00000000000E+00 0.  1.
         11    1    3    3    0    0 -0.20850991603E+02  0.10488264115E+02 -0.11970840368E+02  0.26231060870E+02  0.51100000000E-03 0. -1.
        -11    1    3    3    0    0 -0.36008269144E+01  0.38778581018E+01 -0.24190608704E+01  0.58185559790E+01  0.51100000000E-03 0.  1.
         12    1    3    3    0    0 -0.12631299417E+02  0.61961676853E+01 -0.81365090492E+00  0.14092701897E+02  0.00000000000E+00 0. -1.
</event>
<event>
 7    1  0.1532145E-008  0.4614232E+02  0.7816164E-02  0.1320468E+00
        -11   -1    0    0    0    0  0.00000000000E+00  0.00000000000E+00  0.45593999997E+02  0.45594000000E+02  0.51100000000E-03 0. -1.
         11   -1    0    0    0    0 -0.00000000000E+00 -0.00000000000E+00 -0.45593999997E+02  0.45594000000E+02  0.51100000000E-03 0.  1.
    9900012    2    1    2    0    0  0.48251923258E+01 -0.35929534879E+01  0.44642152659E+02  0.46142316636E+02  0.99999897383E+01 0.  0.
        -12    1    1    2    0    0 -0.48251923258E+01  0.35929534879E+01 -0.44642152659E+02  0.45045683364E+02  0.00000000000E+00 0.  1.
         11    1    3    3    0    0 -0.16693224015E+01  0.95412609334E+00  0.11811749354E+02  0.11967222608E+02  0.51100000000E-03 0. -1.
        -11    1    3    3    0    0  0.48245226056E+00 -0.17201104181E+00 -0.10493186124E-02  0.51220049240E+00  0.51100000000E-03 0.  1.
         12    1    3    3    0    0  0.60120624667E+01 -0.43750685394E+01  0.32831452623E+02  0.33662893535E+02  0.00000000000E+00 0. -1.
</event>
<event>
 7    1  0.1486782E-008  0.4614232E+02  0.7816164E-02  0.1320468E+00
        -11   -1    0    0    0    0  0.00000000000E+00  0.00000000000E+00  0.45593999997E+02  0.45594000000E+02  0.51100000000E-03 0. -1.
         11   -1    0    0    0    0 -0.00000000000E+00 -0.00000000000E+00 -0.45593999997E+02  0.45594000000E+02  0.51100000000E-03 0.  1.
    9900012    2    1    2    0    0  0.47695697743E+01 -0.44792249868E+02  0.13796981300E+00  0.46142317857E+02  0.10000000876E+02 0.  0.
        -12    1    1    2    0    0 -0.47695697743E+01  0.44792249868E+02 -0.13796981300E+00  0.45045682143E+02  0.00000000000E+00 0.  1.
         11    1    3    3    0    0 -0.36760566130E-01 -0.15005875685E+02  0.42168558762E+00  0.15011844504E+02  0.51100000000E-03 0. -1.
        -11    1    3    3    0    0  0.62440573255E+01 -0.19882151743E+02 -0.21490293681E+01  0.20950096355E+02  0.51100000000E-03 0.  1.
        -12    1    3    3    0    0 -0.14377269850E+01 -0.99042224405E+01  0.18653135934E+01  0.10180376999E+02  0.00000000000E+00 0.  1.
</event>
<event>
 7    1  0.1486782E-008  0.4614232E+02  0.7816164E-02  0.1320468E+00
        -11   -1    0    0    0    0  0.00000000000E+00  0.00000000000E+00  0.45593999997E+02  0.45594000000E+02  0.51100000000E-03 0.  1.
         11   -1    0    0    0    0 -0.00000000000E+00 -0.00000000000E+00 -0.45593999997E+02  0.45594000000E+02  0.51100000000E-03 0. -1.
    9900012    2    1    2    0    0 -0.16419875712E+02 -0.41373841101E+02 -0.69070007241E+01  0.46142315358E+02  0.99999780885E+01 0.  0.
        -12    1    1    2    0    0  0.16419875712E+02  0.41373841101E+02  0.69070007241E+01  0.45045684642E+02  0.00000000000E+00 0.  1.
         11    1    3    3    0    0 -0.27524405836E+01 -0.17919778623E+02 -0.40741025280E+01  0.18582053350E+02  0.51100000000E-03 0. -1.
        -11    1    3    3    0    0 -0.11384022834E+02 -0.16359745370E+02 -0.14796457453E+01  0.19985659765E+02  0.51100000000E-03 0.  1.
         12    1    3    3    0    0 -0.22834122947E+01 -0.70943171082E+01 -0.13532524508E+01  0.75746022427E+01  0.00000000000E+00 0. -1.
</event>
<event>
 7    1  0.1486782E-008  0.4614233E+02  0.7816164E-02  0.1320468E+00
        -11   -1    0    0    0    0  0.00000000000E+00  0.00000000000E+00  0.45593999997E+02  0.45594000000E+02  0.51100000000E-03 0. -1.
         11   -1    0    0    0    0 -0.00000000000E+00 -0.00000000000E+00 -0.45593999997E+02  0.45594000000E+02  0.51100000000E-03 0.  1.
    9900012    2    1    2    0    0 -0.33387772555E+02  0.22959443578E+01  0.30151249957E+02  0.46142327725E+02  0.10000090861E+02 0.  0.
        -12    1    1    2    0    0  0.33387772555E+02 -0.22959443578E+01 -0.30151249957E+02  0.45045672275E+02  0.00000000000E+00 0.  1.
         11    1    3    3    0    0 -0.82872695981E+00  0.12936716629E+01  0.32990136241E+01  0.36392122635E+01  0.51100000000E-03 0. -1.
        -11    1    3    3    0    0 -0.38350051186E+00  0.62729830862E+00  0.91228214257E+00  0.11716803230E+01  0.51100000000E-03 0.  1.
         12    1    3    3    0    0 -0.32175545084E+02  0.37497438632E+00  0.25939954190E+02  0.41331435139E+02  0.00000000000E+00 0. -1.
</event>
<event>
 7    1  0.1486782E-008  0.4614232E+02  0.7816164E-02  0.1320468E+00
        -11   -1    0    0    0    0  0.00000000000E+00  0.00000000000E+00  0.45593999997E+02  0.45594000000E+02  0.51100000000E-03 0. -1.
         11   -1    0    0    0    0 -0.00000000000E+00 -0.00000000000E+00 -0.45593999997E+02  0.45594000000E+02  0.51100000000E-03 0.  1.
    9900012    2    1    2    0    0  0.21771252639E+02  0.23281308651E+02  0.31829337634E+02  0.46142317541E+02  0.99999979916E+01 0.  0.
        -12    1    1    2    0    0 -0.21771252639E+02 -0.23281308651E+02 -0.31829337634E+02  0.45045682459E+02  0.00000000000E+00 0.  1.
         11    1    3    3    0    0  0.10621943481E+01  0.28392840797E+01  0.20058956850E+01  0.36350252652E+01  0.51100000000E-03 0. -1.
        -11    1    3    3    0    0  0.15913151384E+02  0.13585636192E+02  0.15964981158E+02  0.26318786472E+02  0.51100000000E-03 0.  1.
        -12    1    3    3    0    0  0.47959069072E+01  0.68563883797E+01  0.13858460791E+02  0.16188505804E+02  0.00000000000E+00 0.  1.
</event>
<event>
 7    1  0.1486782E-008  0.4614232E+02  0.7816164E-02  0.1320468E+00
        -11   -1    0    0    0    0  0.00000000000E+00  0.00000000000E+00  0.45593999997E+02  0.45594000000E+02  0.51100000000E-03 0.  1.
         11   -1    0    0    0    0 -0.00000000000E+00 -0.00000000000E+00 -0.45593999997E+02  0.45594000000E+02  0.51100000000E-03 0. -1.
    9900012    2    1    2    0    0 -0.15183756622E+02 -0.42339275756E+02  0.24398241766E+01  0.46142317868E+02  0.10000000978E+02 0.  0.
        -12    1    1    2    0    0  0.15183756622E+02  0.42339275756E+02 -0.24398241766E+01  0.45045682132E+02  0.00000000000E+00 0.  1.
         11    1    3    3    0    0 -0.95232414811E+01 -0.15588445846E+02  0.24065529284E+01  0.18425071763E+02  0.51100000000E-03 0. -1.
        -11    1    3    3    0    0 -0.10345053916E+01 -0.83080691112E+01  0.19817785919E+01  0.86035841607E+01  0.51100000000E-03 0.  1.
         12    1    3    3    0    0 -0.46260097494E+01 -0.18442760798E+02 -0.19485073437E+01  0.19113661945E+02  0.00000000000E+00 0. -1.
</event>
<event>
 7    1  0.1486782E-008  0.4614231E+02  0.7816164E-02  0.1320468E+00
        -11   -1    0    0    0    0  0.00000000000E+00  0.00000000000E+00  0.45593999997E+02  0.45594000000E+02  0.51100000000E-03 0.  1.
         11   -1    0    0    0    0 -0.00000000000E+00 -0.00000000000E+00 -0.45593999997E+02  0.45594000000E+02  0.51100000000E-03 0. -1.
    9900012    2    1    2    0    0  0.21285315207E+02 -0.15945477286E+01 -0.39667450664E+02  0.46142313546E+02  0.99999615658E+01 0.  0.
        -12    1    1    2    0    0 -0.21285315207E+02  0.15945477286E+01  0.39667450664E+02  0.45045686454E+02  0.00000000000E+00 0.  1.
         11    1    3    3    0    0  0.38272079424E+01 -0.25462148304E+01 -0.15811528885E+02  0.16466182817E+02  0.51100000000E-03 0. -1.
        -11    1    3    3    0    0  0.94658417699E+01 -0.65418269969E+00 -0.12311485332E+02  0.15543577026E+02  0.51100000000E-03 0.  1.
         12    1    3    3    0    0  0.79922654952E+01  0.16058498015E+01 -0.11544436446E+02  0.14132553704E+02  0.00000000000E+00 0. -1.
</event>
<event>
 7    1  0.1486782E-008  0.4614232E+02  0.7816164E-02  0.1320468E+00
        -11   -1    0    0    0    0  0.00000000000E+00  0.00000000000E+00  0.45593999997E+02  0.45594000000E+02  0.51100000000E-03 0. -1.
         11   -1    0    0    0    0 -0.00000000000E+00 -0.00000000000E+00 -0.45593999997E+02  0.45594000000E+02  0.51100000000E-03 0.  1.
    9900012    2    1    2    0    0  0.28407738109E+02  0.23107581572E+02  0.26232681714E+02  0.46142317627E+02  0.99999987761E+01 0.  0.
        -12    1    1    2    0    0 -0.28407738109E+02 -0.23107581572E+02 -0.26232681714E+02  0.45045682373E+02  0.00000000000E+00 0.  1.
         11    1    3    3    0    0  0.12094116520E+02  0.82109930609E+01  0.10980994991E+02  0.18283060813E+02  0.51100000000E-03 0. -1.
        -11    1    3    3    0    0  0.11326880859E+00  0.10885288543E+01 -0.66449273837E+00  0.12803420442E+01  0.51100000000E-03 0.  1.
        -12    1    3    3    0    0  0.16200352781E+02  0.13808059657E+02  0.15916179461E+02  0.26578914770E+02  0.00000000000E+00 0.  1.
</event>
<event>
 7    1  0.1486782E-008  0.4614232E+02  0.7816164E-02  0.1320468E+00
        -11   -1    0    0    0    0  0.00000000000E+00  0.00000000000E+00  0.45593999997E+02  0.45594000000E+02  0.51100000000E-03 0. -1.
         11   -1    0    0    0    0 -0.00000000000E+00 -0.00000000000E+00 -0.45593999997E+02  0.45594000000E+02  0.51100000000E-03 0.  1.
    9900012    2    1    2    0    0 -0.25906920110E+01  0.43935472989E+02  0.95956237049E+01  0.46142318008E+02  0.10000002252E+02 0.  0.
        -12    1    1    2    0    0  0.25906920110E+01 -0.43935472989E+02 -0.95956237049E+01  0.45045681992E+02  0.00000000000E+00 0.  1.
         11    1    3    3    0    0 -0.34531678687E+01  0.15479612758E+02  0.29514403328E+00  0.15862846206E+02  0.51100000000E-03 0. -1.
        -11    1    3    3    0    0  0.10337003852E+01  0.27389830991E+02  0.79273307982E+01  0.28532682174E+02  0.51100000000E-03 0.  1.
        -12    1    3    3    0    0 -0.17122452746E+00  0.10660292395E+01  0.13731488734E+01  0.17467896287E+01  0.00000000000E+00 0.  1.
</event>
<event>
 7    1  0.1486782E-008  0.4614232E+02  0.7816164E-02  0.1320468E+00
        -11   -1    0    0    0    0  0.00000000000E+00  0.00000000000E+00  0.45593999997E+02  0.45594000000E+02  0.51100000000E-03 0.  1.
         11   -1    0    0    0    0 -0.00000000000E+00 -0.00000000000E+00 -0.45593999997E+02  0.45594000000E+02  0.51100000000E-03 0. -1.
    9900012    2    1    2    0    0  0.44041080210E+02 -0.54456477979E+01 -0.77357389358E+01  0.46142317822E+02  0.10000000552E+02 0.  0.
        -12    1    1    2    0    0 -0.44041080210E+02  0.54456477979E+01  0.77357389358E+01  0.45045682178E+02  0.00000000000E+00 0.  1.
         11    1    3    3    0    0 -0.20813365166E+00  0.27142791041E+00 -0.66918700436E+00  0.75153458698E+00  0.51100000000E-03 0.  1.
        -11    1    3    3    0    0  0.11848946436E+02 -0.28661114483E+01 -0.34215761644E+01  0.12661726193E+02  0.51100000000E-03 0. -1.
         12    1    3    3    0    0  0.32400267426E+02 -0.28509642599E+01 -0.36449757671E+01  0.32729057042E+02  0.00000000000E+00 0. -1.
</event>
<event>
 7    1  0.1486782E-008  0.4614232E+02  0.7816164E-02  0.1320468E+00
        -11   -1    0    0    0    0  0.00000000000E+00  0.00000000000E+00  0.45593999997E+02  0.45594000000E+02  0.51100000000E-03 0.  1.
         11   -1    0    0    0    0 -0.00000000000E+00 -0.00000000000E+00 -0.45593999997E+02  0.45594000000E+02  0.51100000000E-03 0. -1.
    9900012    2    1    2    0    0  0.28585964629E+02  0.18391074357E+02 -0.29558829635E+02  0.46142318751E+02  0.10000009028E+02 0.  0.
        -12    1    1    2    0    0 -0.28585964629E+02 -0.18391074357E+02  0.29558829635E+02  0.45045681249E+02  0.00000000000E+00 0.  1.
         11    1    3    3    0    0  0.57567097444E+01  0.46431305742E+01 -0.25509848859E+01  0.78234195056E+01  0.51100000000E-03 0. -1.
        -11    1    3    3    0    0  0.17240094238E+02  0.86928321001E+01 -0.16559095655E+02  0.25435994740E+02  0.51100000000E-03 0.  1.
        -12    1    3    3    0    0  0.55891606469E+01  0.50551116827E+01 -0.10448749094E+02  0.12882904505E+02  0.00000000000E+00 0.  1.
</event>
<event>
 7    1  0.1486782E-008  0.4614232E+02  0.7816164E-02  0.1320468E+00
        -11   -1    0    0    0    0  0.00000000000E+00  0.00000000000E+00  0.45593999997E+02  0.45594000000E+02  0.51100000000E-03 0.  1.
         11   -1    0    0    0    0 -0.00000000000E+00 -0.00000000000E+00 -0.45593999997E+02  0.45594000000E+02  0.51100000000E-03 0. -1.
    9900012    2    1    2    0    0  0.17713489807E+02 -0.26958096576E+02 -0.31442112817E+02  0.46142321511E+02  0.10000034192E+02 0.  0.
        -12    1    1    2    0    0 -0.17713489807E+02  0.26958096576E+02  0.31442112817E+02  0.45045678489E+02  0.00000000000E+00 0.  1.
         11    1    3    3    0    0  0.44001565285E+01 -0.12438267669E+02 -0.11494000418E+02  0.17498112068E+02  0.51100000000E-03 0. -1.
        -11    1    3    3    0    0  0.11966872304E+02 -0.14378887768E+02 -0.19866365337E+02  0.27287926234E+02  0.51100000000E-03 0.  1.
        -12    1    3    3    0    0  0.13464609746E+01 -0.14094113924E+00 -0.81747062502E-01  0.13562832090E+01  0.00000000000E+00 0.  1.
</event>
<event>
 7    1  0.1486782E-008  0.4614232E+02  0.7816164E-02  0.1320468E+00
        -11   -1    0    0    0    0  0.00000000000E+00  0.00000000000E+00  0.45593999997E+02  0.45594000000E+02  0.51100000000E-03 0.  1.
         11   -1    0    0    0    0 -0.00000000000E+00 -0.00000000000E+00 -0.45593999997E+02  0.45594000000E+02  0.51100000000E-03 0. -1.
    9900012    2    1    2    0    0  0.33100960910E+02  0.21789575805E+02 -0.21416212779E+02  0.46142318778E+02  0.10000009275E+02 0.  0.
        -12    1    1    2    0    0 -0.33100960910E+02 -0.21789575805E+02  0.21416212779E+02  0.45045681222E+02  0.00000000000E+00 0.  1.
         11    1    3    3    0    0  0.21390147787E+02  0.14562600977E+02 -0.93264566521E+01  0.27506191367E+02  0.51100000000E-03 0. -1.
        -11    1    3    3    0    0  0.11504380012E+02  0.65484368624E+01 -0.10503084114E+02  0.16898152591E+02  0.51100000000E-03 0.  1.
         12    1    3    3    0    0  0.20643311048E+00  0.67853796503E+00 -0.15866720131E+01  0.17379748203E+01  0.00000000000E+00 0. -1.
</event>
<event>
 7    1  0.1486782E-008  0.4614232E+02  0.7816164E-02  0.1320468E+00
        -11   -1    0    0    0    0  0.00000000000E+00  0.00000000000E+00  0.45593999997E+02  0.45594000000E+02  0.51100000000E-03 0.  1.
         11   -1    0    0    0    0 -0.00000000000E+00 -0.00000000000E+00 -0.45593999997E+02  0.45594000000E+02  0.51100000000E-03 0. -1.
    9900012    2    1    2    0    0 -0.18536894413E+02 -0.39163598203E+02 -0.12317044227E+02  0.46142318107E+02  0.10000003158E+02 0.  0.
        -12    1    1    2    0    0  0.18536894413E+02  0.39163598203E+02  0.12317044227E+02  0.45045681893E+02  0.00000000000E+00 0.  1.
         11    1    3    3    0    0 -0.13669655186E+02 -0.23142903571E+02 -0.71917215901E+01  0.27823988181E+02  0.51100000000E-03 0. -1.
        -11    1    3    3    0    0 -0.13740756754E+01 -0.11423817266E+02 -0.49943398455E+01  0.12543329528E+02  0.51100000000E-03 0.  1.
        -12    1    3    3    0    0 -0.34931635510E+01 -0.45968773668E+01 -0.13098279103E+00  0.57750003992E+01  0.00000000000E+00 0.  1.
</event>
<event>
 7    1  0.1486782E-008  0.4614232E+02  0.7816164E-02  0.1320468E+00
        -11   -1    0    0    0    0  0.00000000000E+00  0.00000000000E+00  0.45593999997E+02  0.45594000000E+02  0.51100000000E-03 0. -1.
         11   -1    0    0    0    0 -0.00000000000E+00 -0.00000000000E+00 -0.45593999997E+02  0.45594000000E+02  0.51100000000E-03 0.  1.
    9900012    2    1    2    0    0 -0.11103631764E+01 -0.20410909424E+02  0.40140694912E+02  0.46142317433E+02  0.99999970073E+01 0.  0.
        -12    1    1    2    0    0  0.11103631764E+01  0.20410909424E+02 -0.40140694912E+02  0.45045682567E+02  0.00000000000E+00 0.  1.
         11    1    3    3    0    0  0.90555663873E+00 -0.12971125259E+02  0.15551811760E+02  0.20271383095E+02  0.51100000000E-03 0. -1.
        -11    1    3    3    0    0 -0.24016355858E+01 -0.63767484066E+01  0.22301897580E+02  0.23319635710E+02  0.51100000000E-03 0.  1.
        -12    1    3    3    0    0  0.38571577067E+00 -0.10630357591E+01  0.22869855724E+01  0.25512986280E+01  0.00000000000E+00 0.  1.
</event>
<event>
 7    1  0.1486782E-008  0.4614232E+02  0.7816164E-02  0.1320468E+00
        -11   -1    0    0    0    0  0.00000000000E+00  0.00000000000E+00  0.45593999997E+02  0.45594000000E+02  0.51100000000E-03 0.  1.
         11   -1    0    0    0    0 -0.00000000000E+00 -0.00000000000E+00 -0.45593999997E+02  0.45594000000E+02  0.51100000000E-03 0. -1.
    9900012    2    1    2    0    0  0.18954997095E+02 -0.19581056077E+02 -0.35866471902E+02  0.46142317869E+02  0.10000000987E+02 0.  0.
        -12    1    1    2    0    0 -0.18954997095E+02  0.19581056077E+02  0.35866471902E+02  0.45045682131E+02  0.00000000000E+00 0.  1.
         11    1    3    3    0    0  0.27889426456E+01 -0.72647965802E+01 -0.10924764090E+02  0.13412902039E+02  0.51100000000E-03 0. -1.
        -11    1    3    3    0    0  0.14152059058E+02 -0.77174756427E+01 -0.18004603712E+02  0.24166215280E+02  0.51100000000E-03 0.  1.
        -12    1    3    3    0    0  0.20139953915E+01 -0.45987838538E+01 -0.69371040997E+01  0.85632005501E+01  0.00000000000E+00 0.  1.
</event>
<event>
 7    1  0.1486782E-008  0.4614232E+02  0.7816164E-02  0.1320468E+00
        -11   -1    0    0    0    0  0.00000000000E+00  0.00000000000E+00  0.45593999997E+02  0.45594000000E+02  0.51100000000E-03 0.  1.
         11   -1    0    0    0    0 -0.00000000000E+00 -0.00000000000E+00 -0.45593999997E+02  0.45594000000E+02  0.51100000000E-03 0. -1.
    9900012    2    1    2    0    0  0.15672790712E+02  0.40710551465E+02 -0.11230679580E+02  0.46142317264E+02  0.99999954669E+01 0.  0.
        -12    1    1    2    0    0 -0.15672790712E+02 -0.40710551465E+02  0.11230679580E+02  0.45045682736E+02  0.00000000000E+00 0.  1.
         11    1    3    3    0    0  0.54685773548E+01  0.16330618730E+02 -0.85830909151E+01  0.19242242497E+02  0.51100000000E-03 0. -1.
        -11    1    3    3    0    0  0.49179727526E+01  0.70864626415E+01 -0.13136109134E-01  0.86258090393E+01  0.51100000000E-03 0.  1.
         12    1    3    3    0    0  0.52862406043E+01  0.17293470094E+02 -0.26344525561E+01  0.18274265728E+02  0.00000000000E+00 0. -1.
</event>
<event>
 7    1  0.1486782E-008  0.4614232E+02  0.7816164E-02  0.1320468E+00
        -11   -1    0    0    0    0  0.00000000000E+00  0.00000000000E+00  0.45593999997E+02  0.45594000000E+02  0.51100000000E-03 0.  1.
         11   -1    0    0    0    0 -0.00000000000E+00 -0.00000000000E+00 -0.45593999997E+02  0.45594000000E+02  0.51100000000E-03 0. -1.
    9900012    2    1    2    0    0 -0.21125254480E+02  0.14183210260E+01 -0.39759596051E+02  0.46142317749E+02  0.99999998869E+01 0.  0.
        -12    1    1    2    0    0  0.21125254480E+02 -0.14183210260E+01  0.39759596051E+02  0.45045682251E+02  0.00000000000E+00 0.  1.
         11    1    3    3    0    0 -0.10878660696E+02 -0.92441440338E+00 -0.21615405801E+02  0.24216225319E+02  0.51100000000E-03 0. -1.
        -11    1    3    3    0    0  0.19092648432E-01  0.11392495822E+01 -0.53922768978E+01  0.55113432613E+01  0.51100000000E-03 0.  1.
         12    1    3    3    0    0 -0.10265686432E+02  0.12034858472E+01 -0.12751913352E+02  0.16414749168E+02  0.00000000000E+00 0. -1.
</event>
<event>
 7    1  0.1486782E-008  0.4614232E+02  0.7816164E-02  0.1320468E+00
        -11   -1    0    0    0    0  0.00000000000E+00  0.00000000000E+00  0.45593999997E+02  0.45594000000E+02  0.51100000000E-03 0.  1.
         11   -1    0    0    0    0 -0.00000000000E+00 -0.00000000000E+00 -0.45593999997E+02  0.45594000000E+02  0.51100000000E-03 0. -1.
    9900012    2    1    2    0    0  0.23038747293E+02  0.31718488380E+02 -0.22187089429E+02  0.46142319639E+02  0.10000017120E+02 0.  0.
        -12    1    1    2    0    0 -0.23038747293E+02 -0.31718488380E+02  0.22187089429E+02  0.45045680361E+02  0.00000000000E+00 0.  1.
         11    1    3    3    0    0  0.59625525383E+01  0.10053571316E+02 -0.81890193986E+01  0.14271873316E+02  0.51100000000E-03 0. -1.
        -11    1    3    3    0    0  0.11189397230E+02  0.84346068465E+01 -0.53192185409E+01  0.14987971483E+02  0.51100000000E-03 0.  1.
        -12    1    3    3    0    0  0.58867975245E+01  0.13230310217E+02 -0.86788514895E+01  0.16882474840E+02  0.00000000000E+00 0.  1.
</event>
<event>
 7    1  0.1486782E-008  0.4614232E+02  0.7816164E-02  0.1320468E+00
        -11   -1    0    0    0    0  0.00000000000E+00  0.00000000000E+00  0.45593999997E+02  0.45594000000E+02  0.51100000000E-03 0.  1.
         11   -1    0    0    0    0 -0.00000000000E+00 -0.00000000000E+00 -0.45593999997E+02  0.45594000000E+02  0.51100000000E-03 0. -1.
    9900012    2    1    2    0    0  0.36768957363E+02  0.20758870277E+02  0.15691610441E+02  0.46142316978E+02  0.99999928561E+01 0.  0.
        -12    1    1    2    0    0 -0.36768957363E+02 -0.20758870277E+02 -0.15691610441E+02  0.45045683022E+02  0.00000000000E+00 0.  1.
         11    1    3    3    0    0  0.11129935553E+02  0.61686754132E+01  0.13462404301E+01  0.12796108210E+02  0.51100000000E-03 0. -1.
        -11    1    3    3    0    0  0.24238885917E+01 -0.14777734583E+00  0.23691361556E+00  0.24399185174E+01  0.51100000000E-03 0.  1.
         12    1    3    3    0    0  0.23215133219E+02  0.14737972210E+02  0.14108456395E+02  0.30906290251E+02  0.00000000000E+00 0. -1.
</event>
<event>
 7    1  0.1486782E-008  0.4614232E+02  0.7816164E-02  0.1320468E+00
        -11   -1    0    0    0    0  0.00000000000E+00  0.00000000000E+00  0.45593999997E+02  0.45594000000E+02  0.51100000000E-03 0.  1.
         11   -1    0    0    0    0 -0.00000000000E+00 -0.00000000000E+00 -0.45593999997E+02  0.45594000000E+02  0.51100000000E-03 0. -1.
    9900012    2    1    2    0    0 -0.79588856806E+01 -0.44316481763E+02  0.13485731933E+01  0.46142322441E+02  0.10000042675E+02 0.  0.
        -12    1    1    2    0    0  0.79588856806E+01  0.44316481763E+02 -0.13485731933E+01  0.45045677559E+02  0.00000000000E+00 0.  1.
         11    1    3    3    0    0 -0.52828170344E+00 -0.17215766089E+01  0.15827607280E+01  0.23975069055E+01  0.51100000000E-03 0. -1.
        -11    1    3    3    0    0 -0.22279237400E+01 -0.18919827002E+02 -0.32229774799E+01  0.19321259847E+02  0.51100000000E-03 0.  1.
         12    1    3    3    0    0 -0.52026802371E+01 -0.23675078152E+02  0.29887899452E+01  0.24423555689E+02  0.00000000000E+00 0. -1.
</event>
<event>
 7    1  0.1486782E-008  0.4614232E+02  0.7816164E-02  0.1320468E+00
        -11   -1    0    0    0    0  0.00000000000E+00  0.00000000000E+00  0.45593999997E+02  0.45594000000E+02  0.51100000000E-03 0. -1.
         11   -1    0    0    0    0 -0.00000000000E+00 -0.00000000000E+00 -0.45593999997E+02  0.45594000000E+02  0.51100000000E-03 0.  1.
    9900012    2    1    2    0    0  0.42361696814E+02  0.10451612065E+02  0.11196609779E+02  0.46142316275E+02  0.99999864468E+01 0.  0.
        -12    1    1    2    0    0 -0.42361696814E+02 -0.10451612065E+02 -0.11196609779E+02  0.45045683725E+02  0.00000000000E+00 0.  1.
         11    1    3    3    0    0  0.18174558452E+02  0.55632155554E+01  0.55023565584E+01  0.19787366429E+02  0.51100000000E-03 0. -1.
        -11    1    3    3    0    0  0.17425179745E+02  0.41004812257E+00  0.23730107111E+01  0.17590798978E+02  0.51100000000E-03 0.  1.
        -12    1    3    3    0    0  0.67619586169E+01  0.44783483872E+01  0.33212425097E+01  0.87641508671E+01  0.00000000000E+00 0.  1.
</event>
<event>
 7    1  0.1486782E-008  0.4614232E+02  0.7816164E-02  0.1320468E+00
        -11   -1    0    0    0    0  0.00000000000E+00  0.00000000000E+00  0.45593999997E+02  0.45594000000E+02  0.51100000000E-03 0. -1.
         11   -1    0    0    0    0 -0.00000000000E+00 -0.00000000000E+00 -0.45593999997E+02  0.45594000000E+02  0.51100000000E-03 0.  1.
    9900012    2    1    2    0    0 -0.32930698910E+01  0.21754267914E+02  0.39306755314E+02  0.46142317687E+02  0.99999993226E+01 0.  0.
        -12    1    1    2    0    0  0.32930698910E+01 -0.21754267914E+02 -0.39306755314E+02  0.45045682313E+02  0.00000000000E+00 0.  1.
         11    1    3    3    0    0  0.27095932713E+01  0.60666828625E+01  0.93246215565E+01  0.11449677030E+02  0.51100000000E-03 0. -1.
        -11    1    3    3    0    0 -0.20117830215E+01  0.58818910990E+01  0.68334132893E+01  0.92379354441E+01  0.51100000000E-03 0.  1.
         12    1    3    3    0    0 -0.39908801408E+01  0.98056939520E+01  0.23148720468E+02  0.25454705213E+02  0.00000000000E+00 0. -1.
</event>
<event>
 7    1  0.1486782E-008  0.4614232E+02  0.7816164E-02  0.1320468E+00
        -11   -1    0    0    0    0  0.00000000000E+00  0.00000000000E+00  0.45593999997E+02  0.45594000000E+02  0.51100000000E-03 0.  1.
         11   -1    0    0    0    0 -0.00000000000E+00 -0.00000000000E+00 -0.45593999997E+02  0.45594000000E+02  0.51100000000E-03 0. -1.
    9900012    2    1    2    0    0  0.33207741267E+02  0.28330288012E+02  0.11124487935E+02  0.46142317291E+02  0.99999957158E+01 0.  0.
        -12    1    1    2    0    0 -0.33207741267E+02 -0.28330288012E+02 -0.11124487935E+02  0.45045682709E+02  0.00000000000E+00 0.  1.
         11    1    3    3    0    0  0.21671479164E+02  0.22103990617E+02  0.10501802882E+02  0.32688335449E+02  0.51100000000E-03 0. -1.
        -11    1    3    3    0    0  0.39143617877E+01  0.18605065031E+01 -0.11700854628E+01  0.44891884461E+01  0.51100000000E-03 0.  1.
         12    1    3    3    0    0  0.76219003148E+01  0.43657908912E+01  0.17927705155E+01  0.89647933961E+01  0.00000000000E+00 0. -1.
</event>
<event>
 7    1  0.1486782E-008  0.4614232E+02  0.7816164E-02  0.1320468E+00
        -11   -1    0    0    0    0  0.00000000000E+00  0.00000000000E+00  0.45593999997E+02  0.45594000000E+02  0.51100000000E-03 0. -1.
         11   -1    0    0    0    0 -0.00000000000E+00 -0.00000000000E+00 -0.45593999997E+02  0.45594000000E+02  0.51100000000E-03 0.  1.
    9900012    2    1    2    0    0  0.17735266600E+02  0.40554493993E+02 -0.83610394115E+01  0.46142316029E+02  0.99999842067E+01 0.  0.
        -12    1    1    2    0    0 -0.17735266600E+02 -0.40554493993E+02  0.83610394115E+01  0.45045683971E+02  0.00000000000E+00 0.  1.
         11    1    3    3    0    0  0.42632309888E+01  0.21258782518E+02 -0.22986624291E+01  0.21803550671E+02  0.51100000000E-03 0. -1.
        -11    1    3    3    0    0  0.90732885428E+01  0.14050946698E+02 -0.43829752563E+01  0.17290579529E+02  0.51100000000E-03 0.  1.
         12    1    3    3    0    0  0.43987470683E+01  0.52447647762E+01 -0.16794017261E+01  0.70481858294E+01  0.00000000000E+00 0. -1.
</event>
<event>
 7    1  0.1486782E-008  0.4614232E+02  0.7816164E-02  0.1320468E+00
        -11   -1    0    0    0    0  0.00000000000E+00  0.00000000000E+00  0.45593999997E+02  0.45594000000E+02  0.51100000000E-03 0. -1.
         11   -1    0    0    0    0 -0.00000000000E+00 -0.00000000000E+00 -0.45593999997E+02  0.45594000000E+02  0.51100000000E-03 0.  1.
    9900012    2    1    2    0    0  0.88864108324E+01 -0.42842750482E+02  0.10707181663E+02  0.46142319791E+02  0.10000018510E+02 0.  0.
        -12    1    1    2    0    0 -0.88864108324E+01  0.42842750482E+02 -0.10707181663E+02  0.45045680209E+02  0.00000000000E+00 0.  1.
         11    1    3    3    0    0 -0.44983008123E+00 -0.10959764425E+02  0.48406744921E+01  0.11989616889E+02  0.51100000000E-03 0. -1.
        -11    1    3    3    0    0  0.61496747783E+01 -0.27744691327E+02  0.47640838602E+01  0.28814629826E+02  0.51100000000E-03 0.  1.
        -12    1    3    3    0    0  0.31865661354E+01 -0.41382947297E+01  0.11024233102E+01  0.53380730755E+01  0.00000000000E+00 0.  1.
</event>
<event>
 7    1  0.1486782E-008  0.4614232E+02  0.7816164E-02  0.1320468E+00
        -11   -1    0    0    0    0  0.00000000000E+00  0.00000000000E+00  0.45593999997E+02  0.45594000000E+02  0.51100000000E-03 0.  1.
         11   -1    0    0    0    0 -0.00000000000E+00 -0.00000000000E+00 -0.45593999997E+02  0.45594000000E+02  0.51100000000E-03 0. -1.
    9900012    2    1    2    0    0  0.27365031220E+02 -0.19972182420E+02 -0.29688053334E+02  0.46142317465E+02  0.99999973016E+01 0.  0.
        -12    1    1    2    0    0 -0.27365031220E+02  0.19972182420E+02  0.29688053334E+02  0.45045682535E+02  0.00000000000E+00 0.  1.
         11    1    3    3    0    0  0.52564271515E+01 -0.65300697352E+01 -0.47773884690E+01  0.96485894302E+01  0.51100000000E-03 0. -1.
        -11    1    3    3    0    0  0.10595788735E+02 -0.39844013714E+01 -0.75054154009E+01  0.13582247745E+02  0.51100000000E-03 0.  1.
        -12    1    3    3    0    0  0.11512815334E+02 -0.94577113130E+01 -0.17405249464E+02  0.22911480290E+02  0.00000000000E+00 0.  1.
</event>
<event>
 7    1  0.1849169E-008  0.4614232E+02  0.7816164E-02  0.1320468E+00
        -11   -1    0    0    0    0  0.00000000000E+00  0.00000000000E+00  0.45593999997E+02  0.45594000000E+02  0.51100000000E-03 0.  1.
         11   -1    0    0    0    0 -0.00000000000E+00 -0.00000000000E+00 -0.45593999997E+02  0.45594000000E+02  0.51100000000E-03 0. -1.
    9900012    2    1    2    0    0  0.32338723320E+02 -0.19689691804E+02 -0.24405661398E+02  0.46142319879E+02  0.10000019311E+02 0.  0.
        -12    1    1    2    0    0 -0.32338723320E+02  0.19689691804E+02  0.24405661398E+02  0.45045680121E+02  0.00000000000E+00 0.  1.
         11    1    3    3    0    0  0.28409156114E+02 -0.18826499840E+02 -0.23578908624E+02  0.41442516568E+02  0.51100000000E-03 0. -1.
        -11    1    3    3    0    0  0.83744857877E+00  0.73937937500E+00  0.13179022388E-01  0.11172179420E+01  0.51100000000E-03 0.  1.
         12    1    3    3    0    0  0.30921186275E+01 -0.16025713385E+01 -0.83993179654E+00  0.35825853688E+01  0.00000000000E+00 0. -1.
</event>
<event>
 7    1  0.1486782E-008  0.4614232E+02  0.7816164E-02  0.1320468E+00
        -11   -1    0    0    0    0  0.00000000000E+00  0.00000000000E+00  0.45593999997E+02  0.45594000000E+02  0.51100000000E-03 0. -1.
         11   -1    0    0    0    0 -0.00000000000E+00 -0.00000000000E+00 -0.45593999997E+02  0.45594000000E+02  0.51100000000E-03 0.  1.
    9900012    2    1    2    0    0  0.22477087239E+01  0.38090816702E+02  0.23940572496E+02  0.46142317377E+02  0.99999965014E+01 0.  0.
        -12    1    1    2    0    0 -0.22477087239E+01 -0.38090816702E+02 -0.23940572496E+02  0.45045682623E+02  0.00000000000E+00 0.  1.
         11    1    3    3    0    0  0.17546937234E+01  0.13176455137E+02  0.34976074020E+01  0.13745223819E+02  0.51100000000E-03 0. -1.
        -11    1    3    3    0    0 -0.35918001656E+00  0.94913535581E+00  0.24493554091E+00  0.10439645053E+01  0.51100000000E-03 0.  1.
         12    1    3    3    0    0  0.85219501705E+00  0.23965226209E+02  0.20198029553E+02  0.31353129053E+02  0.00000000000E+00 0. -1.
</event>
<event>
 7    1  0.1486782E-008  0.4614232E+02  0.7816164E-02  0.1320468E+00
        -11   -1    0    0    0    0  0.00000000000E+00  0.00000000000E+00  0.45593999997E+02  0.45594000000E+02  0.51100000000E-03 0. -1.
         11   -1    0    0    0    0 -0.00000000000E+00 -0.00000000000E+00 -0.45593999997E+02  0.45594000000E+02  0.51100000000E-03 0.  1.
    9900012    2    1    2    0    0  0.44888938629E+02 -0.26520817783E+01 -0.26576471969E+01  0.46142318324E+02  0.10000005136E+02 0.  0.
        -12    1    1    2    0    0 -0.44888938629E+02  0.26520817783E+01  0.26576471969E+01  0.45045681676E+02  0.00000000000E+00 0.  1.
         11    1    3    3    0    0  0.16601875455E+02  0.51870752295E+00  0.29865367929E+01  0.16876336343E+02  0.51100000000E-03 0. -1.
        -11    1    3    3    0    0  0.27176364639E+02 -0.23343707014E+01 -0.49890267686E+01  0.27728946427E+02  0.51100000000E-03 0.  1.
        -12    1    3    3    0    0  0.11106985355E+01 -0.83641859986E+00 -0.65515722118E+00  0.15370355544E+01  0.00000000000E+00 0.  1.
</event>
<event>
 7    1  0.1486782E-008  0.4614232E+02  0.7816164E-02  0.1320468E+00
        -11   -1    0    0    0    0  0.00000000000E+00  0.00000000000E+00  0.45593999997E+02  0.45594000000E+02  0.51100000000E-03 0.  1.
         11   -1    0    0    0    0 -0.00000000000E+00 -0.00000000000E+00 -0.45593999997E+02  0.45594000000E+02  0.51100000000E-03 0. -1.
    9900012    2    1    2    0    0 -0.18532490012E+02 -0.39752346374E+02 -0.10266996774E+02  0.46142318176E+02  0.10000003779E+02 0.  0.
        -12    1    1    2    0    0  0.18532490012E+02  0.39752346374E+02  0.10266996774E+02  0.45045681824E+02  0.00000000000E+00 0.  1.
         11    1    3    3    0    0 -0.72456274914E+01 -0.24012074794E+02 -0.49795315664E+01  0.25570971600E+02  0.51100000000E-03 0. -1.
        -11    1    3    3    0    0  0.26409514176E+00 -0.15523546474E+01 -0.24345043974E+00  0.15933673691E+01  0.51100000000E-03 0.  1.
         12    1    3    3    0    0 -0.11550957663E+02 -0.14187916932E+02 -0.50440147674E+01  0.18977979207E+02  0.00000000000E+00 0. -1.
</event>
<event>
 7    1  0.1486782E-008  0.4614232E+02  0.7816164E-02  0.1320468E+00
        -11   -1    0    0    0    0  0.00000000000E+00  0.00000000000E+00  0.45593999997E+02  0.45594000000E+02  0.51100000000E-03 0.  1.
         11   -1    0    0    0    0 -0.00000000000E+00 -0.00000000000E+00 -0.45593999997E+02  0.45594000000E+02  0.51100000000E-03 0. -1.
    9900012    2    1    2    0    0  0.24555187856E+02 -0.11516279872E+02 -0.35965699578E+02  0.46142317645E+02  0.99999989373E+01 0.  0.
        -12    1    1    2    0    0 -0.24555187856E+02  0.11516279872E+02  0.35965699578E+02  0.45045682355E+02  0.00000000000E+00 0.  1.
         11    1    3    3    0    0  0.34546744718E+01 -0.11611766331E+01 -0.10965795623E+02  0.11555595215E+02  0.51100000000E-03 0. -1.
        -11    1    3    3    0    0  0.11800848680E+02 -0.34991896976E+01 -0.13873286833E+02  0.18546494168E+02  0.51100000000E-03 0.  1.
         12    1    3    3    0    0  0.92996647044E+01 -0.68559135408E+01 -0.11126617122E+02  0.16040228262E+02  0.00000000000E+00 0. -1.
</event>
<event>
 7    1  0.1486782E-008  0.4614232E+02  0.7816164E-02  0.1320468E+00
        -11   -1    0    0    0    0  0.00000000000E+00  0.00000000000E+00  0.45593999997E+02  0.45594000000E+02  0.51100000000E-03 0. -1.
         11   -1    0    0    0    0 -0.00000000000E+00 -0.00000000000E+00 -0.45593999997E+02  0.45594000000E+02  0.51100000000E-03 0.  1.
    9900012    2    1    2    0    0 -0.28699732350E+02 -0.29887512559E+02  0.17668487034E+02  0.46142317876E+02  0.10000001052E+02 0.  0.
        -12    1    1    2    0    0  0.28699732350E+02  0.29887512559E+02 -0.17668487034E+02  0.45045682124E+02  0.00000000000E+00 0.  1.
         11    1    3    3    0    0 -0.15981254208E+02 -0.20484710898E+02  0.13925449501E+02  0.29477822353E+02  0.51100000000E-03 0. -1.
        -11    1    3    3    0    0 -0.53406548050E+01 -0.22148613102E+01  0.24643716605E+01  0.62850085371E+01  0.51100000000E-03 0.  1.
         12    1    3    3    0    0 -0.73778233370E+01 -0.71879403508E+01  0.12786658723E+01  0.10379486986E+02  0.00000000000E+00 0. -1.
</event>
<event>
 7    1  0.1486782E-008  0.4614232E+02  0.7816164E-02  0.1320468E+00
        -11   -1    0    0    0    0  0.00000000000E+00  0.00000000000E+00  0.45593999997E+02  0.45594000000E+02  0.51100000000E-03 0.  1.
         11   -1    0    0    0    0 -0.00000000000E+00 -0.00000000000E+00 -0.45593999997E+02  0.45594000000E+02  0.51100000000E-03 0. -1.
    9900012    2    1    2    0    0  0.39168344674E+02 -0.17362273618E+02  0.13910634874E+02  0.46142317274E+02  0.99999955576E+01 0.  0.
        -12    1    1    2    0    0 -0.39168344674E+02  0.17362273618E+02 -0.13910634874E+02  0.45045682726E+02  0.00000000000E+00 0.  1.
         11    1    3    3    0    0  0.11080582284E+02 -0.16452094642E+01  0.48591156271E+01  0.12210529181E+02  0.51100000000E-03 0. -1.
        -11    1    3    3    0    0  0.65054664595E+01 -0.65702216268E+01  0.30350295672E+01  0.97314084703E+01  0.51100000000E-03 0.  1.
         12    1    3    3    0    0  0.21582295930E+02 -0.91468425272E+01  0.60164896793E+01  0.24200379623E+02  0.00000000000E+00 0. -1.
</event>
<event>
 7    1  0.1486782E-008  0.4614232E+02  0.7816164E-02  0.1320468E+00
        -11   -1    0    0    0    0  0.00000000000E+00  0.00000000000E+00  0.45593999997E+02  0.45594000000E+02  0.51100000000E-03 0.  1.
         11   -1    0    0    0    0 -0.00000000000E+00 -0.00000000000E+00 -0.45593999997E+02  0.45594000000E+02  0.51100000000E-03 0. -1.
    9900012    2    1    2    0    0 -0.20705453487E+02 -0.15473515400E+02 -0.36891297466E+02  0.46142319723E+02  0.10000017890E+02 0.  0.
        -12    1    1    2    0    0  0.20705453487E+02  0.15473515400E+02  0.36891297466E+02  0.45045680277E+02  0.00000000000E+00 0.  1.
         11    1    3    3    0    0 -0.62950610901E+01 -0.11842835246E+01 -0.12878539090E+02  0.14383570174E+02  0.51100000000E-03 0. -1.
        -11    1    3    3    0    0 -0.96995166790E+01 -0.74758155395E+01 -0.11832299006E+02  0.17028556657E+02  0.51100000000E-03 0.  1.
         12    1    3    3    0    0 -0.47108757180E+01 -0.68134163355E+01 -0.12180459369E+02  0.14730192892E+02  0.00000000000E+00 0. -1.
</event>
<event>
 7    1  0.1486782E-008  0.4614232E+02  0.7816164E-02  0.1320468E+00
        -11   -1    0    0    0    0  0.00000000000E+00  0.00000000000E+00  0.45593999997E+02  0.45594000000E+02  0.51100000000E-03 0.  1.
         11   -1    0    0    0    0 -0.00000000000E+00 -0.00000000000E+00 -0.45593999997E+02  0.45594000000E+02  0.51100000000E-03 0. -1.
    9900012    2    1    2    0    0  0.37129396998E+02  0.15333782324E+02 -0.20381273794E+02  0.46142319594E+02  0.10000016709E+02 0.  0.
        -12    1    1    2    0    0 -0.37129396998E+02 -0.15333782324E+02  0.20381273794E+02  0.45045680406E+02  0.00000000000E+00 0.  1.
         11    1    3    3    0    0  0.16020179460E+02  0.89973475708E+01 -0.89967239070E+01  0.20458236839E+02  0.51100000000E-03 0. -1.
        -11    1    3    3    0    0  0.24071203150E+01 -0.19177748587E+00  0.65698543234E+00  0.25025261107E+01  0.51100000000E-03 0.  1.
         12    1    3    3    0    0  0.18702097224E+02  0.65282122390E+01 -0.12041535319E+02  0.23181556644E+02  0.00000000000E+00 0. -1.
</event>
<event>
 7    1  0.1486782E-008  0.4614232E+02  0.7816164E-02  0.1320468E+00
        -11   -1    0    0    0    0  0.00000000000E+00  0.00000000000E+00  0.45593999997E+02  0.45594000000E+02  0.51100000000E-03 0. -1.
         11   -1    0    0    0    0 -0.00000000000E+00 -0.00000000000E+00 -0.45593999997E+02  0.45594000000E+02  0.51100000000E-03 0.  1.
    9900012    2    1    2    0    0 -0.25355593769E+02  0.37164975265E+02 -0.22297941212E+01  0.46142317592E+02  0.99999984541E+01 0.  0.
        -12    1    1    2    0    0  0.25355593769E+02 -0.37164975265E+02  0.22297941212E+01  0.45045682408E+02  0.00000000000E+00 0.  1.
         11    1    3    3    0    0 -0.14434121568E+02  0.17636876247E+02 -0.13110160919E+01  0.22828097438E+02  0.51100000000E-03 0. -1.
        -11    1    3    3    0    0 -0.75786127824E+01  0.69992775213E+01 -0.78999300541E+00  0.10346465422E+02  0.51100000000E-03 0.  1.
        -12    1    3    3    0    0 -0.33428594189E+01  0.12528821497E+02 -0.12878502394E+00  0.12967754731E+02  0.00000000000E+00 0.  1.
</event>
<event>
 7    1  0.1486782E-008  0.4614232E+02  0.7816164E-02  0.1320468E+00
        -11   -1    0    0    0    0  0.00000000000E+00  0.00000000000E+00  0.45593999997E+02  0.45594000000E+02  0.51100000000E-03 0. -1.
         11   -1    0    0    0    0 -0.00000000000E+00 -0.00000000000E+00 -0.45593999997E+02  0.45594000000E+02  0.51100000000E-03 0.  1.
    9900012    2    1    2    0    0 -0.42957456712E+02 -0.12497034293E+02  0.52530459876E+01  0.46142318238E+02  0.10000004345E+02 0.  0.
        -12    1    1    2    0    0  0.42957456712E+02  0.12497034293E+02 -0.52530459876E+01  0.45045681762E+02  0.00000000000E+00 0.  1.
         11    1    3    3    0    0 -0.26095848927E+02 -0.52300082224E+01  0.39748936516E+01  0.26909962784E+02  0.51100000000E-03 0. -1.
        -11    1    3    3    0    0 -0.66996421609E+01 -0.77684498807E+00 -0.13821015507E+01  0.68846857719E+01  0.51100000000E-03 0.  1.
        -12    1    3    3    0    0 -0.10161965624E+02 -0.64901810823E+01  0.26602538868E+01  0.12347669682E+02  0.00000000000E+00 0.  1.
</event>
<event>
 7    1  0.1486782E-008  0.4614232E+02  0.7816164E-02  0.1320468E+00
        -11   -1    0    0    0    0  0.00000000000E+00  0.00000000000E+00  0.45593999997E+02  0.45594000000E+02  0.51100000000E-03 0. -1.
         11   -1    0    0    0    0 -0.00000000000E+00 -0.00000000000E+00 -0.45593999997E+02  0.45594000000E+02  0.51100000000E-03 0.  1.
    9900012    2    1    2    0    0  0.31340178261E+02 -0.28707754460E+02  0.14925533618E+02  0.46142317706E+02  0.99999994975E+01 0.  0.
        -12    1    1    2    0    0 -0.31340178261E+02  0.28707754460E+02 -0.14925533618E+02  0.45045682294E+02  0.00000000000E+00 0.  1.
         11    1    3    3    0    0  0.14260626754E+02 -0.13735047010E+02  0.61820877283E+01  0.20742111771E+02  0.51100000000E-03 0. -1.
        -11    1    3    3    0    0  0.17673985288E+02 -0.14464759336E+02  0.90418990397E+01  0.24563284738E+02  0.51100000000E-03 0.  1.
        -12    1    3    3    0    0 -0.59443378148E+00 -0.50794811394E+00 -0.29845314991E+00  0.83692119684E+00  0.00000000000E+00 0.  1.
</event>
<event>
 7    1  0.1486782E-008  0.4614232E+02  0.7816164E-02  0.1320468E+00
        -11   -1    0    0    0    0  0.00000000000E+00  0.00000000000E+00  0.45593999997E+02  0.45594000000E+02  0.51100000000E-03 0.  1.
         11   -1    0    0    0    0 -0.00000000000E+00 -0.00000000000E+00 -0.45593999997E+02  0.45594000000E+02  0.51100000000E-03 0. -1.
    9900012    2    1    2    0    0 -0.52995284451E+01  0.43799248774E+02 -0.90914133812E+01  0.46142323269E+02  0.10000050226E+02 0.  0.
        -12    1    1    2    0    0  0.52995284451E+01 -0.43799248774E+02  0.90914133812E+01  0.45045676731E+02  0.00000000000E+00 0.  1.
         11    1    3    3    0    0  0.15625406732E+01  0.18527477212E+02 -0.42198068521E+01  0.19066088097E+02  0.51100000000E-03 0. -1.
        -11    1    3    3    0    0 -0.55630322557E+01  0.20846490708E+02 -0.58639989595E+01  0.22358666927E+02  0.51100000000E-03 0.  1.
        -12    1    3    3    0    0 -0.12990368626E+01  0.44252808536E+01  0.99239243046E+00  0.47175682443E+01  0.00000000000E+00 0.  1.
</event>
<event>
 7    1  0.1486782E-008  0.4614231E+02  0.7816164E-02  0.1320468E+00
        -11   -1    0    0    0    0  0.00000000000E+00  0.00000000000E+00  0.45593999997E+02  0.45594000000E+02  0.51100000000E-03 0. -1.
         11   -1    0    0    0    0 -0.00000000000E+00 -0.00000000000E+00 -0.45593999997E+02  0.45594000000E+02  0.51100000000E-03 0.  1.
    9900012    2    1    2    0    0 -0.74887366027E+01 -0.43256135887E+02  0.10096498140E+02  0.46142314941E+02  0.99999742840E+01 0.  0.
        -12    1    1    2    0    0  0.74887366027E+01  0.43256135887E+02 -0.10096498140E+02  0.45045685059E+02  0.00000000000E+00 0.  1.
         11    1    3    3    0    0  0.14763227943E+01 -0.54108908060E+01  0.63445904078E+00  0.56444492064E+01  0.51100000000E-03 0. -1.
        -11    1    3    3    0    0 -0.66887822636E+01 -0.20127739903E+02  0.76314634616E+01  0.22541183567E+02  0.51100000000E-03 0.  1.
        -12    1    3    3    0    0 -0.22762771334E+01 -0.17717505178E+02  0.18305756373E+01  0.17956682168E+02  0.00000000000E+00 0.  1.
</event>
<event>
 7    1  0.1486782E-008  0.4614232E+02  0.7816164E-02  0.1320468E+00
        -11   -1    0    0    0    0  0.00000000000E+00  0.00000000000E+00  0.45593999997E+02  0.45594000000E+02  0.51100000000E-03 0.  1.
         11   -1    0    0    0    0 -0.00000000000E+00 -0.00000000000E+00 -0.45593999997E+02  0.45594000000E+02  0.51100000000E-03 0. -1.
    9900012    2    1    2    0    0  0.32866269400E+02 -0.12931863982E+02 -0.27958697611E+02  0.46142317161E+02  0.99999945305E+01 0.  0.
        -12    1    1    2    0    0 -0.32866269400E+02  0.12931863982E+02  0.27958697611E+02  0.45045682839E+02  0.00000000000E+00 0.  1.
         11    1    3    3    0    0  0.47348801938E+01 -0.35682484992E+01 -0.94328984094E+01  0.11141411960E+02  0.51100000000E-03 0. -1.
        -11    1    3    3    0    0  0.18356161047E+02 -0.68903832066E+01 -0.11898065443E+02  0.22934471668E+02  0.51100000000E-03 0.  1.
         12    1    3    3    0    0  0.97752281587E+01 -0.24732322760E+01 -0.66277337582E+01  0.12066433533E+02  0.00000000000E+00 0. -1.
</event>
<event>
 7    1  0.1486782E-008  0.4614232E+02  0.7816164E-02  0.1320468E+00
        -11   -1    0    0    0    0  0.00000000000E+00  0.00000000000E+00  0.45593999997E+02  0.45594000000E+02  0.51100000000E-03 0.  1.
         11   -1    0    0    0    0 -0.00000000000E+00 -0.00000000000E+00 -0.45593999997E+02  0.45594000000E+02  0.51100000000E-03 0. -1.
    9900012    2    1    2    0    0 -0.19068931556E+02  0.20129368349E+02 -0.35500675756E+02  0.46142316522E+02  0.99999887034E+01 0.  0.
        -12    1    1    2    0    0  0.19068931556E+02 -0.20129368349E+02  0.35500675756E+02  0.45045683478E+02  0.00000000000E+00 0.  1.
         11    1    3    3    0    0 -0.23555587760E+01  0.81264130976E+01 -0.75028324974E+01  0.11308392579E+02  0.51100000000E-03 0. -1.
        -11    1    3    3    0    0 -0.11276491235E+02  0.81504220196E+01 -0.20806775433E+02  0.25030192525E+02  0.51100000000E-03 0.  1.
         12    1    3    3    0    0 -0.54368815450E+01  0.38525332323E+01 -0.71910678261E+01  0.98037314181E+01  0.00000000000E+00 0. -1.
</event>
<event>
 7    1  0.1486782E-008  0.4614232E+02  0.7816164E-02  0.1320468E+00
        -11   -1    0    0    0    0  0.00000000000E+00  0.00000000000E+00  0.45593999997E+02  0.45594000000E+02  0.51100000000E-03 0. -1.
         11   -1    0    0    0    0 -0.00000000000E+00 -0.00000000000E+00 -0.45593999997E+02  0.45594000000E+02  0.51100000000E-03 0.  1.
    9900012    2    1    2    0    0  0.57694254951E+01 -0.69679264938E+01  0.44127942056E+02  0.46142317185E+02  0.99999947499E+01 0.  0.
        -12    1    1    2    0    0 -0.57694254951E+01  0.69679264938E+01 -0.44127942056E+02  0.45045682815E+02  0.00000000000E+00 0.  1.
         11    1    3    3    0    0  0.13574727398E+01 -0.36338036300E+01  0.45917051112E+01  0.60109081802E+01  0.51100000000E-03 0. -1.
        -11    1    3    3    0    0 -0.12556421043E+00 -0.57222332627E+00  0.15679402477E+02  0.15690343152E+02  0.51100000000E-03 0.  1.
         12    1    3    3    0    0  0.45375169657E+01 -0.27618995375E+01  0.23856834467E+02  0.24441065854E+02  0.00000000000E+00 0. -1.
</event>
<event>
 7    1  0.1486782E-008  0.4614232E+02  0.7816164E-02  0.1320468E+00
        -11   -1    0    0    0    0  0.00000000000E+00  0.00000000000E+00  0.45593999997E+02  0.45594000000E+02  0.51100000000E-03 0.  1.
         11   -1    0    0    0    0 -0.00000000000E+00 -0.00000000000E+00 -0.45593999997E+02  0.45594000000E+02  0.51100000000E-03 0. -1.
    9900012    2    1    2    0    0 -0.16338538753E+02  0.15193643788E+02 -0.39132069364E+02  0.46142317490E+02  0.99999975278E+01 0.  0.
        -12    1    1    2    0    0  0.16338538753E+02 -0.15193643788E+02  0.39132069364E+02  0.45045682510E+02  0.00000000000E+00 0.  1.
         11    1    3    3    0    0 -0.12383263266E+02  0.77140623726E+01 -0.16810148010E+02  0.22258325269E+02  0.51100000000E-03 0. -1.
        -11    1    3    3    0    0 -0.18197889581E+01  0.42577898718E+01 -0.12121479125E+02  0.12975772149E+02  0.51100000000E-03 0.  1.
         12    1    3    3    0    0 -0.21354865285E+01  0.32217915432E+01 -0.10200442229E+02  0.10908220072E+02  0.00000000000E+00 0. -1.
</event>
<event>
 7    1  0.1486782E-008  0.4614232E+02  0.7816164E-02  0.1320468E+00
        -11   -1    0    0    0    0  0.00000000000E+00  0.00000000000E+00  0.45593999997E+02  0.45594000000E+02  0.51100000000E-03 0.  1.
         11   -1    0    0    0    0 -0.00000000000E+00 -0.00000000000E+00 -0.45593999997E+02  0.45594000000E+02  0.51100000000E-03 0. -1.
    9900012    2    1    2    0    0  0.19275646095E+02  0.29249806667E+02 -0.28319813943E+02  0.46142316697E+02  0.99999902976E+01 0.  0.
        -12    1    1    2    0    0 -0.19275646095E+02 -0.29249806667E+02  0.28319813943E+02  0.45045683303E+02  0.00000000000E+00 0.  1.
         11    1    3    3    0    0  0.10443701197E+02  0.17897049786E+02 -0.19560949784E+02  0.28495719722E+02  0.51100000000E-03 0. -1.
        -11    1    3    3    0    0 -0.51522908387E+00 -0.52386082760E-01 -0.48659229854E-01  0.52016660053E+00  0.51100000000E-03 0.  1.
         12    1    3    3    0    0  0.93471739822E+01  0.11405142964E+02 -0.87102049289E+01  0.17126430375E+02  0.00000000000E+00 0. -1.
</event>
<event>
 7    1  0.1486782E-008  0.4614232E+02  0.7816164E-02  0.1320468E+00
        -11   -1    0    0    0    0  0.00000000000E+00  0.00000000000E+00  0.45593999997E+02  0.45594000000E+02  0.51100000000E-03 0.  1.
         11   -1    0    0    0    0 -0.00000000000E+00 -0.00000000000E+00 -0.45593999997E+02  0.45594000000E+02  0.51100000000E-03 0. -1.
    9900012    2    1    2    0    0 -0.23742728177E+02  0.27390787372E+00 -0.38279517201E+02  0.46142316478E+02  0.99999883019E+01 0.  0.
        -12    1    1    2    0    0  0.23742728177E+02 -0.27390787372E+00  0.38279517201E+02  0.45045683522E+02  0.00000000000E+00 0.  1.
         11    1    3    3    0    0 -0.87357512884E+01  0.12661245938E+01 -0.14542645047E+02  0.17011906045E+02  0.51100000000E-03 0. -1.
        -11    1    3    3    0    0 -0.26592494540E+01 -0.31709804297E+01 -0.40547999612E+01  0.57938007845E+01  0.51100000000E-03 0.  1.
        -12    1    3    3    0    0 -0.12347727435E+02  0.21787637096E+01 -0.19682072193E+02  0.23336609649E+02  0.00000000000E+00 0.  1.
</event>
<event>
 7    1  0.1486782E-008  0.4614232E+02  0.7816164E-02  0.1320468E+00
        -11   -1    0    0    0    0  0.00000000000E+00  0.00000000000E+00  0.45593999997E+02  0.45594000000E+02  0.51100000000E-03 0. -1.
         11   -1    0    0    0    0 -0.00000000000E+00 -0.00000000000E+00 -0.45593999997E+02  0.45594000000E+02  0.51100000000E-03 0.  1.
    9900012    2    1    2    0    0  0.37089745729E+02 -0.60444837488E+01  0.24838044743E+02  0.46142317758E+02  0.99999999671E+01 0.  0.
        -12    1    1    2    0    0 -0.37089745729E+02  0.60444837488E+01 -0.24838044743E+02  0.45045682242E+02  0.00000000000E+00 0.  1.
         11    1    3    3    0    0  0.29403148537E+02 -0.51643100869E+01  0.23504557419E+02  0.37995782164E+02  0.51100000000E-03 0. -1.
        -11    1    3    3    0    0  0.58071623906E+01  0.16154311186E+00  0.46212703329E+00  0.58277605359E+01  0.51100000000E-03 0.  1.
         12    1    3    3    0    0  0.18794348019E+01 -0.10417167737E+01  0.87136029070E+00  0.23187750575E+01  0.00000000000E+00 0. -1.
</event>
<event>
 7    1  0.1486782E-008  0.4614232E+02  0.7816164E-02  0.1320468E+00
        -11   -1    0    0    0    0  0.00000000000E+00  0.00000000000E+00  0.45593999997E+02  0.45594000000E+02  0.51100000000E-03 0.  1.
         11   -1    0    0    0    0 -0.00000000000E+00 -0.00000000000E+00 -0.45593999997E+02  0.45594000000E+02  0.51100000000E-03 0. -1.
    9900012    2    1    2    0    0  0.29411393125E+02  0.32697681731E+02 -0.97439823902E+01  0.46142316201E+02  0.99999857704E+01 0.  0.
        -12    1    1    2    0    0 -0.29411393125E+02 -0.32697681731E+02  0.97439823902E+01  0.45045683799E+02  0.00000000000E+00 0.  1.
         11    1    3    3    0    0  0.97776211932E+01  0.16209762828E+02 -0.41514619135E+01  0.19380219901E+02  0.51100000000E-03 0. -1.
        -11    1    3    3    0    0  0.17892205026E+02  0.16582487919E+02 -0.48808447251E+01  0.24878355085E+02  0.51100000000E-03 0.  1.
         12    1    3    3    0    0  0.17415669060E+01 -0.94569015608E-01 -0.71167575161E+00  0.18837412142E+01  0.00000000000E+00 0. -1.
</event>
<event>
 7    1  0.1486782E-008  0.4614232E+02  0.7816164E-02  0.1320468E+00
        -11   -1    0    0    0    0  0.00000000000E+00  0.00000000000E+00  0.45593999997E+02  0.45594000000E+02  0.51100000000E-03 0. -1.
         11   -1    0    0    0    0 -0.00000000000E+00 -0.00000000000E+00 -0.45593999997E+02  0.45594000000E+02  0.51100000000E-03 0.  1.
    9900012    2    1    2    0    0  0.62323367623E+01 -0.31096566037E+02  0.31988671391E+02  0.46142317208E+02  0.99999949598E+01 0.  0.
        -12    1    1    2    0    0 -0.62323367623E+01  0.31096566037E+02 -0.31988671391E+02  0.45045682792E+02  0.00000000000E+00 0.  1.
         11    1    3    3    0    0  0.18494957423E+01 -0.71944057966E+01  0.53488412881E+01  0.91536993971E+01  0.51100000000E-03 0. -1.
        -11    1    3    3    0    0 -0.15679731564E+01 -0.12347656632E+02  0.10636581426E+02  0.16372538862E+02  0.51100000000E-03 0.  1.
        -12    1    3    3    0    0  0.59508141764E+01 -0.11554503608E+02  0.16003248677E+02  0.20616078949E+02  0.00000000000E+00 0.  1.
</event>
<event>
 7    1  0.1486782E-008  0.4614232E+02  0.7816164E-02  0.1320468E+00
        -11   -1    0    0    0    0  0.00000000000E+00  0.00000000000E+00  0.45593999997E+02  0.45594000000E+02  0.51100000000E-03 0.  1.
         11   -1    0    0    0    0 -0.00000000000E+00 -0.00000000000E+00 -0.45593999997E+02  0.45594000000E+02  0.51100000000E-03 0. -1.
    9900012    2    1    2    0    0  0.24322636149E+01 -0.22700229332E+02 -0.38831651234E+02  0.46142318125E+02  0.10000003316E+02 0.  0.
        -12    1    1    2    0    0 -0.24322636149E+01  0.22700229332E+02  0.38831651234E+02  0.45045681875E+02  0.00000000000E+00 0.  1.
         11    1    3    3    0    0  0.29005922269E+01 -0.16033014039E+02 -0.21969211574E+02  0.27351731790E+02  0.51100000000E-03 0. -1.
        -11    1    3    3    0    0 -0.15234261043E+01 -0.78432064817E+00 -0.13981912849E+01  0.22115436022E+01  0.51100000000E-03 0.  1.
         12    1    3    3    0    0  0.10550974923E+01 -0.58828946446E+01 -0.15464248375E+02  0.16579042733E+02  0.00000000000E+00 0. -1.
</event>
<event>
 7    1  0.1486782E-008  0.4614232E+02  0.7816164E-02  0.1320468E+00
        -11   -1    0    0    0    0  0.00000000000E+00  0.00000000000E+00  0.45593999997E+02  0.45594000000E+02  0.51100000000E-03 0.  1.
         11   -1    0    0    0    0 -0.00000000000E+00 -0.00000000000E+00 -0.45593999997E+02  0.45594000000E+02  0.51100000000E-03 0. -1.
    9900012    2    1    2    0    0 -0.30699101025E+02 -0.28604129631E+01 -0.32840471420E+02  0.46142319528E+02  0.10000016116E+02 0.  0.
        -12    1    1    2    0    0  0.30699101025E+02  0.28604129631E+01  0.32840471420E+02  0.45045680472E+02  0.00000000000E+00 0.  1.
         11    1    3    3    0    0 -0.69609429518E+01  0.24972593405E+01 -0.10205054910E+02  0.12602943187E+02  0.51100000000E-03 0. -1.
        -11    1    3    3    0    0 -0.17190373147E+02 -0.56420482984E+01 -0.15221869888E+02  0.23644173935E+02  0.51100000000E-03 0.  1.
        -12    1    3    3    0    0 -0.65477849267E+01  0.28437599491E+00 -0.74135466217E+01  0.98952024064E+01  0.00000000000E+00 0.  1.
</event>
<event>
 7    1  0.1486782E-008  0.4614231E+02  0.7816164E-02  0.1320468E+00
        -11   -1    0    0    0    0  0.00000000000E+00  0.00000000000E+00  0.45593999997E+02  0.45594000000E+02  0.51100000000E-03 0.  1.
         11   -1    0    0    0    0 -0.00000000000E+00 -0.00000000000E+00 -0.45593999997E+02  0.45594000000E+02  0.51100000000E-03 0. -1.
    9900012    2    1    2    0    0 -0.38813412161E+02 -0.31519901550E+01 -0.22642831432E+02  0.46142314072E+02  0.99999663582E+01 0.  0.
        -12    1    1    2    0    0  0.38813412161E+02  0.31519901550E+01  0.22642831432E+02  0.45045685928E+02  0.00000000000E+00 0.  1.
         11    1    3    3    0    0 -0.32445824386E+02 -0.23088722123E+01 -0.16255229481E+02  0.36363373011E+02  0.51100000000E-03 0. -1.
        -11    1    3    3    0    0 -0.13823029873E+01 -0.14842969903E+01 -0.33197224488E+01  0.38903028805E+01  0.51100000000E-03 0.  1.
        -12    1    3    3    0    0 -0.49852847872E+01  0.64117904760E+00 -0.30678795023E+01  0.58886381805E+01  0.00000000000E+00 0.  1.
</event>
<event>
 7    1  0.1486782E-008  0.4614231E+02  0.7816164E-02  0.1320468E+00
        -11   -1    0    0    0    0  0.00000000000E+00  0.00000000000E+00  0.45593999997E+02  0.45594000000E+02  0.51100000000E-03 0.  1.
         11   -1    0    0    0    0 -0.00000000000E+00 -0.00000000000E+00 -0.45593999997E+02  0.45594000000E+02  0.51100000000E-03 0. -1.
    9900012    2    1    2    0    0  0.40316868570E+02  0.52215833342E+01 -0.19401004355E+02  0.46142314370E+02  0.99999690809E+01 0.  0.
        -12    1    1    2    0    0 -0.40316868570E+02 -0.52215833342E+01  0.19401004355E+02  0.45045685630E+02  0.00000000000E+00 0.  1.
         11    1    3    3    0    0  0.70795540686E+01  0.15754610935E+01 -0.16981380264E+01  0.74488815594E+01  0.51100000000E-03 0. -1.
        -11    1    3    3    0    0  0.21534369180E+02 -0.93071467004E+00 -0.13546236480E+02  0.25457725916E+02  0.51100000000E-03 0.  1.
        -12    1    3    3    0    0  0.11702945321E+02  0.45768369107E+01 -0.41566298490E+01  0.13235706895E+02  0.00000000000E+00 0.  1.
</event>
<event>
 7    1  0.1486782E-008  0.4614232E+02  0.7816164E-02  0.1320468E+00
        -11   -1    0    0    0    0  0.00000000000E+00  0.00000000000E+00  0.45593999997E+02  0.45594000000E+02  0.51100000000E-03 0.  1.
         11   -1    0    0    0    0 -0.00000000000E+00 -0.00000000000E+00 -0.45593999997E+02  0.45594000000E+02  0.51100000000E-03 0. -1.
    9900012    2    1    2    0    0 -0.44566918198E+02  0.28198631764E+01 -0.59119912086E+01  0.46142318009E+02  0.10000002261E+02 0.  0.
        -12    1    1    2    0    0  0.44566918198E+02 -0.28198631764E+01  0.59119912086E+01  0.45045681991E+02  0.00000000000E+00 0.  1.
         11    1    3    3    0    0 -0.32395159815E+02  0.45537249091E+01 -0.13305286580E+01  0.32740694812E+02  0.51100000000E-03 0. -1.
        -11    1    3    3    0    0 -0.64969693908E+00 -0.74491371699E+00 -0.66793158508E+00  0.11929523972E+01  0.51100000000E-03 0.  1.
         12    1    3    3    0    0 -0.11522061444E+02 -0.98894801565E+00 -0.39135309655E+01  0.12208670800E+02  0.00000000000E+00 0. -1.
</event>
<event>
 7    1  0.1486782E-008  0.4614232E+02  0.7816164E-02  0.1320468E+00
        -11   -1    0    0    0    0  0.00000000000E+00  0.00000000000E+00  0.45593999997E+02  0.45594000000E+02  0.51100000000E-03 0.  1.
         11   -1    0    0    0    0 -0.00000000000E+00 -0.00000000000E+00 -0.45593999997E+02  0.45594000000E+02  0.51100000000E-03 0. -1.
    9900012    2    1    2    0    0 -0.21590232257E+02 -0.11826781373E+02 -0.37724031977E+02  0.46142317908E+02  0.10000001338E+02 0.  0.
        -12    1    1    2    0    0  0.21590232257E+02  0.11826781373E+02  0.37724031977E+02  0.45045682092E+02  0.00000000000E+00 0.  1.
         11    1    3    3    0    0 -0.47639360338E+01 -0.20381787093E+01 -0.89399649125E+01  0.10333064980E+02  0.51100000000E-03 0. -1.
        -11    1    3    3    0    0 -0.17138143077E+02 -0.10254932992E+02 -0.28996792475E+02  0.35209282482E+02  0.51100000000E-03 0.  1.
        -12    1    3    3    0    0  0.31184685323E+00  0.46633032865E+00  0.21272541091E+00  0.59997044572E+00  0.00000000000E+00 0.  1.
</event>
<event>
 7    1  0.1486782E-008  0.4614232E+02  0.7816164E-02  0.1320468E+00
        -11   -1    0    0    0    0  0.00000000000E+00  0.00000000000E+00  0.45593999997E+02  0.45594000000E+02  0.51100000000E-03 0.  1.
         11   -1    0    0    0    0 -0.00000000000E+00 -0.00000000000E+00 -0.45593999997E+02  0.45594000000E+02  0.51100000000E-03 0. -1.
    9900012    2    1    2    0    0  0.13796157850E+02  0.27051355932E+01 -0.42795581695E+02  0.46142317159E+02  0.99999945084E+01 0.  0.
        -12    1    1    2    0    0 -0.13796157850E+02 -0.27051355932E+01  0.42795581695E+02  0.45045682841E+02  0.00000000000E+00 0.  1.
         11    1    3    3    0    0  0.13180000882E+02  0.29913515707E+01 -0.33560391229E+02  0.36179558693E+02  0.51100000000E-03 0. -1.
        -11    1    3    3    0    0  0.93161294645E+00 -0.15777053139E+01 -0.25110105827E+01  0.31084129627E+01  0.51100000000E-03 0.  1.
         12    1    3    3    0    0 -0.31545597849E+00  0.12914893364E+01 -0.67241798833E+01  0.68543455036E+01  0.00000000000E+00 0. -1.
</event>
<event>
 7    1  0.1486782E-008  0.4614232E+02  0.7816164E-02  0.1320468E+00
        -11   -1    0    0    0    0  0.00000000000E+00  0.00000000000E+00  0.45593999997E+02  0.45594000000E+02  0.51100000000E-03 0.  1.
         11   -1    0    0    0    0 -0.00000000000E+00 -0.00000000000E+00 -0.45593999997E+02  0.45594000000E+02  0.51100000000E-03 0. -1.
    9900012    2    1    2    0    0  0.31396740219E+02 -0.18713220953E+02 -0.26328189379E+02  0.46142317734E+02  0.99999997527E+01 0.  0.
        -12    1    1    2    0    0 -0.31396740219E+02  0.18713220953E+02  0.26328189379E+02  0.45045682266E+02  0.00000000000E+00 0.  1.
         11    1    3    3    0    0  0.21342382579E+02 -0.12688127084E+02 -0.14028047309E+02  0.28517923743E+02  0.51100000000E-03 0. -1.
        -11    1    3    3    0    0  0.17844361034E+00 -0.20978803755E+00 -0.25857726751E+01  0.26003987639E+01  0.51100000000E-03 0.  1.
         12    1    3    3    0    0  0.98759140298E+01 -0.58153058310E+01 -0.97143693950E+01  0.15023995227E+02  0.00000000000E+00 0. -1.
</event>
<event>
 7    1  0.1486782E-008  0.4614233E+02  0.7816164E-02  0.1320468E+00
        -11   -1    0    0    0    0  0.00000000000E+00  0.00000000000E+00  0.45593999997E+02  0.45594000000E+02  0.51100000000E-03 0.  1.
         11   -1    0    0    0    0 -0.00000000000E+00 -0.00000000000E+00 -0.45593999997E+02  0.45594000000E+02  0.51100000000E-03 0. -1.
    9900012    2    1    2    0    0  0.23268099152E+02 -0.22554826271E+02 -0.31288781494E+02  0.46142329024E+02  0.10000102703E+02 0.  0.
        -12    1    1    2    0    0 -0.23268099152E+02  0.22554826271E+02  0.31288781494E+02  0.45045670976E+02  0.00000000000E+00 0.  1.
         11    1    3    3    0    0  0.89824327071E+01 -0.74688103499E+01 -0.13871921545E+02  0.18135529576E+02  0.51100000000E-03 0. -1.
        -11    1    3    3    0    0  0.96173785240E+01 -0.12981318332E+02 -0.10021408009E+02  0.19011502152E+02  0.51100000000E-03 0.  1.
        -12    1    3    3    0    0  0.46682879206E+01 -0.21046975892E+01 -0.73954519401E+01  0.89952972964E+01  0.00000000000E+00 0.  1.
</event>
<event>
 7    1  0.1486782E-008  0.4614232E+02  0.7816164E-02  0.1320468E+00
        -11   -1    0    0    0    0  0.00000000000E+00  0.00000000000E+00  0.45593999997E+02  0.45594000000E+02  0.51100000000E-03 0.  1.
         11   -1    0    0    0    0 -0.00000000000E+00 -0.00000000000E+00 -0.45593999997E+02  0.45594000000E+02  0.51100000000E-03 0. -1.
    9900012    2    1    2    0    0 -0.63742717342E+01  0.30680243070E+02 -0.32360544389E+02  0.46142317764E+02  0.10000000026E+02 0.  0.
        -12    1    1    2    0    0  0.63742717342E+01 -0.30680243070E+02  0.32360544389E+02  0.45045682236E+02  0.00000000000E+00 0.  1.
         11    1    3    3    0    0 -0.43996901429E+01  0.78726125157E+01 -0.64431037185E+01  0.11083721711E+02  0.51100000000E-03 0. -1.
        -11    1    3    3    0    0  0.12258888444E+01  0.16272877227E+02 -0.18471747143E+02  0.24647814903E+02  0.51100000000E-03 0.  1.
        -12    1    3    3    0    0 -0.32004704356E+01  0.65347533267E+01 -0.74456935274E+01  0.10410781150E+02  0.00000000000E+00 0.  1.
</event>
<event>
 7    1  0.1486782E-008  0.4614232E+02  0.7816164E-02  0.1320468E+00
        -11   -1    0    0    0    0  0.00000000000E+00  0.00000000000E+00  0.45593999997E+02  0.45594000000E+02  0.51100000000E-03 0.  1.
         11   -1    0    0    0    0 -0.00000000000E+00 -0.00000000000E+00 -0.45593999997E+02  0.45594000000E+02  0.51100000000E-03 0. -1.
    9900012    2    1    2    0    0 -0.35640213890E+02 -0.40726716417E+01 -0.27245219014E+02  0.46142318081E+02  0.10000002918E+02 0.  0.
        -12    1    1    2    0    0  0.35640213890E+02  0.40726716417E+01  0.27245219014E+02  0.45045681919E+02  0.00000000000E+00 0.  1.
         11    1    3    3    0    0 -0.88617102180E+01 -0.14937678259E+01 -0.12619460427E+02  0.15492321712E+02  0.51100000000E-03 0.  1.
        -11    1    3    3    0    0 -0.22784388014E+02 -0.18585026508E+01 -0.12800186704E+02  0.26199754754E+02  0.51100000000E-03 0. -1.
        -12    1    3    3    0    0 -0.39941156580E+01 -0.72040116492E+00 -0.18255718834E+01  0.44502416147E+01  0.00000000000E+00 0.  1.
</event>
<event>
 7    1  0.1486782E-008  0.4614232E+02  0.7816164E-02  0.1320468E+00
        -11   -1    0    0    0    0  0.00000000000E+00  0.00000000000E+00  0.45593999997E+02  0.45594000000E+02  0.51100000000E-03 0.  1.
         11   -1    0    0    0    0 -0.00000000000E+00 -0.00000000000E+00 -0.45593999997E+02  0.45594000000E+02  0.51100000000E-03 0. -1.
    9900012    2    1    2    0    0 -0.27936465646E+02  0.21363193465E+02 -0.28147495388E+02  0.46142316029E+02  0.99999842081E+01 0.  0.
        -12    1    1    2    0    0  0.27936465646E+02 -0.21363193465E+02  0.28147495388E+02  0.45045683971E+02  0.00000000000E+00 0.  1.
         11    1    3    3    0    0 -0.15809574749E+02  0.13479554530E+02 -0.19819562313E+02  0.28713343494E+02  0.51100000000E-03 0. -1.
        -11    1    3    3    0    0 -0.33253443669E+01  0.78323063849E+00 -0.53939275320E-01  0.34167638341E+01  0.51100000000E-03 0.  1.
        -12    1    3    3    0    0 -0.88015465302E+01  0.71004082963E+01 -0.82739937992E+01  0.14012208701E+02  0.00000000000E+00 0.  1.
</event>
<event>
 7    1  0.1486782E-008  0.4614232E+02  0.7816164E-02  0.1320468E+00
        -11   -1    0    0    0    0  0.00000000000E+00  0.00000000000E+00  0.45593999997E+02  0.45594000000E+02  0.51100000000E-03 0.  1.
         11   -1    0    0    0    0 -0.00000000000E+00 -0.00000000000E+00 -0.45593999997E+02  0.45594000000E+02  0.51100000000E-03 0. -1.
    9900012    2    1    2    0    0 -0.16827690098E+02  0.14945275706E+02 -0.39020264610E+02  0.46142317963E+02  0.10000001844E+02 0.  0.
        -12    1    1    2    0    0  0.16827690098E+02 -0.14945275706E+02  0.39020264610E+02  0.45045682037E+02  0.00000000000E+00 0.  1.
         11    1    3    3    0    0 -0.61098165629E+01  0.62194457301E+01 -0.13649295643E+02  0.16196130261E+02  0.51100000000E-03 0.  1.
        -11    1    3    3    0    0 -0.58218200577E+01  0.60663130426E+01 -0.21704904525E+02  0.23276525158E+02  0.51100000000E-03 0. -1.
        -12    1    3    3    0    0 -0.48960534770E+01  0.26595169330E+01 -0.36660644414E+01  0.66696625443E+01  0.00000000000E+00 0.  1.
</event>
<event>
 7    1  0.1486782E-008  0.4614232E+02  0.7816164E-02  0.1320468E+00
        -11   -1    0    0    0    0  0.00000000000E+00  0.00000000000E+00  0.45593999997E+02  0.45594000000E+02  0.51100000000E-03 0.  1.
         11   -1    0    0    0    0 -0.00000000000E+00 -0.00000000000E+00 -0.45593999997E+02  0.45594000000E+02  0.51100000000E-03 0. -1.
    9900012    2    1    2    0    0 -0.37777848869E+01 -0.44465128697E+02 -0.61395624032E+01  0.46142317019E+02  0.99999932360E+01 0.  0.
        -12    1    1    2    0    0  0.37777848869E+01  0.44465128697E+02  0.61395624032E+01  0.45045682981E+02  0.00000000000E+00 0.  1.
         11    1    3    3    0    0  0.85514167103E+00 -0.86466191054E+01  0.46161310712E+00  0.87010560367E+01  0.51100000000E-03 0. -1.
        -11    1    3    3    0    0 -0.68015340174E+00 -0.22551160220E+02 -0.69045218727E+01  0.23594275969E+02  0.51100000000E-03 0.  1.
        -12    1    3    3    0    0 -0.39527731562E+01 -0.13267349371E+02  0.30334636235E+00  0.13846985014E+02  0.00000000000E+00 0.  1.
</event>
<event>
 7    1  0.1486782E-008  0.4614232E+02  0.7816164E-02  0.1320468E+00
        -11   -1    0    0    0    0  0.00000000000E+00  0.00000000000E+00  0.45593999997E+02  0.45594000000E+02  0.51100000000E-03 0.  1.
         11   -1    0    0    0    0 -0.00000000000E+00 -0.00000000000E+00 -0.45593999997E+02  0.45594000000E+02  0.51100000000E-03 0. -1.
    9900012    2    1    2    0    0 -0.26330685314E+01 -0.34417000082E+02 -0.28942192321E+02  0.46142318288E+02  0.10000004809E+02 0.  0.
        -12    1    1    2    0    0  0.26330685314E+01  0.34417000082E+02  0.28942192321E+02  0.45045681712E+02  0.00000000000E+00 0.  1.
         11    1    3    3    0    0 -0.20409118172E+01 -0.10634666431E+02 -0.57994791903E+01  0.12283949295E+02  0.51100000000E-03 0. -1.
        -11    1    3    3    0    0 -0.34290299938E+01 -0.10884672427E+02 -0.12225004032E+02  0.16723787381E+02  0.51100000000E-03 0.  1.
        -12    1    3    3    0    0  0.28368732796E+01 -0.12897661224E+02 -0.10917709099E+02  0.17134581612E+02  0.00000000000E+00 0.  1.
</event>
<event>
 7    1  0.1486782E-008  0.4614231E+02  0.7816164E-02  0.1320468E+00
        -11   -1    0    0    0    0  0.00000000000E+00  0.00000000000E+00  0.45593999997E+02  0.45594000000E+02  0.51100000000E-03 0.  1.
         11   -1    0    0    0    0 -0.00000000000E+00 -0.00000000000E+00 -0.45593999997E+02  0.45594000000E+02  0.51100000000E-03 0. -1.
    9900012    2    1    2    0    0  0.17492215962E+02 -0.41309857322E+02 -0.40782295528E+01  0.46142313331E+02  0.99999596040E+01 0.  0.
        -12    1    1    2    0    0 -0.17492215962E+02  0.41309857322E+02  0.40782295528E+01  0.45045686669E+02  0.00000000000E+00 0.  1.
         11    1    3    3    0    0  0.72849598775E+01 -0.16728676651E+02  0.42440486916E+00  0.18251010456E+02  0.51100000000E-03 0. -1.
        -11    1    3    3    0    0 -0.39308654769E+00 -0.45730575226E+01 -0.23219872217E+01  0.51438309709E+01  0.51100000000E-03 0.  1.
        -12    1    3    3    0    0  0.10600342632E+02 -0.20008123148E+02 -0.21806472002E+01  0.22747471904E+02  0.00000000000E+00 0.  1.
</event>
<event>
 7    1  0.1486782E-008  0.4614232E+02  0.7816164E-02  0.1320468E+00
        -11   -1    0    0    0    0  0.00000000000E+00  0.00000000000E+00  0.45593999997E+02  0.45594000000E+02  0.51100000000E-03 0. -1.
         11   -1    0    0    0    0 -0.00000000000E+00 -0.00000000000E+00 -0.45593999997E+02  0.45594000000E+02  0.51100000000E-03 0.  1.
    9900012    2    1    2    0    0 -0.14222488410E+02 -0.40382661783E+02  0.14002673797E+02  0.46142318490E+02  0.10000006647E+02 0.  0.
        -12    1    1    2    0    0  0.14222488410E+02  0.40382661783E+02 -0.14002673797E+02  0.45045681510E+02  0.00000000000E+00 0.  1.
         11    1    3    3    0    0 -0.11360405621E+01 -0.76168762016E+01  0.47249808308E+01  0.90350891164E+01  0.51100000000E-03 0.  1.
        -11    1    3    3    0    0 -0.39347313004E+01 -0.13023634727E+02  0.67899505776E+01  0.15205282010E+02  0.51100000000E-03 0. -1.
         12    1    3    3    0    0 -0.91517165473E+01 -0.19742150854E+02  0.24877423889E+01  0.21901947363E+02  0.00000000000E+00 0. -1.
</event>
<event>
 7    1  0.1486782E-008  0.4614233E+02  0.7816164E-02  0.1320468E+00
        -11   -1    0    0    0    0  0.00000000000E+00  0.00000000000E+00  0.45593999997E+02  0.45594000000E+02  0.51100000000E-03 0.  1.
         11   -1    0    0    0    0 -0.00000000000E+00 -0.00000000000E+00 -0.45593999997E+02  0.45594000000E+02  0.51100000000E-03 0. -1.
    9900012    2    1    2    0    0  0.13699569178E+02  0.19066535608E+02 -0.38443487773E+02  0.46142326202E+02  0.10000076970E+02 0.  0.
        -12    1    1    2    0    0 -0.13699569178E+02 -0.19066535608E+02  0.38443487773E+02  0.45045673798E+02  0.00000000000E+00 0.  1.
         11    1    3    3    0    0  0.12633240419E+02  0.15629639959E+02 -0.29497948673E+02  0.35693324094E+02  0.51100000000E-03 0. -1.
        -11    1    3    3    0    0 -0.15587810859E+00  0.92051749942E+00 -0.69506787167E+01  0.70131009785E+01  0.51100000000E-03 0.  1.
         12    1    3    3    0    0  0.12222068672E+01  0.25163781495E+01 -0.19948603837E+01  0.34359011290E+01  0.00000000000E+00 0. -1.
</event>
<event>
 7    1  0.1486782E-008  0.4614232E+02  0.7816164E-02  0.1320468E+00
        -11   -1    0    0    0    0  0.00000000000E+00  0.00000000000E+00  0.45593999997E+02  0.45594000000E+02  0.51100000000E-03 0. -1.
         11   -1    0    0    0    0 -0.00000000000E+00 -0.00000000000E+00 -0.45593999997E+02  0.45594000000E+02  0.51100000000E-03 0.  1.
    9900012    2    1    2    0    0 -0.38916489832E+02 -0.22661296788E+02  0.10420343718E+01  0.46142318869E+02  0.10000010102E+02 0.  0.
        -12    1    1    2    0    0  0.38916489832E+02  0.22661296788E+02 -0.10420343718E+01  0.45045681131E+02  0.00000000000E+00 0.  1.
         11    1    3    3    0    0 -0.26464860492E+02 -0.17200927455E+02 -0.98343057424E+00  0.31578915151E+02  0.51100000000E-03 0. -1.
        -11    1    3    3    0    0 -0.46089661257E+01 -0.22761966653E+01  0.31436332030E+01  0.60254518489E+01  0.51100000000E-03 0.  1.
        -12    1    3    3    0    0 -0.78426632143E+01 -0.31841726678E+01 -0.11181682570E+01  0.85379518693E+01  0.00000000000E+00 0.  1.
</event>
<event>
 7    1  0.1486782E-008  0.4614232E+02  0.7816164E-02  0.1320468E+00
        -11   -1    0    0    0    0  0.00000000000E+00  0.00000000000E+00  0.45593999997E+02  0.45594000000E+02  0.51100000000E-03 0. -1.
         11   -1    0    0    0    0 -0.00000000000E+00 -0.00000000000E+00 -0.45593999997E+02  0.45594000000E+02  0.51100000000E-03 0.  1.
    9900012    2    1    2    0    0  0.75473341629E+01  0.40038607528E+02  0.19210965701E+02  0.46142317089E+02  0.99999938720E+01 0.  0.
        -12    1    1    2    0    0 -0.75473341629E+01 -0.40038607528E+02 -0.19210965701E+02  0.45045682911E+02  0.00000000000E+00 0.  1.
         11    1    3    3    0    0 -0.14516801543E+01  0.11991559849E+02  0.41749183462E+01  0.12780251419E+02  0.51100000000E-03 0. -1.
        -11    1    3    3    0    0  0.39603012835E+01  0.61738153639E+01  0.36062786497E+01  0.81734465413E+01  0.51100000000E-03 0.  1.
         12    1    3    3    0    0  0.50387130337E+01  0.21873232315E+02  0.11429768705E+02  0.25188619129E+02  0.00000000000E+00 0. -1.
</event>
<event>
 7    1  0.1486782E-008  0.4614232E+02  0.7816164E-02  0.1320468E+00
        -11   -1    0    0    0    0  0.00000000000E+00  0.00000000000E+00  0.45593999997E+02  0.45594000000E+02  0.51100000000E-03 0.  1.
         11   -1    0    0    0    0 -0.00000000000E+00 -0.00000000000E+00 -0.45593999997E+02  0.45594000000E+02  0.51100000000E-03 0. -1.
    9900012    2    1    2    0    0  0.23695369633E+01  0.41711845059E+02 -0.16841044179E+02  0.46142317714E+02  0.99999995659E+01 0.  0.
        -12    1    1    2    0    0 -0.23695369633E+01 -0.41711845059E+02  0.16841044179E+02  0.45045682286E+02  0.00000000000E+00 0.  1.
         11    1    3    3    0    0 -0.83469962342E+00  0.17723180922E+02 -0.29902874614E+01  0.17993045457E+02  0.51100000000E-03 0. -1.
        -11    1    3    3    0    0  0.27171462747E+01  0.23425714479E+02 -0.13947580754E+02  0.27398576457E+02  0.51100000000E-03 0.  1.
        -12    1    3    3    0    0  0.48709031204E+00  0.56294965754E+00  0.96824036408E-01  0.75069579926E+00  0.00000000000E+00 0.  1.
</event>
<event>
 7    1  0.1486782E-008  0.4614232E+02  0.7816164E-02  0.1320468E+00
        -11   -1    0    0    0    0  0.00000000000E+00  0.00000000000E+00  0.45593999997E+02  0.45594000000E+02  0.51100000000E-03 0.  1.
         11   -1    0    0    0    0 -0.00000000000E+00 -0.00000000000E+00 -0.45593999997E+02  0.45594000000E+02  0.51100000000E-03 0. -1.
    9900012    2    1    2    0    0  0.40502762616E+02 -0.49531023097E+01 -0.19081574184E+02  0.46142317906E+02  0.10000001322E+02 0.  0.
        -12    1    1    2    0    0 -0.40502762616E+02  0.49531023097E+01  0.19081574184E+02  0.45045682094E+02  0.00000000000E+00 0.  1.
         11    1    3    3    0    0  0.19166431865E+02 -0.16423006651E+01 -0.73418380197E+01  0.20590091007E+02  0.51100000000E-03 0. -1.
        -11    1    3    3    0    0  0.16251526653E+02 -0.53661584863E+01 -0.98764317770E+01  0.19759850211E+02  0.51100000000E-03 0.  1.
         12    1    3    3    0    0  0.50848040978E+01  0.20553568417E+01 -0.18633043869E+01  0.57923766882E+01  0.00000000000E+00 0. -1.
</event>
<event>
 7    1  0.1486782E-008  0.4614232E+02  0.7816164E-02  0.1320468E+00
        -11   -1    0    0    0    0  0.00000000000E+00  0.00000000000E+00  0.45593999997E+02  0.45594000000E+02  0.51100000000E-03 0.  1.
         11   -1    0    0    0    0 -0.00000000000E+00 -0.00000000000E+00 -0.45593999997E+02  0.45594000000E+02  0.51100000000E-03 0. -1.
    9900012    2    1    2    0    0  0.46386358879E+01  0.44801366782E+02 -0.65886808296E+00  0.46142317459E+02  0.99999972425E+01 0.  0.
        -12    1    1    2    0    0 -0.46386358879E+01 -0.44801366782E+02  0.65886808296E+00  0.45045682541E+02  0.00000000000E+00 0.  1.
         11    1    3    3    0    0  0.10349763141E+01  0.26422043130E+02 -0.36357990835E+01  0.26691095414E+02  0.51100000000E-03 0. -1.
        -11    1    3    3    0    0  0.42082701085E+01  0.15649177894E+02  0.35676774069E+01  0.16593210311E+02  0.51100000000E-03 0.  1.
        -12    1    3    3    0    0 -0.60461053466E+00  0.27301457578E+01 -0.59074640631E+00  0.28580117344E+01  0.00000000000E+00 0.  1.
</event>
<event>
 7    1  0.1486782E-008  0.4614232E+02  0.7816164E-02  0.1320468E+00
        -11   -1    0    0    0    0  0.00000000000E+00  0.00000000000E+00  0.45593999997E+02  0.45594000000E+02  0.51100000000E-03 0. -1.
         11   -1    0    0    0    0 -0.00000000000E+00 -0.00000000000E+00 -0.45593999997E+02  0.45594000000E+02  0.51100000000E-03 0.  1.
    9900012    2    1    2    0    0  0.73902763237E+01 -0.21253497976E+02  0.39022892028E+02  0.46142318048E+02  0.10000002612E+02 0.  0.
        -12    1    1    2    0    0 -0.73902763237E+01  0.21253497976E+02 -0.39022892028E+02  0.45045681952E+02  0.00000000000E+00 0.  1.
         11    1    3    3    0    0  0.84849794840E+00 -0.13980390575E+02  0.24917607788E+02  0.28584234248E+02  0.51100000000E-03 0. -1.
        -11    1    3    3    0    0  0.56880094285E+01 -0.59007216735E+01  0.13574593360E+02  0.15856908674E+02  0.51100000000E-03 0.  1.
        -12    1    3    3    0    0  0.85376894679E+00 -0.13723857278E+01  0.53069087936E+00  0.17011751261E+01  0.00000000000E+00 0.  1.
</event>
<event>
 7    1  0.1486782E-008  0.4614232E+02  0.7816164E-02  0.1320468E+00
        -11   -1    0    0    0    0  0.00000000000E+00  0.00000000000E+00  0.45593999997E+02  0.45594000000E+02  0.51100000000E-03 0.  1.
         11   -1    0    0    0    0 -0.00000000000E+00 -0.00000000000E+00 -0.45593999997E+02  0.45594000000E+02  0.51100000000E-03 0. -1.
    9900012    2    1    2    0    0 -0.38990691456E+02 -0.37032422442E+01 -0.22251415868E+02  0.46142317283E+02  0.99999956369E+01 0.  0.
        -12    1    1    2    0    0  0.38990691456E+02  0.37032422442E+01  0.22251415868E+02  0.45045682717E+02  0.00000000000E+00 0.  1.
         11    1    3    3    0    0 -0.31641987992E+02 -0.10178185559E+01 -0.18330289847E+02  0.36582111542E+02  0.51100000000E-03 0. -1.
        -11    1    3    3    0    0  0.41219949567E-01 -0.11755129309E+01 -0.50470438881E+00  0.12799439504E+01  0.51100000000E-03 0.  1.
         12    1    3    3    0    0 -0.73899234131E+01 -0.15099107574E+01 -0.34164216328E+01  0.82802617905E+01  0.00000000000E+00 0. -1.
</event>
<event>
 7    1  0.1486782E-008  0.4614232E+02  0.7816164E-02  0.1320468E+00
        -11   -1    0    0    0    0  0.00000000000E+00  0.00000000000E+00  0.45593999997E+02  0.45594000000E+02  0.51100000000E-03 0.  1.
         11   -1    0    0    0    0 -0.00000000000E+00 -0.00000000000E+00 -0.45593999997E+02  0.45594000000E+02  0.51100000000E-03 0. -1.
    9900012    2    1    2    0    0  0.38977853815E+01 -0.44296237769E+02 -0.71947248061E+01  0.46142317894E+02  0.10000001210E+02 0.  0.
        -12    1    1    2    0    0 -0.38977853815E+01  0.44296237769E+02  0.71947248061E+01  0.45045682106E+02  0.00000000000E+00 0.  1.
         11    1    3    3    0    0  0.13065189060E+01 -0.21976541271E+02 -0.69404480458E+01  0.23083439458E+02  0.51100000000E-03 0. -1.
        -11    1    3    3    0    0 -0.81417336887E+00 -0.47560109889E+00  0.99113813459E-01  0.94810257303E+00  0.51100000000E-03 0.  1.
         12    1    3    3    0    0  0.34054398443E+01 -0.21844095399E+02 -0.35339057371E+00  0.22110775862E+02  0.00000000000E+00 0. -1.
</event>
<event>
 7    1  0.1486782E-008  0.4614231E+02  0.7816164E-02  0.1320468E+00
        -11   -1    0    0    0    0  0.00000000000E+00  0.00000000000E+00  0.45593999997E+02  0.45594000000E+02  0.51100000000E-03 0.  1.
         11   -1    0    0    0    0 -0.00000000000E+00 -0.00000000000E+00 -0.45593999997E+02  0.45594000000E+02  0.51100000000E-03 0. -1.
    9900012    2    1    2    0    0  0.25916908462E+02 -0.35009939078E+02 -0.11477468859E+02  0.46142309087E+02  0.99999209002E+01 0.  0.
        -12    1    1    2    0    0 -0.25916908462E+02  0.35009939078E+02  0.11477468859E+02  0.45045690913E+02  0.00000000000E+00 0.  1.
         11    1    3    3    0    0  0.16079735768E+01 -0.71282938994E+00  0.10850815431E+01  0.20666656670E+01  0.51100000000E-03 0. -1.
        -11    1    3    3    0    0  0.19024931395E+01 -0.20036791837E+01 -0.18882663665E+01  0.33466043311E+01  0.51100000000E-03 0.  1.
         12    1    3    3    0    0  0.22406441745E+02 -0.32293430504E+02 -0.10674284036E+02  0.40729039089E+02  0.00000000000E+00 0. -1.
</event>
<event>
 7    1  0.1486782E-008  0.4614232E+02  0.7816164E-02  0.1320468E+00
        -11   -1    0    0    0    0  0.00000000000E+00  0.00000000000E+00  0.45593999997E+02  0.45594000000E+02  0.51100000000E-03 0.  1.
         11   -1    0    0    0    0 -0.00000000000E+00 -0.00000000000E+00 -0.45593999997E+02  0.45594000000E+02  0.51100000000E-03 0. -1.
    9900012    2    1    2    0    0  0.62513625036E+01  0.24120080130E+01 -0.44544542554E+02  0.46142316664E+02  0.99999899990E+01 0.  0.
        -12    1    1    2    0    0 -0.62513625036E+01 -0.24120080130E+01  0.44544542554E+02  0.45045683336E+02  0.00000000000E+00 0.  1.
         11    1    3    3    0    0  0.53458940803E+01  0.58436043682E+01 -0.30222163397E+02  0.31242686443E+02  0.51100000000E-03 0. -1.
        -11    1    3    3    0    0  0.59773754799E-01 -0.28072977585E+01 -0.12343947797E+02  0.12659286752E+02  0.51100000000E-03 0.  1.
        -12    1    3    3    0    0  0.84569466853E+00 -0.62429859677E+00 -0.19784313602E+01  0.22403434686E+01  0.00000000000E+00 0.  1.
</event>
<event>
 7    1  0.1486782E-008  0.4614232E+02  0.7816164E-02  0.1320468E+00
        -11   -1    0    0    0    0  0.00000000000E+00  0.00000000000E+00  0.45593999997E+02  0.45594000000E+02  0.51100000000E-03 0.  1.
         11   -1    0    0    0    0 -0.00000000000E+00 -0.00000000000E+00 -0.45593999997E+02  0.45594000000E+02  0.51100000000E-03 0. -1.
    9900012    2    1    2    0    0  0.33598806899E+02 -0.24552435953E+02 -0.17245623132E+02  0.46142318148E+02  0.10000003530E+02 0.  0.
        -12    1    1    2    0    0 -0.33598806899E+02  0.24552435953E+02  0.17245623132E+02  0.45045681852E+02  0.00000000000E+00 0.  1.
         11    1    3    3    0    0  0.24789407101E+02 -0.13360376557E+02 -0.14026035783E+02  0.31460197810E+02  0.51100000000E-03 0. -1.
        -11    1    3    3    0    0  0.70608818550E+01 -0.98543549514E+01 -0.26881143214E+01  0.12417339608E+02  0.51100000000E-03 0.  1.
         12    1    3    3    0    0  0.17485179428E+01 -0.13377044446E+01 -0.53147302761E+00  0.22647807303E+01  0.00000000000E+00 0. -1.
</event>
<event>
 7    1  0.1486782E-008  0.4614232E+02  0.7816164E-02  0.1320468E+00
        -11   -1    0    0    0    0  0.00000000000E+00  0.00000000000E+00  0.45593999997E+02  0.45594000000E+02  0.51100000000E-03 0. -1.
         11   -1    0    0    0    0 -0.00000000000E+00 -0.00000000000E+00 -0.45593999997E+02  0.45594000000E+02  0.51100000000E-03 0.  1.
    9900012    2    1    2    0    0 -0.44203857177E+01  0.41473350303E+02 -0.17015726190E+02  0.46142317265E+02  0.99999954765E+01 0.  0.
        -12    1    1    2    0    0  0.44203857177E+01 -0.41473350303E+02  0.17015726190E+02  0.45045682735E+02  0.00000000000E+00 0.  1.
         11    1    3    3    0    0 -0.19470044601E+00  0.19965543135E+02 -0.70277051180E+01  0.21167178849E+02  0.51100000000E-03 0. -1.
        -11    1    3    3    0    0  0.47915818572E+00  0.72896669700E+01 -0.66866384281E+00  0.73359354343E+01  0.51100000000E-03 0.  1.
        -12    1    3    3    0    0 -0.47048434574E+01  0.14218140198E+02 -0.93193572296E+01  0.17639202981E+02  0.00000000000E+00 0.  1.
</event>
<event>
 7    1  0.1486782E-008  0.4614232E+02  0.7816164E-02  0.1320468E+00
        -11   -1    0    0    0    0  0.00000000000E+00  0.00000000000E+00  0.45593999997E+02  0.45594000000E+02  0.51100000000E-03 0.  1.
         11   -1    0    0    0    0 -0.00000000000E+00 -0.00000000000E+00 -0.45593999997E+02  0.45594000000E+02  0.51100000000E-03 0. -1.
    9900012    2    1    2    0    0  0.16192348274E+02 -0.27041580585E+02 -0.32181893401E+02  0.46142317787E+02  0.10000000232E+02 0.  0.
        -12    1    1    2    0    0 -0.16192348274E+02  0.27041580585E+02  0.32181893401E+02  0.45045682213E+02  0.00000000000E+00 0.  1.
         11    1    3    3    0    0  0.67602101668E+01 -0.16058184950E+02 -0.13064885300E+02  0.21777441850E+02  0.51100000000E-03 0. -1.
        -11    1    3    3    0    0  0.52218068934E+01 -0.33365869118E+01 -0.61276251148E+01  0.87148074712E+01  0.51100000000E-03 0.  1.
         12    1    3    3    0    0  0.42103312137E+01 -0.76468087236E+01 -0.12989382987E+02  0.15650068465E+02  0.00000000000E+00 0. -1.
</event>
<event>
 7    1  0.1486782E-008  0.4614232E+02  0.7816164E-02  0.1320468E+00
        -11   -1    0    0    0    0  0.00000000000E+00  0.00000000000E+00  0.45593999997E+02  0.45594000000E+02  0.51100000000E-03 0.  1.
         11   -1    0    0    0    0 -0.00000000000E+00 -0.00000000000E+00 -0.45593999997E+02  0.45594000000E+02  0.51100000000E-03 0. -1.
    9900012    2    1    2    0    0 -0.10970662115E+02  0.28683152592E+02 -0.32955043933E+02  0.46142316628E+02  0.99999896660E+01 0.  0.
        -12    1    1    2    0    0  0.10970662115E+02 -0.28683152592E+02  0.32955043933E+02  0.45045683372E+02  0.00000000000E+00 0.  1.
         11    1    3    3    0    0 -0.96900369131E+01  0.25960601003E+02 -0.25192814827E+02  0.37450334298E+02  0.51100000000E-03 0. -1.
        -11    1    3    3    0    0 -0.93165950726E+00 -0.20236319348E+00 -0.22064183310E+01  0.24035853244E+01  0.51100000000E-03 0.  1.
         12    1    3    3    0    0 -0.34896569444E+00  0.29249147823E+01 -0.55558107743E+01  0.62883970055E+01  0.00000000000E+00 0. -1.
</event>
<event>
 7    1  0.1486782E-008  0.4614232E+02  0.7816164E-02  0.1320468E+00
        -11   -1    0    0    0    0  0.00000000000E+00  0.00000000000E+00  0.45593999997E+02  0.45594000000E+02  0.51100000000E-03 0.  1.
         11   -1    0    0    0    0 -0.00000000000E+00 -0.00000000000E+00 -0.45593999997E+02  0.45594000000E+02  0.51100000000E-03 0. -1.
    9900012    2    1    2    0    0 -0.62512915302E+01 -0.60997560841E+01 -0.44190811268E+02  0.46142317958E+02  0.10000001798E+02 0.  0.
        -12    1    1    2    0    0  0.62512915302E+01  0.60997560841E+01  0.44190811268E+02  0.45045682042E+02  0.00000000000E+00 0.  1.
         11    1    3    3    0    0 -0.30843594123E+01 -0.64403870321E+01 -0.17337979600E+02  0.18750930509E+02  0.51100000000E-03 0. -1.
        -11    1    3    3    0    0 -0.54872175552E+00  0.16393599143E+01 -0.17677431533E+02  0.17761761804E+02  0.51100000000E-03 0.  1.
        -12    1    3    3    0    0 -0.26182103624E+01 -0.12987289662E+01 -0.91754001350E+01  0.96296256452E+01  0.00000000000E+00 0.  1.
</event>
<event>
 7    1  0.1486782E-008  0.4614232E+02  0.7816164E-02  0.1320468E+00
        -11   -1    0    0    0    0  0.00000000000E+00  0.00000000000E+00  0.45593999997E+02  0.45594000000E+02  0.51100000000E-03 0.  1.
         11   -1    0    0    0    0 -0.00000000000E+00 -0.00000000000E+00 -0.45593999997E+02  0.45594000000E+02  0.51100000000E-03 0. -1.
    9900012    2    1    2    0    0 -0.74766786706E+01 -0.32869864412E+02 -0.29879503893E+02  0.46142318040E+02  0.10000002540E+02 0.  0.
        -12    1    1    2    0    0  0.74766786706E+01  0.32869864412E+02  0.29879503893E+02  0.45045681960E+02  0.00000000000E+00 0.  1.
         11    1    3    3    0    0 -0.83679743342E+00 -0.59515975820E+00 -0.24202988812E+01  0.26291238118E+01  0.51100000000E-03 0. -1.
        -11    1    3    3    0    0 -0.37573732763E+01 -0.52037743514E+01 -0.66921931789E+01  0.92726787522E+01  0.51100000000E-03 0.  1.
         12    1    3    3    0    0 -0.28825079608E+01 -0.27070930302E+02 -0.20767011833E+02  0.34240515476E+02  0.00000000000E+00 0. -1.
</event>
<event>
 7    1  0.1486782E-008  0.4614232E+02  0.7816164E-02  0.1320468E+00
        -11   -1    0    0    0    0  0.00000000000E+00  0.00000000000E+00  0.45593999997E+02  0.45594000000E+02  0.51100000000E-03 0.  1.
         11   -1    0    0    0    0 -0.00000000000E+00 -0.00000000000E+00 -0.45593999997E+02  0.45594000000E+02  0.51100000000E-03 0. -1.
    9900012    2    1    2    0    0 -0.10038555169E+02  0.13708723795E+02 -0.41718242820E+02  0.46142317832E+02  0.10000000648E+02 0.  0.
        -12    1    1    2    0    0  0.10038555169E+02 -0.13708723795E+02  0.41718242820E+02  0.45045682168E+02  0.00000000000E+00 0.  1.
         11    1    3    3    0    0 -0.48430165668E+01  0.69994930842E+01 -0.28021980993E+02  0.29286159392E+02  0.51100000000E-03 0. -1.
        -11    1    3    3    0    0  0.80809861764E+00  0.15838172847E+01 -0.38142489070E+01  0.42083245541E+01  0.51100000000E-03 0.  1.
         12    1    3    3    0    0 -0.60036372195E+01  0.51254134261E+01 -0.98820129198E+01  0.12647833886E+02  0.00000000000E+00 0. -1.
</event>
<event>
 7    1  0.1486782E-008  0.4614232E+02  0.7816164E-02  0.1320468E+00
        -11   -1    0    0    0    0  0.00000000000E+00  0.00000000000E+00  0.45593999997E+02  0.45594000000E+02  0.51100000000E-03 0.  1.
         11   -1    0    0    0    0 -0.00000000000E+00 -0.00000000000E+00 -0.45593999997E+02  0.45594000000E+02  0.51100000000E-03 0. -1.
    9900012    2    1    2    0    0 -0.30887559541E+02 -0.28531018465E+02 -0.16157138690E+02  0.46142317857E+02  0.10000000877E+02 0.  0.
        -12    1    1    2    0    0  0.30887559541E+02  0.28531018465E+02  0.16157138690E+02  0.45045682143E+02  0.00000000000E+00 0.  1.
         11    1    3    3    0    0 -0.78110474430E+01 -0.54453270612E+01 -0.35779249156E+01  0.10171803966E+02  0.51100000000E-03 0. -1.
        -11    1    3    3    0    0 -0.13275988451E+02 -0.17984271319E+02 -0.10624978817E+02  0.24750273925E+02  0.51100000000E-03 0.  1.
        -12    1    3    3    0    0 -0.98005236467E+01 -0.51014200850E+01 -0.19542349574E+01  0.11220239966E+02  0.00000000000E+00 0.  1.
</event>
<event>
 7    1  0.1486782E-008  0.4614232E+02  0.7816164E-02  0.1320468E+00
        -11   -1    0    0    0    0  0.00000000000E+00  0.00000000000E+00  0.45593999997E+02  0.45594000000E+02  0.51100000000E-03 0. -1.
         11   -1    0    0    0    0 -0.00000000000E+00 -0.00000000000E+00 -0.45593999997E+02  0.45594000000E+02  0.51100000000E-03 0.  1.
    9900012    2    1    2    0    0 -0.35773240698E+02 -0.27186442147E+02 -0.32072169085E+01  0.46142316223E+02  0.99999859730E+01 0.  0.
        -12    1    1    2    0    0  0.35773240698E+02  0.27186442147E+02  0.32072169085E+01  0.45045683777E+02  0.00000000000E+00 0.  1.
         11    1    3    3    0    0 -0.92468193094E+00 -0.21946496097E+01  0.55006541814E+00  0.24441963522E+01  0.51100000000E-03 0. -1.
        -11    1    3    3    0    0 -0.29281302148E+02 -0.17225178373E+02 -0.25777137523E+01  0.34069723126E+02  0.51100000000E-03 0.  1.
        -12    1    3    3    0    0 -0.55672566191E+01 -0.77666141648E+01 -0.11795685744E+01  0.96283967445E+01  0.00000000000E+00 0.  1.
</event>
<event>
 7    1  0.1486782E-008  0.4614232E+02  0.7816164E-02  0.1320468E+00
        -11   -1    0    0    0    0  0.00000000000E+00  0.00000000000E+00  0.45593999997E+02  0.45594000000E+02  0.51100000000E-03 0.  1.
         11   -1    0    0    0    0 -0.00000000000E+00 -0.00000000000E+00 -0.45593999997E+02  0.45594000000E+02  0.51100000000E-03 0. -1.
    9900012    2    1    2    0    0 -0.30978268220E+02  0.14950550620E+02 -0.29085071375E+02  0.46142318269E+02  0.10000004632E+02 0.  0.
        -12    1    1    2    0    0  0.30978268220E+02 -0.14950550620E+02  0.29085071375E+02  0.45045681731E+02  0.00000000000E+00 0.  1.
         11    1    3    3    0    0 -0.20619838382E+02  0.12438942671E+02 -0.18407425874E+02  0.30310697076E+02  0.51100000000E-03 0. -1.
        -11    1    3    3    0    0 -0.82176159677E+01 -0.98560018876E-01 -0.84483089729E+01  0.11786129604E+02  0.51100000000E-03 0.  1.
         12    1    3    3    0    0 -0.21408138698E+01  0.26101679675E+01 -0.22293365280E+01  0.40454915892E+01  0.00000000000E+00 0. -1.
</event>
<event>
 7    1  0.1486782E-008  0.4614232E+02  0.7816164E-02  0.1320468E+00
        -11   -1    0    0    0    0  0.00000000000E+00  0.00000000000E+00  0.45593999997E+02  0.45594000000E+02  0.51100000000E-03 0.  1.
         11   -1    0    0    0    0 -0.00000000000E+00 -0.00000000000E+00 -0.45593999997E+02  0.45594000000E+02  0.51100000000E-03 0. -1.
    9900012    2    1    2    0    0 -0.13418464292E+01 -0.16020253803E+01 -0.44997181448E+02  0.46142319015E+02  0.10000011431E+02 0.  0.
        -12    1    1    2    0    0  0.13418464292E+01  0.16020253803E+01  0.44997181448E+02  0.45045680985E+02  0.00000000000E+00 0.  1.
         11    1    3    3    0    0  0.32386899649E-01 -0.48125629436E+01 -0.27657726817E+02  0.28073326556E+02  0.51100000000E-03 0. -1.
        -11    1    3    3    0    0 -0.24334116662E+01  0.10023875700E+01 -0.87491895176E+01  0.91364429979E+01  0.51100000000E-03 0.  1.
         12    1    3    3    0    0  0.10591783374E+01  0.22081499933E+01 -0.85902651136E+01  0.89325494605E+01  0.00000000000E+00 0. -1.
</event>
<event>
 7    1  0.1486782E-008  0.4614232E+02  0.7816164E-02  0.1320468E+00
        -11   -1    0    0    0    0  0.00000000000E+00  0.00000000000E+00  0.45593999997E+02  0.45594000000E+02  0.51100000000E-03 0. -1.
         11   -1    0    0    0    0 -0.00000000000E+00 -0.00000000000E+00 -0.45593999997E+02  0.45594000000E+02  0.51100000000E-03 0.  1.
    9900012    2    1    2    0    0  0.37789101842E+02 -0.16799253271E+02  0.17857275367E+02  0.46142318609E+02  0.10000007729E+02 0.  0.
        -12    1    1    2    0    0 -0.37789101842E+02  0.16799253271E+02 -0.17857275367E+02  0.45045681391E+02  0.00000000000E+00 0.  1.
         11    1    3    3    0    0  0.31885522906E+01  0.74531213086E+00  0.52665749878E+00  0.33165832214E+01  0.51100000000E-03 0. -1.
        -11    1    3    3    0    0  0.41185821372E+01 -0.42084614023E+01  0.24406166519E+01  0.63742039580E+01  0.51100000000E-03 0.  1.
         12    1    3    3    0    0  0.30481967414E+02 -0.13336103999E+02  0.14890001216E+02  0.36451531429E+02  0.00000000000E+00 0. -1.
</event>
<event>
 7    1  0.1486782E-008  0.4614232E+02  0.7816164E-02  0.1320468E+00
        -11   -1    0    0    0    0  0.00000000000E+00  0.00000000000E+00  0.45593999997E+02  0.45594000000E+02  0.51100000000E-03 0.  1.
         11   -1    0    0    0    0 -0.00000000000E+00 -0.00000000000E+00 -0.45593999997E+02  0.45594000000E+02  0.51100000000E-03 0. -1.
    9900012    2    1    2    0    0 -0.28257309679E+02  0.22262404295E+02 -0.27111312875E+02  0.46142317841E+02  0.10000000732E+02 0.  0.
        -12    1    1    2    0    0  0.28257309679E+02 -0.22262404295E+02  0.27111312875E+02  0.45045682159E+02  0.00000000000E+00 0.  1.
         11    1    3    3    0    0 -0.16015369660E+02  0.11724484449E+02 -0.12202277192E+02  0.23299166720E+02  0.51100000000E-03 0. -1.
        -11    1    3    3    0    0 -0.11012941101E+02  0.98737412313E+01 -0.15409238482E+02  0.21359313389E+02  0.51100000000E-03 0.  1.
        -12    1    3    3    0    0 -0.12289989189E+01  0.66417861437E+00  0.50020279874E+00  0.14838377318E+01  0.00000000000E+00 0.  1.
</event>
<event>
 7    1  0.1486782E-008  0.4614232E+02  0.7816164E-02  0.1320468E+00
        -11   -1    0    0    0    0  0.00000000000E+00  0.00000000000E+00  0.45593999997E+02  0.45594000000E+02  0.51100000000E-03 0. -1.
         11   -1    0    0    0    0 -0.00000000000E+00 -0.00000000000E+00 -0.45593999997E+02  0.45594000000E+02  0.51100000000E-03 0.  1.
    9900012    2    1    2    0    0  0.21999053575E+02 -0.10642052221E+02  0.37840479387E+02  0.46142317477E+02  0.99999974121E+01 0.  0.
        -12    1    1    2    0    0 -0.21999053575E+02  0.10642052221E+02 -0.37840479387E+02  0.45045682523E+02  0.00000000000E+00 0.  1.
         11    1    3    3    0    0  0.15756672470E+02 -0.45956010579E+01  0.19102709409E+02  0.25185427998E+02  0.51100000000E-03 0. -1.
        -11    1    3    3    0    0  0.29946655730E+01 -0.30435790597E+01  0.13176647468E+02  0.13851188907E+02  0.51100000000E-03 0.  1.
         12    1    3    3    0    0  0.32477155316E+01 -0.30028721038E+01  0.55611225103E+01  0.71057005721E+01  0.00000000000E+00 0. -1.
</event>
<event>
 7    1  0.1486782E-008  0.4614231E+02  0.7816164E-02  0.1320468E+00
        -11   -1    0    0    0    0  0.00000000000E+00  0.00000000000E+00  0.45593999997E+02  0.45594000000E+02  0.51100000000E-03 0.  1.
         11   -1    0    0    0    0 -0.00000000000E+00 -0.00000000000E+00 -0.45593999997E+02  0.45594000000E+02  0.51100000000E-03 0. -1.
    9900012    2    1    2    0    0  0.84275605127E+01  0.18240448511E+02 -0.40315955200E+02  0.46142312284E+02  0.99999500586E+01 0.  0.
        -12    1    1    2    0    0 -0.84275605127E+01 -0.18240448511E+02  0.40315955200E+02  0.45045687716E+02  0.00000000000E+00 0.  1.
         11    1    3    3    0    0  0.61215476422E+00  0.72241673910E+01 -0.15827792074E+02  0.17409259897E+02  0.51100000000E-03 0. -1.
        -11    1    3    3    0    0  0.15476245089E+01 -0.58492691593E+00 -0.15085049889E+01  0.22389436527E+01  0.51100000000E-03 0.  1.
         12    1    3    3    0    0  0.62677812396E+01  0.11601208036E+02 -0.22979658137E+02  0.26494108735E+02  0.00000000000E+00 0. -1.
</event>
<event>
 7    1  0.1486782E-008  0.4614232E+02  0.7816164E-02  0.1320468E+00
        -11   -1    0    0    0    0  0.00000000000E+00  0.00000000000E+00  0.45593999997E+02  0.45594000000E+02  0.51100000000E-03 0.  1.
         11   -1    0    0    0    0 -0.00000000000E+00 -0.00000000000E+00 -0.45593999997E+02  0.45594000000E+02  0.51100000000E-03 0. -1.
    9900012    2    1    2    0    0 -0.27661802873E+02 -0.68172170795E+01 -0.34892172554E+02  0.46142317715E+02  0.99999995829E+01 0.  0.
        -12    1    1    2    0    0  0.27661802873E+02  0.68172170795E+01  0.34892172554E+02  0.45045682285E+02  0.00000000000E+00 0.  1.
         11    1    3    3    0    0 -0.12565614873E+02 -0.45330449727E+01 -0.23174342647E+02  0.26748707095E+02  0.51100000000E-03 0. -1.
        -11    1    3    3    0    0 -0.12067208922E+02 -0.27808587382E+01 -0.93353943134E+01  0.15508071889E+02  0.51100000000E-03 0.  1.
         12    1    3    3    0    0 -0.30289790793E+01  0.49668663153E+00 -0.23824355938E+01  0.38855387312E+01  0.00000000000E+00 0. -1.
</event>
<event>
 7    1  0.1486782E-008  0.4614232E+02  0.7816164E-02  0.1320468E+00
        -11   -1    0    0    0    0  0.00000000000E+00  0.00000000000E+00  0.45593999997E+02  0.45594000000E+02  0.51100000000E-03 0.  1.
         11   -1    0    0    0    0 -0.00000000000E+00 -0.00000000000E+00 -0.45593999997E+02  0.45594000000E+02  0.51100000000E-03 0. -1.
    9900012    2    1    2    0    0  0.19722668431E+02 -0.21225483148E+02 -0.34490706985E+02  0.46142315931E+02  0.99999833143E+01 0.  0.
        -12    1    1    2    0    0 -0.19722668431E+02  0.21225483148E+02  0.34490706985E+02  0.45045684069E+02  0.00000000000E+00 0.  1.
         11    1    3    3    0    0  0.61704277822E+01 -0.42911402230E+01 -0.10914821269E+02  0.13252221966E+02  0.51100000000E-03 0. -1.
        -11    1    3    3    0    0  0.11207625537E+02 -0.13171431038E+02 -0.13695170407E+02  0.22060261977E+02  0.51100000000E-03 0.  1.
        -12    1    3    3    0    0  0.23446151127E+01 -0.37629118871E+01 -0.98807153086E+01  0.10829831989E+02  0.00000000000E+00 0.  1.
</event>
<event>
 7    1  0.1486782E-008  0.4614232E+02  0.7816164E-02  0.1320468E+00
        -11   -1    0    0    0    0  0.00000000000E+00  0.00000000000E+00  0.45593999997E+02  0.45594000000E+02  0.51100000000E-03 0.  1.
         11   -1    0    0    0    0 -0.00000000000E+00 -0.00000000000E+00 -0.45593999997E+02  0.45594000000E+02  0.51100000000E-03 0. -1.
    9900012    2    1    2    0    0  0.18065425992E+02 -0.26470796823E+01 -0.41179446349E+02  0.46142318201E+02  0.10000004010E+02 0.  0.
        -12    1    1    2    0    0 -0.18065425992E+02  0.26470796823E+01  0.41179446349E+02  0.45045681799E+02  0.00000000000E+00 0.  1.
         11    1    3    3    0    0  0.52954839690E+01 -0.34366789672E+01 -0.10877133679E+02  0.12576364742E+02  0.51100000000E-03 0. -1.
        -11    1    3    3    0    0  0.85939063628E+01 -0.26844099708E+01 -0.19170833728E+02  0.21179758014E+02  0.51100000000E-03 0.  1.
        -12    1    3    3    0    0  0.41760356602E+01  0.34740092557E+01 -0.11131478943E+02  0.12386195445E+02  0.00000000000E+00 0.  1.
</event>
<event>
 7    1  0.1486782E-008  0.4614232E+02  0.7816164E-02  0.1320468E+00
        -11   -1    0    0    0    0  0.00000000000E+00  0.00000000000E+00  0.45593999997E+02  0.45594000000E+02  0.51100000000E-03 0.  1.
         11   -1    0    0    0    0 -0.00000000000E+00 -0.00000000000E+00 -0.45593999997E+02  0.45594000000E+02  0.51100000000E-03 0. -1.
    9900012    2    1    2    0    0 -0.13546936389E+02 -0.31170489498E+02 -0.29563398038E+02  0.46142318691E+02  0.10000008475E+02 0.  0.
        -12    1    1    2    0    0  0.13546936389E+02  0.31170489498E+02  0.29563398038E+02  0.45045681309E+02  0.00000000000E+00 0.  1.
         11    1    3    3    0    0 -0.85728469802E+00 -0.17989209642E+01 -0.13071222914E+01  0.23831958868E+01  0.51100000000E-03 0. -1.
        -11    1    3    3    0    0 -0.27496380448E+01 -0.11377686666E+01 -0.66305322387E+00  0.30487155911E+01  0.51100000000E-03 0.  1.
        -12    1    3    3    0    0 -0.99400136459E+01 -0.28233799867E+02 -0.27593222523E+02  0.40710407213E+02  0.00000000000E+00 0.  1.
</event>
<event>
 7    1  0.1486782E-008  0.4614232E+02  0.7816164E-02  0.1320468E+00
        -11   -1    0    0    0    0  0.00000000000E+00  0.00000000000E+00  0.45593999997E+02  0.45594000000E+02  0.51100000000E-03 0. -1.
         11   -1    0    0    0    0 -0.00000000000E+00 -0.00000000000E+00 -0.45593999997E+02  0.45594000000E+02  0.51100000000E-03 0.  1.
    9900012    2    1    2    0    0  0.21011803286E+02  0.81176338891E+01  0.39009249170E+02  0.46142318986E+02  0.10000011165E+02 0.  0.
        -12    1    1    2    0    0 -0.21011803286E+02 -0.81176338891E+01 -0.39009249170E+02  0.45045681014E+02  0.00000000000E+00 0.  1.
         11    1    3    3    0    0  0.16341684115E+02  0.32417783006E+01  0.24033074378E+02  0.29242921034E+02  0.51100000000E-03 0. -1.
        -11    1    3    3    0    0  0.22253817452E+01  0.20241935405E+01  0.11105806015E+02  0.11506024982E+02  0.51100000000E-03 0.  1.
         12    1    3    3    0    0  0.24447374254E+01  0.28516620480E+01  0.38703687768E+01  0.53933729691E+01  0.00000000000E+00 0. -1.
</event>
<event>
 7    1  0.1486782E-008  0.4614232E+02  0.7816164E-02  0.1320468E+00
        -11   -1    0    0    0    0  0.00000000000E+00  0.00000000000E+00  0.45593999997E+02  0.45594000000E+02  0.51100000000E-03 0.  1.
         11   -1    0    0    0    0 -0.00000000000E+00 -0.00000000000E+00 -0.45593999997E+02  0.45594000000E+02  0.51100000000E-03 0. -1.
    9900012    2    1    2    0    0  0.39629684175E+02 -0.15758872669E+02 -0.14500331106E+02  0.46142317212E+02  0.99999949966E+01 0.  0.
        -12    1    1    2    0    0 -0.39629684175E+02  0.15758872669E+02  0.14500331106E+02  0.45045682788E+02  0.00000000000E+00 0.  1.
         11    1    3    3    0    0  0.10526976639E+02 -0.62444588552E+01 -0.80927648641E+01  0.14673218698E+02  0.51100000000E-03 0. -1.
        -11    1    3    3    0    0  0.24382541450E+02 -0.70382130905E+01 -0.62509621741E+01  0.26136551024E+02  0.51100000000E-03 0.  1.
        -12    1    3    3    0    0  0.47201660863E+01 -0.24762007236E+01 -0.15660406738E+00  0.53325474906E+01  0.00000000000E+00 0.  1.
</event>
<event>
 7    1  0.1486782E-008  0.4614232E+02  0.7816164E-02  0.1320468E+00
        -11   -1    0    0    0    0  0.00000000000E+00  0.00000000000E+00  0.45593999997E+02  0.45594000000E+02  0.51100000000E-03 0.  1.
         11   -1    0    0    0    0 -0.00000000000E+00 -0.00000000000E+00 -0.45593999997E+02  0.45594000000E+02  0.51100000000E-03 0. -1.
    9900012    2    1    2    0    0 -0.66338005137E+01  0.24001082873E+02 -0.37537370651E+02  0.46142317813E+02  0.10000000470E+02 0.  0.
        -12    1    1    2    0    0  0.66338005137E+01 -0.24001082873E+02  0.37537370651E+02  0.45045682187E+02  0.00000000000E+00 0.  1.
         11    1    3    3    0    0 -0.40734700174E+01  0.60855540891E+01 -0.15568811479E+02  0.17205086971E+02  0.51100000000E-03 0. -1.
        -11    1    3    3    0    0 -0.12213667084E+01  0.66327969676E+01 -0.45320766631E+01  0.81256046785E+01  0.51100000000E-03 0.  1.
         12    1    3    3    0    0 -0.13389637879E+01  0.11282731817E+02 -0.17436482509E+02  0.20811626163E+02  0.00000000000E+00 0. -1.
</event>
<event>
 7    1  0.1486782E-008  0.4614232E+02  0.7816164E-02  0.1320468E+00
        -11   -1    0    0    0    0  0.00000000000E+00  0.00000000000E+00  0.45593999997E+02  0.45594000000E+02  0.51100000000E-03 0. -1.
         11   -1    0    0    0    0 -0.00000000000E+00 -0.00000000000E+00 -0.45593999997E+02  0.45594000000E+02  0.51100000000E-03 0.  1.
    9900012    2    1    2    0    0 -0.14019034562E+02  0.37901504400E+02  0.19901159114E+02  0.46142317633E+02  0.99999988350E+01 0.  0.
        -12    1    1    2    0    0  0.14019034562E+02 -0.37901504400E+02 -0.19901159114E+02  0.45045682367E+02  0.00000000000E+00 0.  1.
         11    1    3    3    0    0 -0.48967164772E+01  0.16334799198E+02  0.33943164943E+01  0.17387492108E+02  0.51100000000E-03 0. -1.
        -11    1    3    3    0    0 -0.25471848558E+01  0.47798102316E+01  0.49695474290E+01  0.73505876262E+01  0.51100000000E-03 0.  1.
        -12    1    3    3    0    0 -0.65751332291E+01  0.16786894970E+02  0.11537295191E+02  0.21404237899E+02  0.00000000000E+00 0.  1.
</event>
<event>
 7    1  0.1486782E-008  0.4614232E+02  0.7816164E-02  0.1320468E+00
        -11   -1    0    0    0    0  0.00000000000E+00  0.00000000000E+00  0.45593999997E+02  0.45594000000E+02  0.51100000000E-03 0.  1.
         11   -1    0    0    0    0 -0.00000000000E+00 -0.00000000000E+00 -0.45593999997E+02  0.45594000000E+02  0.51100000000E-03 0. -1.
    9900012    2    1    2    0    0 -0.10569102134E+02 -0.42705014003E+02  0.96793261572E+01  0.46142317678E+02  0.99999992463E+01 0.  0.
        -12    1    1    2    0    0  0.10569102134E+02  0.42705014003E+02 -0.96793261572E+01  0.45045682322E+02  0.00000000000E+00 0.  1.
         11    1    3    3    0    0 -0.61396082171E+01 -0.95112641549E+01  0.29793935346E+01  0.11706225736E+02  0.51100000000E-03 0. -1.
        -11    1    3    3    0    0 -0.44900836652E+00 -0.75856800615E+01  0.33510058939E+01  0.83050220512E+01  0.51100000000E-03 0.  1.
         12    1    3    3    0    0 -0.39804855504E+01 -0.25608069787E+02  0.33489267288E+01  0.26131069891E+02  0.00000000000E+00 0. -1.
</event>
<event>
 7    1  0.1486782E-008  0.4614232E+02  0.7816164E-02  0.1320468E+00
        -11   -1    0    0    0    0  0.00000000000E+00  0.00000000000E+00  0.45593999997E+02  0.45594000000E+02  0.51100000000E-03 0. -1.
         11   -1    0    0    0    0 -0.00000000000E+00 -0.00000000000E+00 -0.45593999997E+02  0.45594000000E+02  0.51100000000E-03 0.  1.
    9900012    2    1    2    0    0  0.42854854929E+02  0.13492564281E+02  0.32443237070E+01  0.46142317430E+02  0.99999969806E+01 0.  0.
        -12    1    1    2    0    0 -0.42854854929E+02 -0.13492564281E+02 -0.32443237070E+01  0.45045682570E+02  0.00000000000E+00 0.  1.
         11    1    3    3    0    0  0.72218967900E+01  0.65811330394E+00  0.11658445742E+01  0.73449370452E+01  0.51100000000E-03 0. -1.
        -11    1    3    3    0    0  0.77111157128E+01 -0.40611796930E-01 -0.14564024247E+01  0.78475514104E+01  0.51100000000E-03 0.  1.
         12    1    3    3    0    0  0.27921842426E+02  0.12875062774E+02  0.35348815575E+01  0.30949828974E+02  0.00000000000E+00 0. -1.
</event>
<event>
 7    1  0.1486782E-008  0.4614232E+02  0.7816164E-02  0.1320468E+00
        -11   -1    0    0    0    0  0.00000000000E+00  0.00000000000E+00  0.45593999997E+02  0.45594000000E+02  0.51100000000E-03 0. -1.
         11   -1    0    0    0    0 -0.00000000000E+00 -0.00000000000E+00 -0.45593999997E+02  0.45594000000E+02  0.51100000000E-03 0.  1.
    9900012    2    1    2    0    0 -0.25401003409E+02 -0.33935128239E+02  0.15241703908E+02  0.46142318290E+02  0.10000004820E+02 0.  0.
        -12    1    1    2    0    0  0.25401003409E+02  0.33935128239E+02 -0.15241703908E+02  0.45045681710E+02  0.00000000000E+00 0.  1.
         11    1    3    3    0    0 -0.37119080818E+01 -0.76889127437E+01  0.66823783826E+01  0.10842131797E+02  0.51100000000E-03 0. -1.
        -11    1    3    3    0    0 -0.20758320505E+02 -0.25306394202E+02  0.89283745428E+01  0.33926941064E+02  0.51100000000E-03 0.  1.
        -12    1    3    3    0    0 -0.93077482159E+00 -0.93982129301E+00 -0.36904901793E+00  0.13732454292E+01  0.00000000000E+00 0.  1.
</event>
<event>
 7    1  0.1486782E-008  0.4614232E+02  0.7816164E-02  0.1320468E+00
        -11   -1    0    0    0    0  0.00000000000E+00  0.00000000000E+00  0.45593999997E+02  0.45594000000E+02  0.51100000000E-03 0. -1.
         11   -1    0    0    0    0 -0.00000000000E+00 -0.00000000000E+00 -0.45593999997E+02  0.45594000000E+02  0.51100000000E-03 0.  1.
    9900012    2    1    2    0    0  0.42500011639E+02 -0.14857277830E+02  0.14573348275E+01  0.46142317425E+02  0.99999969330E+01 0.  0.
        -12    1    1    2    0    0 -0.42500011639E+02  0.14857277830E+02 -0.14573348275E+01  0.45045682575E+02  0.00000000000E+00 0.  1.
         11    1    3    3    0    0  0.16931897486E+02 -0.83799751456E+01 -0.12139222289E+01  0.18931105181E+02  0.51100000000E-03 0. -1.
        -11    1    3    3    0    0  0.87891178016E+00  0.86029277728E+00  0.60870741596E+00  0.13722662130E+01  0.51100000000E-03 0.  1.
        -12    1    3    3    0    0  0.24689202373E+02 -0.73375954617E+01  0.20625496404E+01  0.25838946031E+02  0.00000000000E+00 0.  1.
</event>
<event>
 7    1  0.1486782E-008  0.4614232E+02  0.7816164E-02  0.1320468E+00
        -11   -1    0    0    0    0  0.00000000000E+00  0.00000000000E+00  0.45593999997E+02  0.45594000000E+02  0.51100000000E-03 0.  1.
         11   -1    0    0    0    0 -0.00000000000E+00 -0.00000000000E+00 -0.45593999997E+02  0.45594000000E+02  0.51100000000E-03 0. -1.
    9900012    2    1    2    0    0  0.36684021277E+02 -0.13263165853E+02 -0.22527416443E+02  0.46142317886E+02  0.10000001141E+02 0.  0.
        -12    1    1    2    0    0 -0.36684021277E+02  0.13263165853E+02  0.22527416443E+02  0.45045682114E+02  0.00000000000E+00 0.  1.
         11    1    3    3    0    0  0.73803128270E+01 -0.30695312544E+01 -0.48508227235E+01  0.93499476417E+01  0.51100000000E-03 0. -1.
        -11    1    3    3    0    0  0.16369040622E+02 -0.78356868149E+01 -0.57389492563E+01  0.19033628597E+02  0.51100000000E-03 0.  1.
        -12    1    3    3    0    0  0.12934667828E+02 -0.23579477836E+01 -0.11937644463E+02  0.17758741648E+02  0.00000000000E+00 0.  1.
</event>
<event>
 7    1  0.1486782E-008  0.4614232E+02  0.7816164E-02  0.1320468E+00
        -11   -1    0    0    0    0  0.00000000000E+00  0.00000000000E+00  0.45593999997E+02  0.45594000000E+02  0.51100000000E-03 0.  1.
         11   -1    0    0    0    0 -0.00000000000E+00 -0.00000000000E+00 -0.45593999997E+02  0.45594000000E+02  0.51100000000E-03 0. -1.
    9900012    2    1    2    0    0 -0.30826769235E+02 -0.62182859247E+01 -0.32251459997E+02  0.46142318152E+02  0.10000003560E+02 0.  0.
        -12    1    1    2    0    0  0.30826769235E+02  0.62182859247E+01  0.32251459997E+02  0.45045681848E+02  0.00000000000E+00 0.  1.
         11    1    3    3    0    0 -0.28580427531E+02 -0.41488078019E+01 -0.26323845513E+02  0.39076825445E+02  0.51100000000E-03 0. -1.
        -11    1    3    3    0    0 -0.17815923246E+01 -0.73687591970E-01 -0.30463617921E+01  0.35298472349E+01  0.51100000000E-03 0.  1.
         12    1    3    3    0    0 -0.46474937929E+00 -0.19957905308E+01 -0.28812526915E+01  0.35356454715E+01  0.00000000000E+00 0. -1.
</event>
<event>
 7    1  0.1486782E-008  0.4614232E+02  0.7816164E-02  0.1320468E+00
        -11   -1    0    0    0    0  0.00000000000E+00  0.00000000000E+00  0.45593999997E+02  0.45594000000E+02  0.51100000000E-03 0.  1.
         11   -1    0    0    0    0 -0.00000000000E+00 -0.00000000000E+00 -0.45593999997E+02  0.45594000000E+02  0.51100000000E-03 0. -1.
    9900012    2    1    2    0    0  0.29640804869E+02 -0.31642373504E+02 -0.12218689220E+02  0.46142317849E+02  0.10000000800E+02 0.  0.
        -12    1    1    2    0    0 -0.29640804869E+02  0.31642373504E+02  0.12218689220E+02  0.45045682151E+02  0.00000000000E+00 0.  1.
         11    1    3    3    0    0  0.13633866796E+02 -0.19957305755E+02 -0.69148026814E+01  0.25139428657E+02  0.51100000000E-03 0. -1.
        -11    1    3    3    0    0  0.75324342471E+01 -0.37709751562E+01 -0.40294922938E+01  0.93378063656E+01  0.51100000000E-03 0.  1.
        -12    1    3    3    0    0  0.84745038258E+01 -0.79140925926E+01 -0.12743942449E+01  0.11665082826E+02  0.00000000000E+00 0.  1.
</event>
<event>
 7    1  0.1486782E-008  0.4614232E+02  0.7816164E-02  0.1320468E+00
        -11   -1    0    0    0    0  0.00000000000E+00  0.00000000000E+00  0.45593999997E+02  0.45594000000E+02  0.51100000000E-03 0. -1.
         11   -1    0    0    0    0 -0.00000000000E+00 -0.00000000000E+00 -0.45593999997E+02  0.45594000000E+02  0.51100000000E-03 0.  1.
    9900012    2    1    2    0    0 -0.38767558982E+02  0.57228159082E+01  0.22213492257E+02  0.46142317748E+02  0.99999998765E+01 0.  0.
        -12    1    1    2    0    0  0.38767558982E+02 -0.57228159082E+01 -0.22213492257E+02  0.45045682252E+02  0.00000000000E+00 0.  1.
         11    1    3    3    0    0 -0.20837598336E+02 -0.68337563587E+00  0.10623666783E+02  0.23399461593E+02  0.51100000000E-03 0. -1.
        -11    1    3    3    0    0 -0.17008324393E+02  0.70755720897E+01  0.11060806292E+02  0.21486932195E+02  0.51100000000E-03 0.  1.
        -12    1    3    3    0    0 -0.92163625346E+00 -0.66938054560E+00  0.52901918186E+00  0.12559239600E+01  0.00000000000E+00 0.  1.
</event>
<event>
 7    1  0.1486782E-008  0.4614232E+02  0.7816164E-02  0.1320468E+00
        -11   -1    0    0    0    0  0.00000000000E+00  0.00000000000E+00  0.45593999997E+02  0.45594000000E+02  0.51100000000E-03 0.  1.
         11   -1    0    0    0    0 -0.00000000000E+00 -0.00000000000E+00 -0.45593999997E+02  0.45594000000E+02  0.51100000000E-03 0. -1.
    9900012    2    1    2    0    0  0.28782210361E+02  0.89133628701E+01 -0.33485069263E+02  0.46142317249E+02  0.99999953288E+01 0.  0.
        -12    1    1    2    0    0 -0.28782210361E+02 -0.89133628701E+01  0.33485069263E+02  0.45045682751E+02  0.00000000000E+00 0.  1.
         11    1    3    3    0    0  0.19216875385E+02  0.45571873212E+01 -0.22526613846E+02  0.29958380922E+02  0.51100000000E-03 0. -1.
        -11    1    3    3    0    0  0.24547546531E+01 -0.13071306578E+01 -0.31332370249E+01  0.41894612396E+01  0.51100000000E-03 0.  1.
         12    1    3    3    0    0  0.71105803232E+01  0.56633062067E+01 -0.78252183924E+01  0.11994475087E+02  0.00000000000E+00 0. -1.
</event>
<event>
 7    1  0.3033817E-008  0.4614232E+02  0.7816164E-02  0.1320468E+00
        -11   -1    0    0    0    0  0.00000000000E+00  0.00000000000E+00  0.45593999997E+02  0.45594000000E+02  0.51100000000E-03 0. -1.
         11   -1    0    0    0    0 -0.00000000000E+00 -0.00000000000E+00 -0.45593999997E+02  0.45594000000E+02  0.51100000000E-03 0.  1.
    9900012    2    1    2    0    0  0.40384281589E+01 -0.82470430974E+01  0.44099780868E+02  0.46142319913E+02  0.10000019626E+02 0.  0.
        -12    1    1    2    0    0 -0.40384281589E+01  0.82470430974E+01 -0.44099780868E+02  0.45045680087E+02  0.00000000000E+00 0.  1.
         11    1    3    3    0    0 -0.13510870604E+01 -0.39020563923E+01  0.27392371512E+02  0.27701868125E+02  0.51100000000E-03 0. -1.
        -11    1    3    3    0    0  0.55088986116E+00 -0.30520906899E+00  0.51714957604E-01  0.63190736100E+00  0.51100000000E-03 0.  1.
         12    1    3    3    0    0  0.48386253581E+01 -0.40397776361E+01  0.16655694399E+02  0.17808544427E+02  0.00000000000E+00 0. -1.
</event>
<event>
 7    1  0.1486782E-008  0.4614232E+02  0.7816164E-02  0.1320468E+00
        -11   -1    0    0    0    0  0.00000000000E+00  0.00000000000E+00  0.45593999997E+02  0.45594000000E+02  0.51100000000E-03 0.  1.
         11   -1    0    0    0    0 -0.00000000000E+00 -0.00000000000E+00 -0.45593999997E+02  0.45594000000E+02  0.51100000000E-03 0. -1.
    9900012    2    1    2    0    0 -0.92749613710E+01  0.39615117322E+02 -0.19332130437E+02  0.46142315455E+02  0.99999789741E+01 0.  0.
        -12    1    1    2    0    0  0.92749613710E+01 -0.39615117322E+02  0.19332130437E+02  0.45045684545E+02  0.00000000000E+00 0.  1.
         11    1    3    3    0    0 -0.17122868455E+01  0.13195859627E+02 -0.68141068386E+01  0.14949738788E+02  0.51100000000E-03 0. -1.
        -11    1    3    3    0    0 -0.19265851223E+01  0.13527374075E+01  0.47529080853E+00  0.24015683086E+01  0.51100000000E-03 0.  1.
        -12    1    3    3    0    0 -0.56360894032E+01  0.25066520287E+02 -0.12993314407E+02  0.28791008359E+02  0.00000000000E+00 0.  1.
</event>
<event>
 7    1  0.1486782E-008  0.4614232E+02  0.7816164E-02  0.1320468E+00
        -11   -1    0    0    0    0  0.00000000000E+00  0.00000000000E+00  0.45593999997E+02  0.45594000000E+02  0.51100000000E-03 0. -1.
         11   -1    0    0    0    0 -0.00000000000E+00 -0.00000000000E+00 -0.45593999997E+02  0.45594000000E+02  0.51100000000E-03 0.  1.
    9900012    2    1    2    0    0  0.20721731559E+02  0.24596876137E+01  0.39920836460E+02  0.46142318679E+02  0.10000008373E+02 0.  0.
        -12    1    1    2    0    0 -0.20721731559E+02 -0.24596876137E+01 -0.39920836460E+02  0.45045681321E+02  0.00000000000E+00 0.  1.
         11    1    3    3    0    0  0.52003921321E+01 -0.98725913136E-01  0.11822636124E+02  0.12916212693E+02  0.51100000000E-03 0. -1.
        -11    1    3    3    0    0  0.94312536212E+01 -0.24757982774E+01  0.13930692081E+02  0.17004184900E+02  0.51100000000E-03 0.  1.
        -12    1    3    3    0    0  0.60900858061E+01  0.50342118043E+01  0.14167508255E+02  0.16221921087E+02  0.00000000000E+00 0.  1.
</event>
<event>
 7    1  0.1486782E-008  0.4614232E+02  0.7816164E-02  0.1320468E+00
        -11   -1    0    0    0    0  0.00000000000E+00  0.00000000000E+00  0.45593999997E+02  0.45594000000E+02  0.51100000000E-03 0.  1.
         11   -1    0    0    0    0 -0.00000000000E+00 -0.00000000000E+00 -0.45593999997E+02  0.45594000000E+02  0.51100000000E-03 0. -1.
    9900012    2    1    2    0    0  0.13636398203E+02 -0.28303640674E+02 -0.32281041918E+02  0.46142322087E+02  0.10000039445E+02 0.  0.
        -12    1    1    2    0    0 -0.13636398203E+02  0.28303640674E+02  0.32281041918E+02  0.45045677913E+02  0.00000000000E+00 0.  1.
         11    1    3    3    0    0  0.11671083564E+02 -0.27948207336E+02 -0.30137784931E+02  0.42727070642E+02  0.51100000000E-03 0. -1.
        -11    1    3    3    0    0  0.18099649973E+01 -0.71148631434E-01 -0.70951662476E+00  0.19453661663E+01  0.51100000000E-03 0.  1.
         12    1    3    3    0    0  0.15534964169E+00 -0.28428470647E+00 -0.14337403620E+01  0.14698852782E+01  0.00000000000E+00 0. -1.
</event>
<event>
 7    1  0.1486782E-008  0.4614232E+02  0.7816164E-02  0.1320468E+00
        -11   -1    0    0    0    0  0.00000000000E+00  0.00000000000E+00  0.45593999997E+02  0.45594000000E+02  0.51100000000E-03 0. -1.
         11   -1    0    0    0    0 -0.00000000000E+00 -0.00000000000E+00 -0.45593999997E+02  0.45594000000E+02  0.51100000000E-03 0.  1.
    9900012    2    1    2    0    0 -0.29587198387E+02  0.25265886854E+02 -0.22701234240E+02  0.46142318931E+02  0.10000010667E+02 0.  0.
        -12    1    1    2    0    0  0.29587198387E+02 -0.25265886854E+02  0.22701234240E+02  0.45045681069E+02  0.00000000000E+00 0.  1.
         11    1    3    3    0    0 -0.95748527328E+01  0.12542957837E+02 -0.12959001328E+02  0.20419091846E+02  0.51100000000E-03 0. -1.
        -11    1    3    3    0    0 -0.12320125677E+02  0.82405129010E+01 -0.71115409481E+01  0.16439755609E+02  0.51100000000E-03 0.  1.
         12    1    3    3    0    0 -0.76922199771E+01  0.44824161165E+01 -0.26306919642E+01  0.92834714751E+01  0.00000000000E+00 0. -1.
</event>
<event>
 7    1  0.1486782E-008  0.4614232E+02  0.7816164E-02  0.1320468E+00
        -11   -1    0    0    0    0  0.00000000000E+00  0.00000000000E+00  0.45593999997E+02  0.45594000000E+02  0.51100000000E-03 0. -1.
         11   -1    0    0    0    0 -0.00000000000E+00 -0.00000000000E+00 -0.45593999997E+02  0.45594000000E+02  0.51100000000E-03 0.  1.
    9900012    2    1    2    0    0  0.16988819232E+02 -0.38987784805E+02  0.14847434607E+02  0.46142315886E+02  0.99999828972E+01 0.  0.
        -12    1    1    2    0    0 -0.16988819232E+02  0.38987784805E+02 -0.14847434607E+02  0.45045684114E+02  0.00000000000E+00 0.  1.
         11    1    3    3    0    0  0.42176880768E+01 -0.79304389479E+01  0.52660318788E+01  0.10412100971E+02  0.51100000000E-03 0. -1.
        -11    1    3    3    0    0  0.68471645743E+01 -0.17696633556E+02  0.15116541631E+01  0.19035220001E+02  0.51100000000E-03 0.  1.
        -12    1    3    3    0    0  0.59239665809E+01 -0.13360712301E+02  0.80697485652E+01  0.16694994913E+02  0.00000000000E+00 0.  1.
</event>
<event>
 7    1  0.1486782E-008  0.4614232E+02  0.7816164E-02  0.1320468E+00
        -11   -1    0    0    0    0  0.00000000000E+00  0.00000000000E+00  0.45593999997E+02  0.45594000000E+02  0.51100000000E-03 0.  1.
         11   -1    0    0    0    0 -0.00000000000E+00 -0.00000000000E+00 -0.45593999997E+02  0.45594000000E+02  0.51100000000E-03 0. -1.
    9900012    2    1    2    0    0  0.37020409023E+02  0.14583114176E+02 -0.21117188114E+02  0.46142317220E+02  0.99999950613E+01 0.  0.
        -12    1    1    2    0    0 -0.37020409023E+02 -0.14583114176E+02  0.21117188114E+02  0.45045682780E+02  0.00000000000E+00 0.  1.
         11    1    3    3    0    0  0.17427051745E+02  0.52357023287E+01 -0.91469633764E+01  0.20366188909E+02  0.51100000000E-03 0. -1.
        -11    1    3    3    0    0  0.12784857996E+02  0.96253135973E+01 -0.87566394035E+01  0.18242203532E+02  0.51100000000E-03 0.  1.
        -12    1    3    3    0    0  0.68084992823E+01 -0.27790175036E+00 -0.32135853342E+01  0.75339247780E+01  0.00000000000E+00 0.  1.
</event>
<event>
 7    1  0.1486782E-008  0.4614232E+02  0.7816164E-02  0.1320468E+00
        -11   -1    0    0    0    0  0.00000000000E+00  0.00000000000E+00  0.45593999997E+02  0.45594000000E+02  0.51100000000E-03 0.  1.
         11   -1    0    0    0    0 -0.00000000000E+00 -0.00000000000E+00 -0.45593999997E+02  0.45594000000E+02  0.51100000000E-03 0. -1.
    9900012    2    1    2    0    0  0.44127580868E+02 -0.43200662872E+01  0.79502929228E+01  0.46142317370E+02  0.99999964356E+01 0.  0.
        -12    1    1    2    0    0 -0.44127580868E+02  0.43200662872E+01 -0.79502929228E+01  0.45045682630E+02  0.00000000000E+00 0.  1.
         11    1    3    3    0    0  0.58486793689E+01 -0.12348307367E+01 -0.11206499829E+01  0.60817525396E+01  0.51100000000E-03 0. -1.
        -11    1    3    3    0    0  0.31494859484E+02 -0.30374796333E+00  0.57735699959E+01  0.32021126581E+02  0.51100000000E-03 0.  1.
        -12    1    3    3    0    0  0.67840420152E+01 -0.27814875872E+01  0.32973729097E+01  0.80394382495E+01  0.00000000000E+00 0.  1.
</event>
<event>
 7    1  0.1486782E-008  0.4614232E+02  0.7816164E-02  0.1320468E+00
        -11   -1    0    0    0    0  0.00000000000E+00  0.00000000000E+00  0.45593999997E+02  0.45594000000E+02  0.51100000000E-03 0.  1.
         11   -1    0    0    0    0 -0.00000000000E+00 -0.00000000000E+00 -0.45593999997E+02  0.45594000000E+02  0.51100000000E-03 0. -1.
    9900012    2    1    2    0    0 -0.41118188770E+02 -0.13496523168E+02 -0.12500078728E+02  0.46142317037E+02  0.99999934007E+01 0.  0.
        -12    1    1    2    0    0  0.41118188770E+02  0.13496523168E+02  0.12500078728E+02  0.45045682963E+02  0.00000000000E+00 0.  1.
         11    1    3    3    0    0 -0.92889171915E+00  0.31031079322E+00  0.78088154553E+00  0.12525609221E+01  0.51100000000E-03 0. -1.
        -11    1    3    3    0    0 -0.86744664424E+01 -0.49558565877E+01 -0.15113570045E+01  0.10104013204E+02  0.51100000000E-03 0.  1.
         12    1    3    3    0    0 -0.31514830609E+02 -0.88509773734E+01 -0.11769603269E+02  0.34785742911E+02  0.00000000000E+00 0. -1.
</event>
<event>
 7    1  0.1486782E-008  0.4614231E+02  0.7816164E-02  0.1320468E+00
        -11   -1    0    0    0    0  0.00000000000E+00  0.00000000000E+00  0.45593999997E+02  0.45594000000E+02  0.51100000000E-03 0.  1.
         11   -1    0    0    0    0 -0.00000000000E+00 -0.00000000000E+00 -0.45593999997E+02  0.45594000000E+02  0.51100000000E-03 0. -1.
    9900012    2    1    2    0    0 -0.13394117025E+02 -0.21027011161E+02 -0.37517681216E+02  0.46142312381E+02  0.99999509388E+01 0.  0.
        -12    1    1    2    0    0  0.13394117025E+02  0.21027011161E+02  0.37517681216E+02  0.45045687619E+02  0.00000000000E+00 0.  1.
         11    1    3    3    0    0 -0.95167466042E+01 -0.15917766500E+02 -0.31427456639E+02  0.36491489245E+02  0.51100000000E-03 0.  1.
        -11    1    3    3    0    0 -0.42969781928E+01 -0.51859777802E+01 -0.62569680493E+01  0.91928252761E+01  0.51100000000E-03 0. -1.
        -12    1    3    3    0    0  0.41960777250E+00  0.76733119590E-01  0.16674347143E+00  0.45799785987E+00  0.00000000000E+00 0.  1.
</event>
<event>
 7    1  0.1486782E-008  0.4614232E+02  0.7816164E-02  0.1320468E+00
        -11   -1    0    0    0    0  0.00000000000E+00  0.00000000000E+00  0.45593999997E+02  0.45594000000E+02  0.51100000000E-03 0.  1.
         11   -1    0    0    0    0 -0.00000000000E+00 -0.00000000000E+00 -0.45593999997E+02  0.45594000000E+02  0.51100000000E-03 0. -1.
    9900012    2    1    2    0    0  0.10832265553E+02 -0.88587644070E+01 -0.42817027143E+02  0.46142317663E+02  0.99999991093E+01 0.  0.
        -12    1    1    2    0    0 -0.10832265553E+02  0.88587644070E+01  0.42817027143E+02  0.45045682337E+02  0.00000000000E+00 0.  1.
         11    1    3    3    0    0  0.68422954860E+01 -0.22588943462E+01 -0.18687984292E+02  0.20028988201E+02  0.51100000000E-03 0. -1.
        -11    1    3    3    0    0 -0.74077562269E+00  0.70267069048E+00 -0.49305914328E+01  0.50351987807E+01  0.51100000000E-03 0.  1.
        -12    1    3    3    0    0  0.47307456899E+01 -0.73025407512E+01 -0.19198451417E+02  0.21078130682E+02  0.00000000000E+00 0.  1.
</event>
<event>
 7    1  0.1486782E-008  0.4614232E+02  0.7816164E-02  0.1320468E+00
        -11   -1    0    0    0    0  0.00000000000E+00  0.00000000000E+00  0.45593999997E+02  0.45594000000E+02  0.51100000000E-03 0.  1.
         11   -1    0    0    0    0 -0.00000000000E+00 -0.00000000000E+00 -0.45593999997E+02  0.45594000000E+02  0.51100000000E-03 0. -1.
    9900012    2    1    2    0    0 -0.12238427464E+02  0.35944213607E+02 -0.24235261831E+02  0.46142317469E+02  0.99999973377E+01 0.  0.
        -12    1    1    2    0    0  0.12238427464E+02 -0.35944213607E+02  0.24235261831E+02  0.45045682531E+02  0.00000000000E+00 0.  1.
         11    1    3    3    0    0 -0.11004061921E+02  0.30543560846E+02 -0.17098968451E+02  0.36692958592E+02  0.51100000000E-03 0. -1.
        -11    1    3    3    0    0  0.57985852465E-01  0.47226784566E+01 -0.52010805126E+01  0.70255457384E+01  0.51100000000E-03 0.  1.
         12    1    3    3    0    0 -0.12923513955E+01  0.67797430516E+00 -0.19352128678E+01  0.24238131387E+01  0.00000000000E+00 0. -1.
</event>
<event>
 7    1  0.1486782E-008  0.4614232E+02  0.7816164E-02  0.1320468E+00
        -11   -1    0    0    0    0  0.00000000000E+00  0.00000000000E+00  0.45593999997E+02  0.45594000000E+02  0.51100000000E-03 0.  1.
         11   -1    0    0    0    0 -0.00000000000E+00 -0.00000000000E+00 -0.45593999997E+02  0.45594000000E+02  0.51100000000E-03 0. -1.
    9900012    2    1    2    0    0  0.17387064292E+02  0.49315394243E+01 -0.41261159880E+02  0.46142318738E+02  0.10000008904E+02 0.  0.
        -12    1    1    2    0    0 -0.17387064292E+02 -0.49315394243E+01  0.41261159880E+02  0.45045681262E+02  0.00000000000E+00 0.  1.
         11    1    3    3    0    0  0.28131570441E+01 -0.52472038559E+00 -0.13032949109E+02  0.13343423353E+02  0.51100000000E-03 0.  1.
        -11    1    3    3    0    0  0.15107635293E+02  0.51995296992E+01 -0.26213307467E+02  0.30698749842E+02  0.51100000000E-03 0. -1.
         12    1    3    3    0    0 -0.53372804563E+00  0.25673011069E+00 -0.20149033039E+01  0.21001455427E+01  0.00000000000E+00 0. -1.
</event>
<event>
 7    1  0.1486782E-008  0.4614232E+02  0.7816164E-02  0.1320468E+00
        -11   -1    0    0    0    0  0.00000000000E+00  0.00000000000E+00  0.45593999997E+02  0.45594000000E+02  0.51100000000E-03 0. -1.
         11   -1    0    0    0    0 -0.00000000000E+00 -0.00000000000E+00 -0.45593999997E+02  0.45594000000E+02  0.51100000000E-03 0.  1.
    9900012    2    1    2    0    0 -0.16251998947E+02 -0.24753202912E+02  0.33945026827E+02  0.46142319070E+02  0.10000011932E+02 0.  0.
        -12    1    1    2    0    0  0.16251998947E+02  0.24753202912E+02 -0.33945026827E+02  0.45045680930E+02  0.00000000000E+00 0.  1.
         11    1    3    3    0    0 -0.58788685667E+01 -0.94554420879E+01  0.11016481566E+02  0.15662992915E+02  0.51100000000E-03 0. -1.
        -11    1    3    3    0    0 -0.81863651885E+01 -0.13706062021E+02  0.22717871074E+02  0.27766425364E+02  0.51100000000E-03 0.  1.
        -12    1    3    3    0    0 -0.21867651915E+01 -0.15916988033E+01  0.21067418718E+00  0.27129007900E+01  0.00000000000E+00 0.  1.
</event>
<event>
 7    1  0.1486782E-008  0.4614232E+02  0.7816164E-02  0.1320468E+00
        -11   -1    0    0    0    0  0.00000000000E+00  0.00000000000E+00  0.45593999997E+02  0.45594000000E+02  0.51100000000E-03 0. -1.
         11   -1    0    0    0    0 -0.00000000000E+00 -0.00000000000E+00 -0.45593999997E+02  0.45594000000E+02  0.51100000000E-03 0.  1.
    9900012    2    1    2    0    0  0.28962114697E+02  0.22090840156E+02  0.26501023825E+02  0.46142316852E+02  0.99999917085E+01 0.  0.
        -12    1    1    2    0    0 -0.28962114697E+02 -0.22090840156E+02 -0.26501023825E+02  0.45045683148E+02  0.00000000000E+00 0.  1.
         11    1    3    3    0    0  0.23396496102E+02  0.16419582148E+02  0.23451856623E+02  0.36972804696E+02  0.51100000000E-03 0. -1.
        -11    1    3    3    0    0  0.10476812327E+01 -0.69306869125E-01 -0.35733174320E+00  0.11091102935E+01  0.51100000000E-03 0.  1.
         12    1    3    3    0    0  0.45179373629E+01  0.57405648772E+01  0.34064989448E+01  0.80604018625E+01  0.00000000000E+00 0. -1.
</event>
<event>
 7    1  0.1486782E-008  0.4614232E+02  0.7816164E-02  0.1320468E+00
        -11   -1    0    0    0    0  0.00000000000E+00  0.00000000000E+00  0.45593999997E+02  0.45594000000E+02  0.51100000000E-03 0.  1.
         11   -1    0    0    0    0 -0.00000000000E+00 -0.00000000000E+00 -0.45593999997E+02  0.45594000000E+02  0.51100000000E-03 0. -1.
    9900012    2    1    2    0    0 -0.93565250076E+00 -0.43425008520E+02 -0.11937617646E+02  0.46142317348E+02  0.99999962332E+01 0.  0.
        -12    1    1    2    0    0  0.93565250076E+00  0.43425008520E+02  0.11937617646E+02  0.45045682652E+02  0.00000000000E+00 0.  1.
         11    1    3    3    0    0 -0.13467683055E+01 -0.12065164393E+02 -0.57458323004E+01  0.13431178868E+02  0.51100000000E-03 0. -1.
        -11    1    3    3    0    0  0.93550051365E+00 -0.79668998651E+01 -0.46261034083E+01  0.92599939350E+01  0.51100000000E-03 0.  1.
         12    1    3    3    0    0 -0.52438470888E+00 -0.23392944262E+02 -0.15656819372E+01  0.23451144545E+02  0.00000000000E+00 0. -1.
</event>
<event>
 7    1  0.1486782E-008  0.4614232E+02  0.7816164E-02  0.1320468E+00
        -11   -1    0    0    0    0  0.00000000000E+00  0.00000000000E+00  0.45593999997E+02  0.45594000000E+02  0.51100000000E-03 0.  1.
         11   -1    0    0    0    0 -0.00000000000E+00 -0.00000000000E+00 -0.45593999997E+02  0.45594000000E+02  0.51100000000E-03 0. -1.
    9900012    2    1    2    0    0  0.28679043466E+02 -0.21257579663E+02 -0.27472546536E+02  0.46142322733E+02  0.10000045339E+02 0.  0.
        -12    1    1    2    0    0 -0.28679043466E+02  0.21257579663E+02  0.27472546536E+02  0.45045677267E+02  0.00000000000E+00 0.  1.
         11    1    3    3    0    0  0.26465219349E+01 -0.46780988628E+01 -0.10532510975E+01  0.54770453218E+01  0.51100000000E-03 0.  1.
        -11    1    3    3    0    0  0.20529851489E+02 -0.13809969788E+02 -0.21587534071E+02  0.32836133987E+02  0.51100000000E-03 0. -1.
        -12    1    3    3    0    0  0.55026700427E+01 -0.27695110123E+01 -0.48317613670E+01  0.78291434240E+01  0.00000000000E+00 0.  1.
</event>
<event>
 7    1  0.1486782E-008  0.4614232E+02  0.7816164E-02  0.1320468E+00
        -11   -1    0    0    0    0  0.00000000000E+00  0.00000000000E+00  0.45593999997E+02  0.45594000000E+02  0.51100000000E-03 0.  1.
         11   -1    0    0    0    0 -0.00000000000E+00 -0.00000000000E+00 -0.45593999997E+02  0.45594000000E+02  0.51100000000E-03 0. -1.
    9900012    2    1    2    0    0  0.10463056905E+02  0.33043595563E+02 -0.28770797483E+02  0.46142317018E+02  0.99999932207E+01 0.  0.
        -12    1    1    2    0    0 -0.10463056905E+02 -0.33043595563E+02  0.28770797483E+02  0.45045682982E+02  0.00000000000E+00 0.  1.
         11    1    3    3    0    0 -0.63135919061E+00  0.64019471137E+01 -0.32401566338E+01  0.72029269430E+01  0.51100000000E-03 0. -1.
        -11    1    3    3    0    0  0.10273604594E+00  0.34778806948E+01 -0.14657083771E+01  0.37755145517E+01  0.51100000000E-03 0.  1.
         12    1    3    3    0    0  0.10991680050E+02  0.23163767755E+02 -0.24064932472E+02  0.35163875523E+02  0.00000000000E+00 0. -1.
</event>
<event>
 7    1  0.1486782E-008  0.4614232E+02  0.7816164E-02  0.1320468E+00
        -11   -1    0    0    0    0  0.00000000000E+00  0.00000000000E+00  0.45593999997E+02  0.45594000000E+02  0.51100000000E-03 0.  1.
         11   -1    0    0    0    0 -0.00000000000E+00 -0.00000000000E+00 -0.45593999997E+02  0.45594000000E+02  0.51100000000E-03 0. -1.
    9900012    2    1    2    0    0 -0.39618586126E+02  0.12103195882E+02 -0.17691617784E+02  0.46142322550E+02  0.10000043667E+02 0.  0.
        -12    1    1    2    0    0  0.39618586126E+02 -0.12103195882E+02  0.17691617784E+02  0.45045677450E+02  0.00000000000E+00 0.  1.
         11    1    3    3    0    0 -0.14869311246E+02  0.22242508366E+01 -0.76629483975E+01  0.16874966285E+02  0.51100000000E-03 0. -1.
        -11    1    3    3    0    0 -0.14872054587E+02  0.24201169294E+01 -0.46200514585E+01  0.15760071362E+02  0.51100000000E-03 0.  1.
        -12    1    3    3    0    0 -0.98772202931E+01  0.74588281155E+01 -0.54086179278E+01  0.13507284903E+02  0.00000000000E+00 0.  1.
</event>
<event>
 7    1  0.1486782E-008  0.4614232E+02  0.7816164E-02  0.1320468E+00
        -11   -1    0    0    0    0  0.00000000000E+00  0.00000000000E+00  0.45593999997E+02  0.45594000000E+02  0.51100000000E-03 0.  1.
         11   -1    0    0    0    0 -0.00000000000E+00 -0.00000000000E+00 -0.45593999997E+02  0.45594000000E+02  0.51100000000E-03 0. -1.
    9900012    2    1    2    0    0  0.13643715748E+02  0.12283082404E+02 -0.41135002049E+02  0.46142317784E+02  0.10000000210E+02 0.  0.
        -12    1    1    2    0    0 -0.13643715748E+02 -0.12283082404E+02  0.41135002049E+02  0.45045682216E+02  0.00000000000E+00 0.  1.
         11    1    3    3    0    0  0.90115806688E+01  0.12031929041E+02 -0.33618774860E+02  0.36826592647E+02  0.51100000000E-03 0. -1.
        -11    1    3    3    0    0  0.16411787335E+01 -0.67962040011E+00 -0.49734151354E+01  0.52811182427E+01  0.51100000000E-03 0.  1.
         12    1    3    3    0    0  0.29909563453E+01  0.93077376286E+00 -0.25428120530E+01  0.40346068946E+01  0.00000000000E+00 0. -1.
</event>
<event>
 7    1  0.1486782E-008  0.4614232E+02  0.7816164E-02  0.1320468E+00
        -11   -1    0    0    0    0  0.00000000000E+00  0.00000000000E+00  0.45593999997E+02  0.45594000000E+02  0.51100000000E-03 0.  1.
         11   -1    0    0    0    0 -0.00000000000E+00 -0.00000000000E+00 -0.45593999997E+02  0.45594000000E+02  0.51100000000E-03 0. -1.
    9900012    2    1    2    0    0  0.11000559706E+02  0.21310981151E+02 -0.38130607751E+02  0.46142317866E+02  0.10000000954E+02 0.  0.
        -12    1    1    2    0    0 -0.11000559706E+02 -0.21310981151E+02  0.38130607751E+02  0.45045682134E+02  0.00000000000E+00 0.  1.
         11    1    3    3    0    0  0.65799478580E+01  0.71653965918E+01 -0.14789385356E+02  0.17702105570E+02  0.51100000000E-03 0. -1.
        -11    1    3    3    0    0  0.52652427446E+01  0.58461634131E+01 -0.10344802900E+02  0.12996744020E+02  0.51100000000E-03 0.  1.
        -12    1    3    3    0    0 -0.84463089615E+00  0.82994211463E+01 -0.12996419494E+02  0.15443468276E+02  0.00000000000E+00 0.  1.
</event>
<event>
 7    1  0.1486782E-008  0.4614232E+02  0.7816164E-02  0.1320468E+00
        -11   -1    0    0    0    0  0.00000000000E+00  0.00000000000E+00  0.45593999997E+02  0.45594000000E+02  0.51100000000E-03 0.  1.
         11   -1    0    0    0    0 -0.00000000000E+00 -0.00000000000E+00 -0.45593999997E+02  0.45594000000E+02  0.51100000000E-03 0. -1.
    9900012    2    1    2    0    0  0.28870876864E+02  0.27419677822E+02 -0.21065308863E+02  0.46142317629E+02  0.99999987980E+01 0.  0.
        -12    1    1    2    0    0 -0.28870876864E+02 -0.27419677822E+02  0.21065308863E+02  0.45045682371E+02  0.00000000000E+00 0.  1.
         11    1    3    3    0    0  0.91017431498E+01  0.97501128574E+01 -0.57109639730E+01  0.14509360388E+02  0.51100000000E-03 0. -1.
        -11    1    3    3    0    0  0.41430035899E+01  0.57360796765E+01 -0.69900399683E+00  0.71102528542E+01  0.51100000000E-03 0.  1.
         12    1    3    3    0    0  0.15626130124E+02  0.11933485288E+02 -0.14655340894E+02  0.24522704387E+02  0.00000000000E+00 0. -1.
</event>
<event>
 7    1  0.1486782E-008  0.4614232E+02  0.7816164E-02  0.1320468E+00
        -11   -1    0    0    0    0  0.00000000000E+00  0.00000000000E+00  0.45593999997E+02  0.45594000000E+02  0.51100000000E-03 0. -1.
         11   -1    0    0    0    0 -0.00000000000E+00 -0.00000000000E+00 -0.45593999997E+02  0.45594000000E+02  0.51100000000E-03 0.  1.
    9900012    2    1    2    0    0  0.40502132191E+02  0.13323981322E+02  0.14531424195E+02  0.46142317860E+02  0.10000000901E+02 0.  0.
        -12    1    1    2    0    0 -0.40502132191E+02 -0.13323981322E+02 -0.14531424195E+02  0.45045682140E+02  0.00000000000E+00 0.  1.
         11    1    3    3    0    0  0.23289103907E+02  0.65171689012E+01  0.45436534461E+01  0.24606922566E+02  0.51100000000E-03 0.  1.
        -11    1    3    3    0    0  0.39093198884E+01  0.32619560142E+01  0.42008036995E+01  0.66007492765E+01  0.51100000000E-03 0. -1.
        -12    1    3    3    0    0  0.13303708396E+02  0.35448564069E+01  0.57869670495E+01  0.14934646017E+02  0.00000000000E+00 0.  1.
</event>
<event>
 7    1  0.1486782E-008  0.4614232E+02  0.7816164E-02  0.1320468E+00
        -11   -1    0    0    0    0  0.00000000000E+00  0.00000000000E+00  0.45593999997E+02  0.45594000000E+02  0.51100000000E-03 0. -1.
         11   -1    0    0    0    0 -0.00000000000E+00 -0.00000000000E+00 -0.45593999997E+02  0.45594000000E+02  0.51100000000E-03 0.  1.
    9900012    2    1    2    0    0 -0.22081307536E+02  0.37689758507E+02 -0.11000519735E+02  0.46142317929E+02  0.10000001529E+02 0.  0.
        -12    1    1    2    0    0  0.22081307536E+02 -0.37689758507E+02  0.11000519735E+02  0.45045682071E+02  0.00000000000E+00 0.  1.
         11    1    3    3    0    0 -0.50836276192E+01  0.12774675961E+02 -0.61677160560E+00  0.13762849384E+02  0.51100000000E-03 0. -1.
        -11    1    3    3    0    0 -0.64118125288E+00 -0.15811699761E+00 -0.57864098873E+00  0.87803191225E+00  0.51100000000E-03 0.  1.
         12    1    3    3    0    0 -0.16356498664E+02  0.25073199543E+02 -0.98051071408E+01  0.31501436633E+02  0.00000000000E+00 0. -1.
</event>
<event>
 7    1  0.1486782E-008  0.4614232E+02  0.7816164E-02  0.1320468E+00
        -11   -1    0    0    0    0  0.00000000000E+00  0.00000000000E+00  0.45593999997E+02  0.45594000000E+02  0.51100000000E-03 0. -1.
         11   -1    0    0    0    0 -0.00000000000E+00 -0.00000000000E+00 -0.45593999997E+02  0.45594000000E+02  0.51100000000E-03 0.  1.
    9900012    2    1    2    0    0 -0.42101093226E+02  0.15584446777E+02 -0.37062498303E+01  0.46142319631E+02  0.10000017047E+02 0.  0.
        -12    1    1    2    0    0  0.42101093226E+02 -0.15584446777E+02  0.37062498303E+01  0.45045680369E+02  0.00000000000E+00 0.  1.
         11    1    3    3    0    0 -0.33417246046E+02  0.13176779882E+02 -0.31393334842E+01  0.36058220649E+02  0.51100000000E-03 0. -1.
        -11    1    3    3    0    0 -0.56621265249E+01  0.91250980680E-01 -0.20148663987E+01  0.60106314469E+01  0.51100000000E-03 0.  1.
        -12    1    3    3    0    0 -0.30217206547E+01  0.23164159140E+01  0.14479500526E+01  0.40734675347E+01  0.00000000000E+00 0.  1.
</event>
<event>
 7    1  0.1486782E-008  0.4614232E+02  0.7816164E-02  0.1320468E+00
        -11   -1    0    0    0    0  0.00000000000E+00  0.00000000000E+00  0.45593999997E+02  0.45594000000E+02  0.51100000000E-03 0.  1.
         11   -1    0    0    0    0 -0.00000000000E+00 -0.00000000000E+00 -0.45593999997E+02  0.45594000000E+02  0.51100000000E-03 0. -1.
    9900012    2    1    2    0    0  0.24805911199E+02  0.29429364159E+01 -0.37484921466E+02  0.46142318271E+02  0.10000004647E+02 0.  0.
        -12    1    1    2    0    0 -0.24805911199E+02 -0.29429364159E+01  0.37484921466E+02  0.45045681729E+02  0.00000000000E+00 0.  1.
         11    1    3    3    0    0  0.16698532396E+02  0.23261452541E+01 -0.22276703188E+02  0.27937491675E+02  0.51100000000E-03 0. -1.
        -11    1    3    3    0    0  0.66951263463E+01  0.26788138161E+01 -0.91407316818E+01  0.11642754665E+02  0.51100000000E-03 0.  1.
         12    1    3    3    0    0  0.14122524574E+01 -0.20620226543E+01 -0.60674865957E+01  0.65620719304E+01  0.00000000000E+00 0. -1.
</event>
<event>
 7    1  0.1486782E-008  0.4614232E+02  0.7816164E-02  0.1320468E+00
        -11   -1    0    0    0    0  0.00000000000E+00  0.00000000000E+00  0.45593999997E+02  0.45594000000E+02  0.51100000000E-03 0.  1.
         11   -1    0    0    0    0 -0.00000000000E+00 -0.00000000000E+00 -0.45593999997E+02  0.45594000000E+02  0.51100000000E-03 0. -1.
    9900012    2    1    2    0    0  0.24618019534E+02  0.37705392212E+02  0.11704849974E+01  0.46142317379E+02  0.99999965169E+01 0.  0.
        -12    1    1    2    0    0 -0.24618019534E+02 -0.37705392212E+02 -0.11704849974E+01  0.45045682621E+02  0.00000000000E+00 0.  1.
         11    1    3    3    0    0  0.14065018501E+02  0.17939008571E+02 -0.75041263507E+00  0.22807803342E+02  0.51100000000E-03 0. -1.
        -11    1    3    3    0    0  0.10781031576E+02  0.15620961970E+02  0.24946636802E+01  0.19143365479E+02  0.51100000000E-03 0.  1.
         12    1    3    3    0    0 -0.22803054184E+00  0.41454216711E+01 -0.57376604776E+00  0.41911485582E+01  0.00000000000E+00 0. -1.
</event>
<event>
 7    1  0.1486782E-008  0.4614232E+02  0.7816164E-02  0.1320468E+00
        -11   -1    0    0    0    0  0.00000000000E+00  0.00000000000E+00  0.45593999997E+02  0.45594000000E+02  0.51100000000E-03 0. -1.
         11   -1    0    0    0    0 -0.00000000000E+00 -0.00000000000E+00 -0.45593999997E+02  0.45594000000E+02  0.51100000000E-03 0.  1.
    9900012    2    1    2    0    0 -0.97463157260E+01  0.23232187157E+02  0.37341503761E+02  0.46142322144E+02  0.10000039968E+02 0.  0.
        -12    1    1    2    0    0  0.97463157260E+01 -0.23232187157E+02 -0.37341503761E+02  0.45045677856E+02  0.00000000000E+00 0.  1.
         11    1    3    3    0    0 -0.18954333027E+01  0.39534280823E+01  0.86922077206E+01  0.97353344229E+01  0.51100000000E-03 0. -1.
        -11    1    3    3    0    0 -0.54316364486E+00 -0.17706615877E+00 -0.39373249324E+00  0.69383334240E+00  0.51100000000E-03 0.  1.
        -12    1    3    3    0    0 -0.73077187784E+01  0.19455825234E+02  0.29043028534E+02  0.35713154379E+02  0.00000000000E+00 0.  1.
</event>
<event>
 7    1  0.1486782E-008  0.4614232E+02  0.7816164E-02  0.1320468E+00
        -11   -1    0    0    0    0  0.00000000000E+00  0.00000000000E+00  0.45593999997E+02  0.45594000000E+02  0.51100000000E-03 0. -1.
         11   -1    0    0    0    0 -0.00000000000E+00 -0.00000000000E+00 -0.45593999997E+02  0.45594000000E+02  0.51100000000E-03 0.  1.
    9900012    2    1    2    0    0  0.95359129715E+01  0.27553556528E+02  0.34336297047E+02  0.46142318648E+02  0.10000008086E+02 0.  0.
        -12    1    1    2    0    0 -0.95359129715E+01 -0.27553556528E+02 -0.34336297047E+02  0.45045681352E+02  0.00000000000E+00 0.  1.
         11    1    3    3    0    0  0.19453914217E+01  0.16488525934E+02  0.21230582083E+02  0.26951691063E+02  0.51100000000E-03 0. -1.
        -11    1    3    3    0    0  0.58836822950E+01  0.10751401688E+02  0.11855423617E+02  0.17051727918E+02  0.51100000000E-03 0.  1.
         12    1    3    3    0    0  0.17068392548E+01  0.31362890572E+00  0.12502913472E+01  0.21388996669E+01  0.00000000000E+00 0. -1.
</event>
<event>
 7    1  0.1486782E-008  0.4614232E+02  0.7816164E-02  0.1320468E+00
        -11   -1    0    0    0    0  0.00000000000E+00  0.00000000000E+00  0.45593999997E+02  0.45594000000E+02  0.51100000000E-03 0.  1.
         11   -1    0    0    0    0 -0.00000000000E+00 -0.00000000000E+00 -0.45593999997E+02  0.45594000000E+02  0.51100000000E-03 0. -1.
    9900012    2    1    2    0    0  0.19629808745E+02  0.17280543536E+02 -0.36676517738E+02  0.46142317303E+02  0.99999958223E+01 0.  0.
        -12    1    1    2    0    0 -0.19629808745E+02 -0.17280543536E+02  0.36676517738E+02  0.45045682697E+02  0.00000000000E+00 0.  1.
         11    1    3    3    0    0  0.12527902753E+02  0.11730202111E+02 -0.20983057882E+02  0.27107834795E+02  0.51100000000E-03 0. -1.
        -11    1    3    3    0    0  0.64079914624E+00  0.22473354003E+01 -0.80475322451E+00  0.24715921914E+01  0.51100000000E-03 0.  1.
         12    1    3    3    0    0  0.64611068455E+01  0.33030060252E+01 -0.14888706631E+02  0.16562890316E+02  0.00000000000E+00 0. -1.
</event>
<event>
 7    1  0.1486782E-008  0.4614232E+02  0.7816164E-02  0.1320468E+00
        -11   -1    0    0    0    0  0.00000000000E+00  0.00000000000E+00  0.45593999997E+02  0.45594000000E+02  0.51100000000E-03 0.  1.
         11   -1    0    0    0    0 -0.00000000000E+00 -0.00000000000E+00 -0.45593999997E+02  0.45594000000E+02  0.51100000000E-03 0. -1.
    9900012    2    1    2    0    0 -0.23737860670E+02  0.26944149509E+02 -0.27196329456E+02  0.46142316990E+02  0.99999929662E+01 0.  0.
        -12    1    1    2    0    0  0.23737860670E+02 -0.26944149509E+02  0.27196329456E+02  0.45045683010E+02  0.00000000000E+00 0.  1.
         11    1    3    3    0    0 -0.14294091533E+02  0.20419999008E+02 -0.20572504842E+02  0.32319117686E+02  0.51100000000E-03 0. -1.
        -11    1    3    3    0    0 -0.83733198880E+01  0.44897423612E+01 -0.65180076333E+01  0.11521922417E+02  0.51100000000E-03 0.  1.
         12    1    3    3    0    0 -0.10704492494E+01  0.20344081403E+01 -0.10581698012E+00  0.23012768869E+01  0.00000000000E+00 0. -1.
</event>
<event>
 7    1  0.1486782E-008  0.4614232E+02  0.7816164E-02  0.1320468E+00
        -11   -1    0    0    0    0  0.00000000000E+00  0.00000000000E+00  0.45593999997E+02  0.45594000000E+02  0.51100000000E-03 0.  1.
         11   -1    0    0    0    0 -0.00000000000E+00 -0.00000000000E+00 -0.45593999997E+02  0.45594000000E+02  0.51100000000E-03 0. -1.
    9900012    2    1    2    0    0  0.14591505098E+02  0.23777437372E+02 -0.35367145782E+02  0.46142317079E+02  0.99999937840E+01 0.  0.
        -12    1    1    2    0    0 -0.14591505098E+02 -0.23777437372E+02  0.35367145782E+02  0.45045682921E+02  0.00000000000E+00 0.  1.
         11    1    3    3    0    0  0.12067794809E+01  0.14599554612E+01 -0.70736338190E+01  0.73228466003E+01  0.51100000000E-03 0. -1.
        -11    1    3    3    0    0  0.12838885168E+02  0.21343788618E+02 -0.28304317529E+02  0.37703165331E+02  0.51100000000E-03 0.  1.
        -12    1    3    3    0    0  0.54584044894E+00  0.97369329238E+00  0.10805565802E-01  0.11163051481E+01  0.00000000000E+00 0.  1.
</event>
<event>
 7    1  0.1486782E-008  0.4614232E+02  0.7816164E-02  0.1320468E+00
        -11   -1    0    0    0    0  0.00000000000E+00  0.00000000000E+00  0.45593999997E+02  0.45594000000E+02  0.51100000000E-03 0. -1.
         11   -1    0    0    0    0 -0.00000000000E+00 -0.00000000000E+00 -0.45593999997E+02  0.45594000000E+02  0.51100000000E-03 0.  1.
    9900012    2    1    2    0    0 -0.43236418373E+02 -0.23636777855E+01  0.12415265677E+02  0.46142315764E+02  0.99999817927E+01 0.  0.
        -12    1    1    2    0    0  0.43236418373E+02  0.23636777855E+01 -0.12415265677E+02  0.45045684236E+02  0.00000000000E+00 0.  1.
         11    1    3    3    0    0 -0.18272910990E+02  0.77304201168E-01  0.85923378034E+01  0.20192412466E+02  0.51100000000E-03 0. -1.
        -11    1    3    3    0    0 -0.14282933772E+02 -0.69983654297E+00 -0.47035512519E+00  0.14307802156E+02  0.51100000000E-03 0.  1.
         12    1    3    3    0    0 -0.10680573611E+02 -0.17411454437E+01  0.42932829986E+01  0.11642101143E+02  0.00000000000E+00 0. -1.
</event>
<event>
 7    1  0.1486782E-008  0.4614232E+02  0.7816164E-02  0.1320468E+00
        -11   -1    0    0    0    0  0.00000000000E+00  0.00000000000E+00  0.45593999997E+02  0.45594000000E+02  0.51100000000E-03 0. -1.
         11   -1    0    0    0    0 -0.00000000000E+00 -0.00000000000E+00 -0.45593999997E+02  0.45594000000E+02  0.51100000000E-03 0.  1.
    9900012    2    1    2    0    0 -0.44867914123E+02  0.35030254218E+01 -0.19267636176E+01  0.46142319598E+02  0.10000016753E+02 0.  0.
        -12    1    1    2    0    0  0.44867914123E+02 -0.35030254218E+01  0.19267636176E+01  0.45045680402E+02  0.00000000000E+00 0.  1.
         11    1    3    3    0    0 -0.18538531057E+02 -0.14216177920E+01  0.58007415778E+00  0.18602005730E+02  0.51100000000E-03 0. -1.
        -11    1    3    3    0    0 -0.20850363537E+02  0.62884630860E+01 -0.21164690324E+01  0.21880627711E+02  0.51100000000E-03 0.  1.
        -12    1    3    3    0    0 -0.54790195283E+01 -0.13638198722E+01 -0.39036874291E+00  0.56596861566E+01  0.00000000000E+00 0.  1.
</event>
<event>
 7    1  0.1486782E-008  0.4614232E+02  0.7816164E-02  0.1320468E+00
        -11   -1    0    0    0    0  0.00000000000E+00  0.00000000000E+00  0.45593999997E+02  0.45594000000E+02  0.51100000000E-03 0.  1.
         11   -1    0    0    0    0 -0.00000000000E+00 -0.00000000000E+00 -0.45593999997E+02  0.45594000000E+02  0.51100000000E-03 0. -1.
    9900012    2    1    2    0    0 -0.33508256750E+02  0.11208131435E+02 -0.27940793307E+02  0.46142318616E+02  0.10000007799E+02 0.  0.
        -12    1    1    2    0    0  0.33508256750E+02 -0.11208131435E+02  0.27940793307E+02  0.45045681384E+02  0.00000000000E+00 0.  1.
         11    1    3    3    0    0 -0.22189137062E+02  0.11291952311E+02 -0.20184271881E+02  0.32051065851E+02  0.51100000000E-03 0. -1.
        -11    1    3    3    0    0 -0.69640570461E+01 -0.73770338875E+00 -0.63900557310E+01  0.94802483795E+01  0.51100000000E-03 0.  1.
        -12    1    3    3    0    0 -0.43550626412E+01  0.65388251283E+00 -0.13664656956E+01  0.46110043859E+01  0.00000000000E+00 0.  1.
</event>
<event>
 7    1  0.1486782E-008  0.4614232E+02  0.7816164E-02  0.1320468E+00
        -11   -1    0    0    0    0  0.00000000000E+00  0.00000000000E+00  0.45593999997E+02  0.45594000000E+02  0.51100000000E-03 0. -1.
         11   -1    0    0    0    0 -0.00000000000E+00 -0.00000000000E+00 -0.45593999997E+02  0.45594000000E+02  0.51100000000E-03 0.  1.
    9900012    2    1    2    0    0 -0.33777031555E+02  0.19032520223E+02  0.22934446077E+02  0.46142317593E+02  0.99999984658E+01 0.  0.
        -12    1    1    2    0    0  0.33777031555E+02 -0.19032520223E+02 -0.22934446077E+02  0.45045682407E+02  0.00000000000E+00 0.  1.
         11    1    3    3    0    0 -0.43248973790E+01  0.45542216386E+01  0.22789023590E+01  0.66812475105E+01  0.51100000000E-03 0. -1.
        -11    1    3    3    0    0 -0.26870468278E+01  0.53058385952E+00 -0.24440212619E+00  0.27498131841E+01  0.51100000000E-03 0.  1.
         12    1    3    3    0    0 -0.26765087348E+02  0.13947714725E+02  0.20899945844E+02  0.36711256898E+02  0.00000000000E+00 0. -1.
</event>
<event>
 7    1  0.1486782E-008  0.4614232E+02  0.7816164E-02  0.1320468E+00
        -11   -1    0    0    0    0  0.00000000000E+00  0.00000000000E+00  0.45593999997E+02  0.45594000000E+02  0.51100000000E-03 0. -1.
         11   -1    0    0    0    0 -0.00000000000E+00 -0.00000000000E+00 -0.45593999997E+02  0.45594000000E+02  0.51100000000E-03 0.  1.
    9900012    2    1    2    0    0  0.29475221893E+02 -0.25459333823E+02  0.22630666805E+02  0.46142318027E+02  0.10000002424E+02 0.  0.
        -12    1    1    2    0    0 -0.29475221893E+02  0.25459333823E+02 -0.22630666805E+02  0.45045681973E+02  0.00000000000E+00 0.  1.
         11    1    3    3    0    0  0.11876346901E+02 -0.54957246156E+01  0.83097954212E+01  0.15501719420E+02  0.51100000000E-03 0. -1.
        -11    1    3    3    0    0  0.27037842107E+01 -0.44227052062E+01  0.49345368403E+01  0.71568445902E+01  0.51100000000E-03 0.  1.
         12    1    3    3    0    0  0.14895090781E+02 -0.15540904002E+02  0.93863345436E+01  0.23483754017E+02  0.00000000000E+00 0. -1.
</event>
<event>
 7    1  0.1486782E-008  0.4614232E+02  0.7816164E-02  0.1320468E+00
        -11   -1    0    0    0    0  0.00000000000E+00  0.00000000000E+00  0.45593999997E+02  0.45594000000E+02  0.51100000000E-03 0.  1.
         11   -1    0    0    0    0 -0.00000000000E+00 -0.00000000000E+00 -0.45593999997E+02  0.45594000000E+02  0.51100000000E-03 0. -1.
    9900012    2    1    2    0    0  0.11489876241E+02  0.37974513531E+02 -0.21331491447E+02  0.46142318062E+02  0.10000002740E+02 0.  0.
        -12    1    1    2    0    0 -0.11489876241E+02 -0.37974513531E+02  0.21331491447E+02  0.45045681938E+02  0.00000000000E+00 0.  1.
         11    1    3    3    0    0  0.11265720346E+02  0.30970818087E+02 -0.20132666042E+02  0.38619066147E+02  0.51100000000E-03 0. -1.
        -11    1    3    3    0    0 -0.24536343397E+00 -0.32733912296E-01  0.21847738335E+00  0.33016261433E+00  0.51100000000E-03 0.  1.
         12    1    3    3    0    0  0.46951932953E+00  0.70364293563E+01 -0.14173027892E+01  0.71930893003E+01  0.00000000000E+00 0. -1.
</event>
<event>
 7    1  0.1486782E-008  0.4614231E+02  0.7816164E-02  0.1320468E+00
        -11   -1    0    0    0    0  0.00000000000E+00  0.00000000000E+00  0.45593999997E+02  0.45594000000E+02  0.51100000000E-03 0.  1.
         11   -1    0    0    0    0 -0.00000000000E+00 -0.00000000000E+00 -0.45593999997E+02  0.45594000000E+02  0.51100000000E-03 0. -1.
    9900012    2    1    2    0    0  0.40217677185E+02  0.19653617093E+02 -0.50386046539E+01  0.46142314748E+02  0.99999725247E+01 0.  0.
        -12    1    1    2    0    0 -0.40217677185E+02 -0.19653617093E+02  0.50386046539E+01  0.45045685252E+02  0.00000000000E+00 0.  1.
         11    1    3    3    0    0  0.60112332532E+01  0.17798314097E+01  0.45407838637E+00  0.62856115465E+01  0.51100000000E-03 0. -1.
        -11    1    3    3    0    0  0.19772047647E+02  0.56582899809E+01 -0.27104023102E+01  0.20743586831E+02  0.51100000000E-03 0.  1.
        -12    1    3    3    0    0  0.14434396285E+02  0.12215495702E+02 -0.27822807300E+01  0.19113116371E+02  0.00000000000E+00 0.  1.
</event>
<event>
 7    1  0.1486782E-008  0.4614231E+02  0.7816164E-02  0.1320468E+00
        -11   -1    0    0    0    0  0.00000000000E+00  0.00000000000E+00  0.45593999997E+02  0.45594000000E+02  0.51100000000E-03 0.  1.
         11   -1    0    0    0    0 -0.00000000000E+00 -0.00000000000E+00 -0.45593999997E+02  0.45594000000E+02  0.51100000000E-03 0. -1.
    9900012    2    1    2    0    0 -0.16895292943E+02  0.31960555708E+02 -0.26873513613E+02  0.46142314538E+02  0.99999706134E+01 0.  0.
        -12    1    1    2    0    0  0.16895292943E+02 -0.31960555708E+02  0.26873513613E+02  0.45045685462E+02  0.00000000000E+00 0.  1.
         11    1    3    3    0    0  0.47332815774E+00  0.30841548400E+00 -0.11234024274E+01  0.12574549418E+01  0.51100000000E-03 0.  1.
        -11    1    3    3    0    0 -0.19241394815E+01  0.54351627006E+01 -0.14521249814E+01  0.59457525637E+01  0.51100000000E-03 0. -1.
         12    1    3    3    0    0 -0.15444481619E+02  0.26216977524E+02 -0.24297986204E+02  0.38939107033E+02  0.00000000000E+00 0. -1.
</event>
<event>
 7    1  0.1486782E-008  0.4614232E+02  0.7816164E-02  0.1320468E+00
        -11   -1    0    0    0    0  0.00000000000E+00  0.00000000000E+00  0.45593999997E+02  0.45594000000E+02  0.51100000000E-03 0.  1.
         11   -1    0    0    0    0 -0.00000000000E+00 -0.00000000000E+00 -0.45593999997E+02  0.45594000000E+02  0.51100000000E-03 0. -1.
    9900012    2    1    2    0    0 -0.36470998505E+02 -0.25743871737E+02 -0.60193671948E+01  0.46142318239E+02  0.10000004354E+02 0.  0.
        -12    1    1    2    0    0  0.36470998505E+02  0.25743871737E+02  0.60193671948E+01  0.45045681761E+02  0.00000000000E+00 0.  1.
         11    1    3    3    0    0 -0.16281498934E+02 -0.13525876309E+02  0.10226265515E+01  0.21191562065E+02  0.51100000000E-03 0. -1.
        -11    1    3    3    0    0 -0.95832165430E+01 -0.47375052851E+01 -0.13376331060E+01  0.10773637186E+02  0.51100000000E-03 0.  1.
         12    1    3    3    0    0 -0.10606283028E+02 -0.74804901427E+01 -0.57043606403E+01  0.14177118987E+02  0.00000000000E+00 0. -1.
</event>
<event>
 7    1  0.1486782E-008  0.4614232E+02  0.7816164E-02  0.1320468E+00
        -11   -1    0    0    0    0  0.00000000000E+00  0.00000000000E+00  0.45593999997E+02  0.45594000000E+02  0.51100000000E-03 0.  1.
         11   -1    0    0    0    0 -0.00000000000E+00 -0.00000000000E+00 -0.45593999997E+02  0.45594000000E+02  0.51100000000E-03 0. -1.
    9900012    2    1    2    0    0 -0.10691553906E+02  0.36555653044E+01 -0.43605516830E+02  0.46142316737E+02  0.99999906592E+01 0.  0.
        -12    1    1    2    0    0  0.10691553906E+02 -0.36555653044E+01  0.43605516830E+02  0.45045683263E+02  0.00000000000E+00 0.  1.
         11    1    3    3    0    0 -0.49736975862E+01  0.27503155367E+01 -0.30686789010E+02  0.31208667438E+02  0.51100000000E-03 0. -1.
        -11    1    3    3    0    0 -0.50193055116E+01 -0.10338659476E+01 -0.70669020663E+01  0.87294565520E+01  0.51100000000E-03 0.  1.
        -12    1    3    3    0    0 -0.69855080799E+00  0.19391157152E+01 -0.58518257539E+01  0.62041927470E+01  0.00000000000E+00 0.  1.
</event>
<event>
 7    1  0.1486782E-008  0.4614232E+02  0.7816164E-02  0.1320468E+00
        -11   -1    0    0    0    0  0.00000000000E+00  0.00000000000E+00  0.45593999997E+02  0.45594000000E+02  0.51100000000E-03 0.  1.
         11   -1    0    0    0    0 -0.00000000000E+00 -0.00000000000E+00 -0.45593999997E+02  0.45594000000E+02  0.51100000000E-03 0. -1.
    9900012    2    1    2    0    0  0.32850668467E+02  0.28434596334E+02 -0.11892048826E+02  0.46142317492E+02  0.99999975434E+01 0.  0.
        -12    1    1    2    0    0 -0.32850668467E+02 -0.28434596334E+02  0.11892048826E+02  0.45045682508E+02  0.00000000000E+00 0.  1.
         11    1    3    3    0    0  0.24695582845E+02  0.17442490822E+02 -0.95223959704E+01  0.31698396228E+02  0.51100000000E-03 0. -1.
        -11    1    3    3    0    0  0.35020213587E+01  0.55123878680E+01  0.81487334548E+00  0.65813822587E+01  0.51100000000E-03 0.  1.
        -12    1    3    3    0    0  0.46530642632E+01  0.54797176434E+01 -0.31845262006E+01  0.78625390054E+01  0.00000000000E+00 0.  1.
</event>
<event>
 7    1  0.1486782E-008  0.4614232E+02  0.7816164E-02  0.1320468E+00
        -11   -1    0    0    0    0  0.00000000000E+00  0.00000000000E+00  0.45593999997E+02  0.45594000000E+02  0.51100000000E-03 0. -1.
         11   -1    0    0    0    0 -0.00000000000E+00 -0.00000000000E+00 -0.45593999997E+02  0.45594000000E+02  0.51100000000E-03 0.  1.
    9900012    2    1    2    0    0  0.27071381543E+02 -0.29564161114E+02  0.20547848907E+02  0.46142318567E+02  0.10000007348E+02 0.  0.
        -12    1    1    2    0    0 -0.27071381543E+02  0.29564161114E+02 -0.20547848907E+02  0.45045681433E+02  0.00000000000E+00 0.  1.
         11    1    3    3    0    0  0.17644272756E+02 -0.18729778228E+02  0.10893379116E+02  0.27942631629E+02  0.51100000000E-03 0. -1.
        -11    1    3    3    0    0  0.41812625008E+01 -0.10573919848E+01  0.31193296994E+01  0.53227109582E+01  0.51100000000E-03 0.  1.
         12    1    3    3    0    0  0.52458462870E+01 -0.97769909020E+01  0.65351400912E+01  0.12876975979E+02  0.00000000000E+00 0. -1.
</event>
<event>
 7    1  0.1486782E-008  0.4614232E+02  0.7816164E-02  0.1320468E+00
        -11   -1    0    0    0    0  0.00000000000E+00  0.00000000000E+00  0.45593999997E+02  0.45594000000E+02  0.51100000000E-03 0.  1.
         11   -1    0    0    0    0 -0.00000000000E+00 -0.00000000000E+00 -0.45593999997E+02  0.45594000000E+02  0.51100000000E-03 0. -1.
    9900012    2    1    2    0    0 -0.20955208324E+02 -0.39174886469E+02 -0.74378075685E+01  0.46142317996E+02  0.10000002146E+02 0.  0.
        -12    1    1    2    0    0  0.20955208324E+02  0.39174886469E+02  0.74378075685E+01  0.45045682004E+02  0.00000000000E+00 0.  1.
         11    1    3    3    0    0 -0.30541834853E+01 -0.29872537528E+01  0.82739939613E+00  0.43515872698E+01  0.51100000000E-03 0.  1.
        -11    1    3    3    0    0 -0.93656079281E+01 -0.11451355207E+02 -0.32746396848E+01  0.15151614213E+02  0.51100000000E-03 0. -1.
        -12    1    3    3    0    0 -0.85354169107E+01 -0.24736277509E+02 -0.49905672798E+01  0.26639116513E+02  0.00000000000E+00 0.  1.
</event>
<event>
 7    1  0.1486782E-008  0.4614232E+02  0.7816164E-02  0.1320468E+00
        -11   -1    0    0    0    0  0.00000000000E+00  0.00000000000E+00  0.45593999997E+02  0.45594000000E+02  0.51100000000E-03 0. -1.
         11   -1    0    0    0    0 -0.00000000000E+00 -0.00000000000E+00 -0.45593999997E+02  0.45594000000E+02  0.51100000000E-03 0.  1.
    9900012    2    1    2    0    0  0.31109801566E+02 -0.26158288903E+02  0.19417450622E+02  0.46142320734E+02  0.10000027113E+02 0.  0.
        -12    1    1    2    0    0 -0.31109801566E+02  0.26158288903E+02 -0.19417450622E+02  0.45045679266E+02  0.00000000000E+00 0.  1.
         11    1    3    3    0    0  0.88892717895E+01 -0.12691950611E+02  0.55345177878E+01  0.16454046635E+02  0.51100000000E-03 0. -1.
        -11    1    3    3    0    0  0.94457373724E+01 -0.48656700763E+01  0.75611456919E+01  0.13040997824E+02  0.51100000000E-03 0.  1.
         12    1    3    3    0    0  0.12774792405E+02 -0.86006682162E+01  0.63217871422E+01  0.16647276276E+02  0.00000000000E+00 0. -1.
</event>
<event>
 7    1  0.1486782E-008  0.4614232E+02  0.7816164E-02  0.1320468E+00
        -11   -1    0    0    0    0  0.00000000000E+00  0.00000000000E+00  0.45593999997E+02  0.45594000000E+02  0.51100000000E-03 0.  1.
         11   -1    0    0    0    0 -0.00000000000E+00 -0.00000000000E+00 -0.45593999997E+02  0.45594000000E+02  0.51100000000E-03 0. -1.
    9900012    2    1    2    0    0 -0.24606286446E+02  0.37142330012E+02 -0.66401557806E+01  0.46142315632E+02  0.99999805877E+01 0.  0.
        -12    1    1    2    0    0  0.24606286446E+02 -0.37142330012E+02  0.66401557806E+01  0.45045684368E+02  0.00000000000E+00 0.  1.
         11    1    3    3    0    0 -0.67707373466E+01  0.12829405284E+02 -0.41193578958E+01  0.15079974599E+02  0.51100000000E-03 0. -1.
        -11    1    3    3    0    0 -0.34726452934E+01  0.31970523461E+01 -0.28662971160E+01  0.55223245518E+01  0.51100000000E-03 0.  1.
         12    1    3    3    0    0 -0.14362903806E+02  0.21115872381E+02  0.34549923116E+00  0.25540016482E+02  0.00000000000E+00 0. -1.
</event>
<event>
 7    1  0.1486782E-008  0.4614232E+02  0.7816164E-02  0.1320468E+00
        -11   -1    0    0    0    0  0.00000000000E+00  0.00000000000E+00  0.45593999997E+02  0.45594000000E+02  0.51100000000E-03 0.  1.
         11   -1    0    0    0    0 -0.00000000000E+00 -0.00000000000E+00 -0.45593999997E+02  0.45594000000E+02  0.51100000000E-03 0. -1.
    9900012    2    1    2    0    0 -0.44358679734E+02 -0.67179889165E+01 -0.40360310122E+01  0.46142318862E+02  0.10000010037E+02 0.  0.
        -12    1    1    2    0    0  0.44358679734E+02  0.67179889165E+01  0.40360310122E+01  0.45045681138E+02  0.00000000000E+00 0.  1.
         11    1    3    3    0    0 -0.12326903599E+02 -0.12371482825E+01 -0.22307920106E+01  0.12588070601E+02  0.51100000000E-03 0. -1.
        -11    1    3    3    0    0 -0.85849895613E+01 -0.66731766325E+00 -0.40454981740E+01  0.95138538126E+01  0.51100000000E-03 0.  1.
        -12    1    3    3    0    0 -0.23446786574E+02 -0.48135229708E+01  0.22402591723E+01  0.24040394448E+02  0.00000000000E+00 0.  1.
</event>
<event>
 7    1  0.1486782E-008  0.4614231E+02  0.7816164E-02  0.1320468E+00
        -11   -1    0    0    0    0  0.00000000000E+00  0.00000000000E+00  0.45593999997E+02  0.45594000000E+02  0.51100000000E-03 0.  1.
         11   -1    0    0    0    0 -0.00000000000E+00 -0.00000000000E+00 -0.45593999997E+02  0.45594000000E+02  0.51100000000E-03 0. -1.
    9900012    2    1    2    0    0 -0.31187418172E+02 -0.18481877196E+02  0.26737221792E+02  0.46142313569E+02  0.99999617720E+01 0.  0.
        -12    1    1    2    0    0  0.31187418172E+02  0.18481877196E+02 -0.26737221792E+02  0.45045686431E+02  0.00000000000E+00 0.  1.
         11    1    3    3    0    0 -0.49178801809E+00 -0.81365383555E+00 -0.43336403904E+00  0.10448409785E+01  0.51100000000E-03 0.  1.
        -11    1    3    3    0    0 -0.94564520897E+01 -0.80261486884E+01  0.12095186487E+02  0.17324464935E+02  0.51100000000E-03 0. -1.
         12    1    3    3    0    0 -0.21239178064E+02 -0.96420746717E+01  0.15075399344E+02  0.27773007655E+02  0.00000000000E+00 0. -1.
</event>
<event>
 7    1  0.1486782E-008  0.4614232E+02  0.7816164E-02  0.1320468E+00
        -11   -1    0    0    0    0  0.00000000000E+00  0.00000000000E+00  0.45593999997E+02  0.45594000000E+02  0.51100000000E-03 0.  1.
         11   -1    0    0    0    0 -0.00000000000E+00 -0.00000000000E+00 -0.45593999997E+02  0.45594000000E+02  0.51100000000E-03 0. -1.
    9900012    2    1    2    0    0 -0.41989111321E+02 -0.23327711647E-01 -0.16310351844E+02  0.46142316622E+02  0.99999896128E+01 0.  0.
        -12    1    1    2    0    0  0.41989111321E+02  0.23327711647E-01  0.16310351844E+02  0.45045683378E+02  0.00000000000E+00 0.  1.
         11    1    3    3    0    0 -0.27851462596E+02  0.22221783475E+01 -0.91677621918E+01  0.29405610166E+02  0.51100000000E-03 0. -1.
        -11    1    3    3    0    0 -0.91125942747E+01 -0.18793670341E+01 -0.70903605802E+01  0.11698060022E+02  0.51100000000E-03 0.  1.
         12    1    3    3    0    0 -0.50250544500E+01 -0.36613902507E+00 -0.52229072399E-01  0.50386464340E+01  0.00000000000E+00 0. -1.
</event>
<event>
 7    1  0.1486782E-008  0.4614232E+02  0.7816164E-02  0.1320468E+00
        -11   -1    0    0    0    0  0.00000000000E+00  0.00000000000E+00  0.45593999997E+02  0.45594000000E+02  0.51100000000E-03 0.  1.
         11   -1    0    0    0    0 -0.00000000000E+00 -0.00000000000E+00 -0.45593999997E+02  0.45594000000E+02  0.51100000000E-03 0. -1.
    9900012    2    1    2    0    0  0.26663844699E+02  0.10786187264E+01 -0.36290349611E+02  0.46142317550E+02  0.99999980730E+01 0.  0.
        -12    1    1    2    0    0 -0.26663844699E+02 -0.10786187264E+01  0.36290349611E+02  0.45045682450E+02  0.00000000000E+00 0.  1.
         11    1    3    3    0    0  0.66703478616E+01  0.24415788128E+01 -0.11034996308E+02  0.13123490064E+02  0.51100000000E-03 0. -1.
        -11    1    3    3    0    0  0.15304929286E+02 -0.32153133740E+01 -0.22092204423E+02  0.27067408392E+02  0.51100000000E-03 0.  1.
        -12    1    3    3    0    0  0.46885675508E+01  0.18523532876E+01 -0.31631488811E+01  0.59514190933E+01  0.00000000000E+00 0.  1.
</event>
<event>
 7    1  0.1486782E-008  0.4614232E+02  0.7816164E-02  0.1320468E+00
        -11   -1    0    0    0    0  0.00000000000E+00  0.00000000000E+00  0.45593999997E+02  0.45594000000E+02  0.51100000000E-03 0.  1.
         11   -1    0    0    0    0 -0.00000000000E+00 -0.00000000000E+00 -0.45593999997E+02  0.45594000000E+02  0.51100000000E-03 0. -1.
    9900012    2    1    2    0    0  0.86882999708E+01  0.11856416308E+02 -0.42579952567E+02  0.46142317358E+02  0.99999963240E+01 0.  0.
        -12    1    1    2    0    0 -0.86882999708E+01 -0.11856416308E+02  0.42579952567E+02  0.45045682642E+02  0.00000000000E+00 0.  1.
         11    1    3    3    0    0 -0.28330163572E+00  0.29650893027E+01 -0.69212418911E+01  0.75349587900E+01  0.51100000000E-03 0. -1.
        -11    1    3    3    0    0  0.17653915853E+01  0.38239032267E+00 -0.15203464126E+02  0.15310393578E+02  0.51100000000E-03 0.  1.
         12    1    3    3    0    0  0.72062100212E+01  0.85089366823E+01 -0.20455246550E+02  0.23296964990E+02  0.00000000000E+00 0. -1.
</event>
<event>
 7    1  0.1486782E-008  0.4614232E+02  0.7816164E-02  0.1320468E+00
        -11   -1    0    0    0    0  0.00000000000E+00  0.00000000000E+00  0.45593999997E+02  0.45594000000E+02  0.51100000000E-03 0.  1.
         11   -1    0    0    0    0 -0.00000000000E+00 -0.00000000000E+00 -0.45593999997E+02  0.45594000000E+02  0.51100000000E-03 0. -1.
    9900012    2    1    2    0    0  0.19392434722E+02  0.37083250416E+02  0.16669718331E+02  0.46142317686E+02  0.99999993191E+01 0.  0.
        -12    1    1    2    0    0 -0.19392434722E+02 -0.37083250416E+02 -0.16669718331E+02  0.45045682314E+02  0.00000000000E+00 0.  1.
         11    1    3    3    0    0  0.77604948733E+00  0.77718131635E+00  0.23330091566E+01  0.25786034188E+01  0.51100000000E-03 0. -1.
        -11    1    3    3    0    0  0.74586665849E-01 -0.18704894380E+00  0.10272548970E+00  0.22606031375E+00  0.51100000000E-03 0.  1.
         12    1    3    3    0    0  0.18541798569E+02  0.36493118043E+02  0.14233983685E+02  0.43337653954E+02  0.00000000000E+00 0. -1.
</event>
<event>
 7    1  0.1486782E-008  0.4614232E+02  0.7816164E-02  0.1320468E+00
        -11   -1    0    0    0    0  0.00000000000E+00  0.00000000000E+00  0.45593999997E+02  0.45594000000E+02  0.51100000000E-03 0.  1.
         11   -1    0    0    0    0 -0.00000000000E+00 -0.00000000000E+00 -0.45593999997E+02  0.45594000000E+02  0.51100000000E-03 0. -1.
    9900012    2    1    2    0    0  0.44077818886E+02 -0.60832838803E+01  0.70180468624E+01  0.46142318273E+02  0.10000004666E+02 0.  0.
        -12    1    1    2    0    0 -0.44077818886E+02  0.60832838803E+01 -0.70180468624E+01  0.45045681727E+02  0.00000000000E+00 0.  1.
         11    1    3    3    0    0  0.42383761326E+01  0.58907455136E+00  0.71339508423E+00  0.43381763306E+01  0.51100000000E-03 0. -1.
        -11    1    3    3    0    0  0.33688719387E+02 -0.26841044128E+01  0.35840837428E+01  0.33984995027E+02  0.51100000000E-03 0.  1.
        -12    1    3    3    0    0  0.61507233663E+01 -0.39882540189E+01  0.27205680354E+01  0.78191469153E+01  0.00000000000E+00 0.  1.
</event>
<event>
 7    1  0.1486782E-008  0.4614232E+02  0.7816164E-02  0.1320468E+00
        -11   -1    0    0    0    0  0.00000000000E+00  0.00000000000E+00  0.45593999997E+02  0.45594000000E+02  0.51100000000E-03 0. -1.
         11   -1    0    0    0    0 -0.00000000000E+00 -0.00000000000E+00 -0.45593999997E+02  0.45594000000E+02  0.51100000000E-03 0.  1.
    9900012    2    1    2    0    0  0.30167513493E+02 -0.33067151414E+02  0.50594565571E+01  0.46142317925E+02  0.10000001493E+02 0.  0.
        -12    1    1    2    0    0 -0.30167513493E+02  0.33067151414E+02 -0.50594565571E+01  0.45045682075E+02  0.00000000000E+00 0.  1.
         11    1    3    3    0    0  0.14982082770E+02 -0.15472144152E+02 -0.59081381062E+00  0.21545280458E+02  0.51100000000E-03 0. -1.
        -11    1    3    3    0    0  0.50231730453E+00 -0.29062330776E+01  0.18546369556E+01  0.34839907971E+01  0.51100000000E-03 0.  1.
         12    1    3    3    0    0  0.14683113418E+02 -0.14688774184E+02  0.37956334121E+01  0.21113046670E+02  0.00000000000E+00 0. -1.
</event>
<event>
 7    1  0.1486782E-008  0.4614232E+02  0.7816164E-02  0.1320468E+00
        -11   -1    0    0    0    0  0.00000000000E+00  0.00000000000E+00  0.45593999997E+02  0.45594000000E+02  0.51100000000E-03 0. -1.
         11   -1    0    0    0    0 -0.00000000000E+00 -0.00000000000E+00 -0.45593999997E+02  0.45594000000E+02  0.51100000000E-03 0.  1.
    9900012    2    1    2    0    0 -0.40774436883E+02  0.18484669821E+02  0.49875490963E+01  0.46142319103E+02  0.10000012232E+02 0.  0.
        -12    1    1    2    0    0  0.40774436883E+02 -0.18484669821E+02 -0.49875490963E+01  0.45045680897E+02  0.00000000000E+00 0.  1.
         11    1    3    3    0    0 -0.17246484125E+02  0.66766710817E+01  0.45479077429E+01  0.19044752992E+02  0.51100000000E-03 0. -1.
        -11    1    3    3    0    0 -0.97729039624E+00  0.19050817628E+01  0.12040466232E+01  0.24564530473E+01  0.51100000000E-03 0.  1.
         12    1    3    3    0    0 -0.22550662362E+02  0.99029169762E+01 -0.76440526981E+00  0.24641113063E+02  0.00000000000E+00 0. -1.
</event>
<event>
 7    1  0.1486782E-008  0.4614232E+02  0.7816164E-02  0.1320468E+00
        -11   -1    0    0    0    0  0.00000000000E+00  0.00000000000E+00  0.45593999997E+02  0.45594000000E+02  0.51100000000E-03 0.  1.
         11   -1    0    0    0    0 -0.00000000000E+00 -0.00000000000E+00 -0.45593999997E+02  0.45594000000E+02  0.51100000000E-03 0. -1.
    9900012    2    1    2    0    0 -0.24408416566E+02  0.56146076161E+01 -0.37440871718E+02  0.46142317710E+02  0.99999995367E+01 0.  0.
        -12    1    1    2    0    0  0.24408416566E+02 -0.56146076161E+01  0.37440871718E+02  0.45045682290E+02  0.00000000000E+00 0.  1.
         11    1    3    3    0    0 -0.15389588953E+02  0.19447464114E+01 -0.30222014325E+02  0.33970452409E+02  0.51100000000E-03 0. -1.
        -11    1    3    3    0    0 -0.40594970989E+01  0.17270539180E+01 -0.25929589958E+01  0.51171934248E+01  0.51100000000E-03 0.  1.
         12    1    3    3    0    0 -0.49593305149E+01  0.19428072867E+01 -0.46258983968E+01  0.70546718766E+01  0.00000000000E+00 0. -1.
</event>
<event>
 7    1  0.1486782E-008  0.4614232E+02  0.7816164E-02  0.1320468E+00
        -11   -1    0    0    0    0  0.00000000000E+00  0.00000000000E+00  0.45593999997E+02  0.45594000000E+02  0.51100000000E-03 0. -1.
         11   -1    0    0    0    0 -0.00000000000E+00 -0.00000000000E+00 -0.45593999997E+02  0.45594000000E+02  0.51100000000E-03 0.  1.
    9900012    2    1    2    0    0  0.75350583293E+01  0.42626356937E+02 -0.12463156442E+02  0.46142315653E+02  0.99999807785E+01 0.  0.
        -12    1    1    2    0    0 -0.75350583293E+01 -0.42626356937E+02  0.12463156442E+02  0.45045684347E+02  0.00000000000E+00 0.  1.
         11    1    3    3    0    0  0.20230322762E+01  0.28566467467E+01 -0.32165588692E+01  0.47538764651E+01  0.51100000000E-03 0. -1.
        -11    1    3    3    0    0  0.16195139231E+01  0.37526955355E+01 -0.14113991541E+01  0.43240718036E+01  0.51100000000E-03 0.  1.
         12    1    3    3    0    0  0.38925121300E+01  0.36017014655E+02 -0.78351984186E+01  0.37064367384E+02  0.00000000000E+00 0. -1.
</event>
<event>
 7    1  0.1486782E-008  0.4614232E+02  0.7816164E-02  0.1320468E+00
        -11   -1    0    0    0    0  0.00000000000E+00  0.00000000000E+00  0.45593999997E+02  0.45594000000E+02  0.51100000000E-03 0.  1.
         11   -1    0    0    0    0 -0.00000000000E+00 -0.00000000000E+00 -0.45593999997E+02  0.45594000000E+02  0.51100000000E-03 0. -1.
    9900012    2    1    2    0    0  0.85504943252E+01  0.42829232122E+02 -0.11029930009E+02  0.46142318372E+02  0.10000005568E+02 0.  0.
        -12    1    1    2    0    0 -0.85504943252E+01 -0.42829232122E+02  0.11029930009E+02  0.45045681628E+02  0.00000000000E+00 0.  1.
         11    1    3    3    0    0  0.33905889907E+01  0.30481721240E+02 -0.10560624967E+02  0.32436988508E+02  0.51100000000E-03 0. -1.
        -11    1    3    3    0    0  0.30707544499E+01  0.47730697683E+01  0.84754918724E+00  0.57384726008E+01  0.51100000000E-03 0.  1.
        -12    1    3    3    0    0  0.20891508846E+01  0.75744411130E+01 -0.13168542293E+01  0.79668572634E+01  0.00000000000E+00 0.  1.
</event>
<event>
 7    1  0.1486782E-008  0.4614232E+02  0.7816164E-02  0.1320468E+00
        -11   -1    0    0    0    0  0.00000000000E+00  0.00000000000E+00  0.45593999997E+02  0.45594000000E+02  0.51100000000E-03 0.  1.
         11   -1    0    0    0    0 -0.00000000000E+00 -0.00000000000E+00 -0.45593999997E+02  0.45594000000E+02  0.51100000000E-03 0. -1.
    9900012    2    1    2    0    0 -0.20274325662E+02 -0.10145072789E+02 -0.38924834539E+02  0.46142317334E+02  0.99999961048E+01 0.  0.
        -12    1    1    2    0    0  0.20274325662E+02  0.10145072789E+02  0.38924834539E+02  0.45045682666E+02  0.00000000000E+00 0.  1.
         11    1    3    3    0    0 -0.63199615032E+01 -0.79734332614E+01 -0.20475740352E+02  0.22864240521E+02  0.51100000000E-03 0. -1.
        -11    1    3    3    0    0 -0.46494911825E+01 -0.38792490012E+00 -0.51477137682E+01  0.69474607796E+01  0.51100000000E-03 0.  1.
         12    1    3    3    0    0 -0.93048729764E+01 -0.17837146274E+01 -0.13301380419E+02  0.16330616034E+02  0.00000000000E+00 0. -1.
</event>
<event>
 7    1  0.1486782E-008  0.4614232E+02  0.7816164E-02  0.1320468E+00
        -11   -1    0    0    0    0  0.00000000000E+00  0.00000000000E+00  0.45593999997E+02  0.45594000000E+02  0.51100000000E-03 0.  1.
         11   -1    0    0    0    0 -0.00000000000E+00 -0.00000000000E+00 -0.45593999997E+02  0.45594000000E+02  0.51100000000E-03 0. -1.
    9900012    2    1    2    0    0  0.10062160299E+02  0.65598711220E+01 -0.43414680539E+02  0.46142318016E+02  0.10000002328E+02 0.  0.
        -12    1    1    2    0    0 -0.10062160299E+02 -0.65598711220E+01  0.43414680539E+02  0.45045681984E+02  0.00000000000E+00 0.  1.
         11    1    3    3    0    0  0.21584851964E+00 -0.27278604018E+00 -0.52938033187E+01  0.53052197547E+01  0.51100000000E-03 0. -1.
        -11    1    3    3    0    0  0.32574640984E+01  0.53145057879E+01 -0.27859621621E+02  0.28548442361E+02  0.51100000000E-03 0.  1.
        -12    1    3    3    0    0  0.65888476811E+01  0.15181513743E+01 -0.10261255600E+02  0.12288655900E+02  0.00000000000E+00 0.  1.
</event>
<event>
 7    1  0.1486782E-008  0.4614232E+02  0.7816164E-02  0.1320468E+00
        -11   -1    0    0    0    0  0.00000000000E+00  0.00000000000E+00  0.45593999997E+02  0.45594000000E+02  0.51100000000E-03 0.  1.
         11   -1    0    0    0    0 -0.00000000000E+00 -0.00000000000E+00 -0.45593999997E+02  0.45594000000E+02  0.51100000000E-03 0. -1.
    9900012    2    1    2    0    0  0.22203623580E+02  0.36592179783E+02  0.14040125736E+02  0.46142315945E+02  0.99999834358E+01 0.  0.
        -12    1    1    2    0    0 -0.22203623580E+02 -0.36592179783E+02 -0.14040125736E+02  0.45045684055E+02  0.00000000000E+00 0.  1.
         11    1    3    3    0    0  0.13801277244E+02  0.16806147256E+02  0.60917438577E+01  0.22583869966E+02  0.51100000000E-03 0. -1.
        -11    1    3    3    0    0  0.72530330865E+01  0.13844126284E+02  0.78865012994E+01  0.17506091069E+02  0.51100000000E-03 0.  1.
         12    1    3    3    0    0  0.11493132497E+01  0.59419062424E+01  0.61880579010E-01  0.60523549090E+01  0.00000000000E+00 0. -1.
</event>
<event>
 7    1  0.1486782E-008  0.4614231E+02  0.7816164E-02  0.1320468E+00
        -11   -1    0    0    0    0  0.00000000000E+00  0.00000000000E+00  0.45593999997E+02  0.45594000000E+02  0.51100000000E-03 0.  1.
         11   -1    0    0    0    0 -0.00000000000E+00 -0.00000000000E+00 -0.45593999997E+02  0.45594000000E+02  0.51100000000E-03 0. -1.
    9900012    2    1    2    0    0 -0.37564854064E+02  0.24779737612E+02 -0.19900245613E+01  0.46142313695E+02  0.99999629192E+01 0.  0.
        -12    1    1    2    0    0  0.37564854064E+02 -0.24779737612E+02  0.19900245613E+01  0.45045686305E+02  0.00000000000E+00 0.  1.
         11    1    3    3    0    0 -0.31840085174E+02  0.18318645730E+02 -0.16261741306E+01  0.36769664777E+02  0.51100000000E-03 0. -1.
        -11    1    3    3    0    0  0.43446430204E+00  0.40138747923E+00  0.37561462359E+00  0.70068376947E+00  0.51100000000E-03 0.  1.
         12    1    3    3    0    0 -0.61592331922E+01  0.60597044028E+01 -0.73946505431E+00  0.86719651482E+01  0.00000000000E+00 0. -1.
</event>
<event>
 7    1  0.1486782E-008  0.4614232E+02  0.7816164E-02  0.1320468E+00
        -11   -1    0    0    0    0  0.00000000000E+00  0.00000000000E+00  0.45593999997E+02  0.45594000000E+02  0.51100000000E-03 0.  1.
         11   -1    0    0    0    0 -0.00000000000E+00 -0.00000000000E+00 -0.45593999997E+02  0.45594000000E+02  0.51100000000E-03 0. -1.
    9900012    2    1    2    0    0 -0.34086830516E+02 -0.24430227098E+01 -0.29346772944E+02  0.46142318111E+02  0.10000003195E+02 0.  0.
        -12    1    1    2    0    0  0.34086830516E+02  0.24430227098E+01  0.29346772944E+02  0.45045681889E+02  0.00000000000E+00 0.  1.
         11    1    3    3    0    0 -0.26937759723E+02 -0.53134023451E+01 -0.24809159234E+02  0.37004993252E+02  0.51100000000E-03 0. -1.
        -11    1    3    3    0    0 -0.35048290986E+01  0.16173046435E+01 -0.12083168076E+01  0.40446917174E+01  0.51100000000E-03 0.  1.
         12    1    3    3    0    0 -0.36442416940E+01  0.12530749918E+01 -0.33292969024E+01  0.50926331425E+01  0.00000000000E+00 0. -1.
</event>
<event>
 7    1  0.1486782E-008  0.4614232E+02  0.7816164E-02  0.1320468E+00
        -11   -1    0    0    0    0  0.00000000000E+00  0.00000000000E+00  0.45593999997E+02  0.45594000000E+02  0.51100000000E-03 0.  1.
         11   -1    0    0    0    0 -0.00000000000E+00 -0.00000000000E+00 -0.45593999997E+02  0.45594000000E+02  0.51100000000E-03 0. -1.
    9900012    2    1    2    0    0 -0.23692360027E+02  0.22982839594E+02 -0.30652481825E+02  0.46142317838E+02  0.10000000700E+02 0.  0.
        -12    1    1    2    0    0  0.23692360027E+02 -0.22982839594E+02  0.30652481825E+02  0.45045682162E+02  0.00000000000E+00 0.  1.
         11    1    3    3    0    0 -0.66234007435E+01  0.44059769416E+01 -0.74310111460E+01  0.10885862259E+02  0.51100000000E-03 0. -1.
        -11    1    3    3    0    0 -0.59420706352E+01  0.11935785592E+02 -0.94190283702E+01  0.16324499282E+02  0.51100000000E-03 0.  1.
        -12    1    3    3    0    0 -0.11126888648E+02  0.66410770606E+01 -0.13802442309E+02  0.18931956296E+02  0.00000000000E+00 0.  1.
</event>
<event>
 7    1  0.1486782E-008  0.4614232E+02  0.7816164E-02  0.1320468E+00
        -11   -1    0    0    0    0  0.00000000000E+00  0.00000000000E+00  0.45593999997E+02  0.45594000000E+02  0.51100000000E-03 0.  1.
         11   -1    0    0    0    0 -0.00000000000E+00 -0.00000000000E+00 -0.45593999997E+02  0.45594000000E+02  0.51100000000E-03 0. -1.
    9900012    2    1    2    0    0  0.15136833316E+02 -0.98927363859E+01 -0.41256800152E+02  0.46142317467E+02  0.99999973186E+01 0.  0.
        -12    1    1    2    0    0 -0.15136833316E+02  0.98927363859E+01  0.41256800152E+02  0.45045682533E+02  0.00000000000E+00 0.  1.
         11    1    3    3    0    0  0.97532487987E+00 -0.36814645219E-01 -0.74720657223E+01  0.75355411458E+01  0.51100000000E-03 0. -1.
        -11    1    3    3    0    0  0.11491180860E+02 -0.38975705847E+01 -0.21102554891E+02  0.24342475577E+02  0.51100000000E-03 0.  1.
         12    1    3    3    0    0  0.26703275758E+01 -0.59583511560E+01 -0.12682179539E+02  0.14264300744E+02  0.00000000000E+00 0. -1.
</event>
<event>
 7    1  0.1486782E-008  0.4614232E+02  0.7816164E-02  0.1320468E+00
        -11   -1    0    0    0    0  0.00000000000E+00  0.00000000000E+00  0.45593999997E+02  0.45594000000E+02  0.51100000000E-03 0.  1.
         11   -1    0    0    0    0 -0.00000000000E+00 -0.00000000000E+00 -0.45593999997E+02  0.45594000000E+02  0.51100000000E-03 0. -1.
    9900012    2    1    2    0    0 -0.40117816109E+02 -0.74952980462E+01 -0.19065538791E+02  0.46142318392E+02  0.10000005753E+02 0.  0.
        -12    1    1    2    0    0  0.40117816109E+02  0.74952980462E+01  0.19065538791E+02  0.45045681608E+02  0.00000000000E+00 0.  1.
         11    1    3    3    0    0 -0.79280439508E+01 -0.16162677911E+01 -0.76483814811E+01  0.11133909556E+02  0.51100000000E-03 0. -1.
        -11    1    3    3    0    0 -0.13118646462E+02 -0.80525265130E+00 -0.65380387058E+01  0.14679688934E+02  0.51100000000E-03 0.  1.
        -12    1    3    3    0    0 -0.19071125697E+02 -0.50737776038E+01 -0.48791186037E+01  0.20328719902E+02  0.00000000000E+00 0.  1.
</event>
<event>
 7    1  0.1486782E-008  0.4614232E+02  0.7816164E-02  0.1320468E+00
        -11   -1    0    0    0    0  0.00000000000E+00  0.00000000000E+00  0.45593999997E+02  0.45594000000E+02  0.51100000000E-03 0. -1.
         11   -1    0    0    0    0 -0.00000000000E+00 -0.00000000000E+00 -0.45593999997E+02  0.45594000000E+02  0.51100000000E-03 0.  1.
    9900012    2    1    2    0    0  0.44096614343E+02 -0.62448454339E+01  0.67530790519E+01  0.46142316881E+02  0.99999919755E+01 0.  0.
        -12    1    1    2    0    0 -0.44096614343E+02  0.62448454339E+01 -0.67530790519E+01  0.45045683119E+02  0.00000000000E+00 0.  1.
         11    1    3    3    0    0  0.94925154394E+01 -0.37107265200E+01  0.32081260486E+01  0.10685008829E+02  0.51100000000E-03 0. -1.
        -11    1    3    3    0    0  0.83432078338E+01  0.93310109619E+00 -0.13992788685E+01  0.85110384928E+01  0.51100000000E-03 0.  1.
        -12    1    3    3    0    0  0.26260891069E+02 -0.34672200101E+01  0.49442318717E+01  0.26946269559E+02  0.00000000000E+00 0.  1.
</event>
<event>
 7    1  0.1486782E-008  0.4614232E+02  0.7816164E-02  0.1320468E+00
        -11   -1    0    0    0    0  0.00000000000E+00  0.00000000000E+00  0.45593999997E+02  0.45594000000E+02  0.51100000000E-03 0.  1.
         11   -1    0    0    0    0 -0.00000000000E+00 -0.00000000000E+00 -0.45593999997E+02  0.45594000000E+02  0.51100000000E-03 0. -1.
    9900012    2    1    2    0    0  0.28208347203E+02 -0.26987581752E+02 -0.22473830734E+02  0.46142317758E+02  0.99999999757E+01 0.  0.
        -12    1    1    2    0    0 -0.28208347203E+02  0.26987581752E+02  0.22473830734E+02  0.45045682242E+02  0.00000000000E+00 0.  1.
         11    1    3    3    0    0  0.12072510647E+02 -0.15855188924E+02 -0.13056486945E+02  0.23824449222E+02  0.51100000000E-03 0.  1.
        -11    1    3    3    0    0  0.77530004909E+01 -0.25843743670E+01 -0.48537824770E+01  0.95051150480E+01  0.51100000000E-03 0. -1.
        -12    1    3    3    0    0  0.83828360651E+01 -0.85480184612E+01 -0.45635613128E+01  0.12812753489E+02  0.00000000000E+00 0.  1.
</event>
<event>
 7    1  0.1486782E-008  0.4614232E+02  0.7816164E-02  0.1320468E+00
        -11   -1    0    0    0    0  0.00000000000E+00  0.00000000000E+00  0.45593999997E+02  0.45594000000E+02  0.51100000000E-03 0. -1.
         11   -1    0    0    0    0 -0.00000000000E+00 -0.00000000000E+00 -0.45593999997E+02  0.45594000000E+02  0.51100000000E-03 0.  1.
    9900012    2    1    2    0    0 -0.43846634963E+02 -0.93050355008E+01 -0.44724012789E+01  0.46142318115E+02  0.10000003229E+02 0.  0.
        -12    1    1    2    0    0  0.43846634963E+02  0.93050355008E+01  0.44724012789E+01  0.45045681885E+02  0.00000000000E+00 0.  1.
         11    1    3    3    0    0 -0.37973297795E+02 -0.65183084204E+01 -0.25683993270E+01  0.38614199013E+02  0.51100000000E-03 0. -1.
        -11    1    3    3    0    0 -0.28738715423E+00 -0.11787318570E+01 -0.11409501447E+01  0.16654631971E+01  0.51100000000E-03 0.  1.
        -12    1    3    3    0    0 -0.55859500141E+01 -0.16079952235E+01 -0.76305180728E+00  0.58626559049E+01  0.00000000000E+00 0.  1.
</event>
<event>
 7    1  0.1486782E-008  0.4614232E+02  0.7816164E-02  0.1320468E+00
        -11   -1    0    0    0    0  0.00000000000E+00  0.00000000000E+00  0.45593999997E+02  0.45594000000E+02  0.51100000000E-03 0. -1.
         11   -1    0    0    0    0 -0.00000000000E+00 -0.00000000000E+00 -0.45593999997E+02  0.45594000000E+02  0.51100000000E-03 0.  1.
    9900012    2    1    2    0    0  0.36524654497E+02 -0.26122363273E+02  0.35615929302E+01  0.46142321037E+02  0.10000029871E+02 0.  0.
        -12    1    1    2    0    0 -0.36524654497E+02  0.26122363273E+02 -0.35615929302E+01  0.45045678963E+02  0.00000000000E+00 0.  1.
         11    1    3    3    0    0  0.27409979922E+02 -0.21310204834E+02  0.51709062032E+01  0.35102280562E+02  0.51100000000E-03 0. -1.
        -11    1    3    3    0    0  0.48067179230E+00 -0.10126341811E+01  0.70894551860E+00  0.13263021398E+01  0.51100000000E-03 0.  1.
         12    1    3    3    0    0  0.86340027821E+01 -0.37995242575E+01 -0.23182587916E+01  0.97137383355E+01  0.00000000000E+00 0. -1.
</event>
<event>
 7    1  0.1486782E-008  0.4614232E+02  0.7816164E-02  0.1320468E+00
        -11   -1    0    0    0    0  0.00000000000E+00  0.00000000000E+00  0.45593999997E+02  0.45594000000E+02  0.51100000000E-03 0.  1.
         11   -1    0    0    0    0 -0.00000000000E+00 -0.00000000000E+00 -0.45593999997E+02  0.45594000000E+02  0.51100000000E-03 0. -1.
    9900012    2    1    2    0    0 -0.22440201401E+02  0.19503541990E+02 -0.33840253062E+02  0.46142317450E+02  0.99999971656E+01 0.  0.
        -12    1    1    2    0    0  0.22440201401E+02 -0.19503541990E+02  0.33840253062E+02  0.45045682550E+02  0.00000000000E+00 0.  1.
         11    1    3    3    0    0 -0.44970744182E+01  0.46374059888E+01 -0.12566491060E+02  0.14129611121E+02  0.51100000000E-03 0. -1.
        -11    1    3    3    0    0 -0.68374603398E+00 -0.47223132682E+00 -0.77725571595E+00  0.11378215036E+01  0.51100000000E-03 0.  1.
         12    1    3    3    0    0 -0.17259380948E+02  0.15338367328E+02 -0.20496506286E+02  0.30874884825E+02  0.00000000000E+00 0. -1.
</event>
<event>
 7    1  0.1486782E-008  0.4614232E+02  0.7816164E-02  0.1320468E+00
        -11   -1    0    0    0    0  0.00000000000E+00  0.00000000000E+00  0.45593999997E+02  0.45594000000E+02  0.51100000000E-03 0.  1.
         11   -1    0    0    0    0 -0.00000000000E+00 -0.00000000000E+00 -0.45593999997E+02  0.45594000000E+02  0.51100000000E-03 0. -1.
    9900012    2    1    2    0    0  0.22310175914E+02  0.25243790812E+02 -0.29901849282E+02  0.46142317473E+02  0.99999973694E+01 0.  0.
        -12    1    1    2    0    0 -0.22310175914E+02 -0.25243790812E+02  0.29901849282E+02  0.45045682527E+02  0.00000000000E+00 0.  1.
         11    1    3    3    0    0  0.10163689698E+02  0.50585018284E+01 -0.10154173171E+02  0.15231423508E+02  0.51100000000E-03 0. -1.
        -11    1    3    3    0    0  0.65188729182E+01  0.11958210763E+02 -0.94351419713E+01  0.16568536841E+02  0.51100000000E-03 0.  1.
         12    1    3    3    0    0  0.56276132975E+01  0.82270782200E+01 -0.10312534140E+02  0.14342357123E+02  0.00000000000E+00 0. -1.
</event>
<event>
 7    1  0.1486782E-008  0.4614232E+02  0.7816164E-02  0.1320468E+00
        -11   -1    0    0    0    0  0.00000000000E+00  0.00000000000E+00  0.45593999997E+02  0.45594000000E+02  0.51100000000E-03 0.  1.
         11   -1    0    0    0    0 -0.00000000000E+00 -0.00000000000E+00 -0.45593999997E+02  0.45594000000E+02  0.51100000000E-03 0. -1.
    9900012    2    1    2    0    0  0.74398885961E+01 -0.28422416427E+02 -0.34145683988E+02  0.46142318377E+02  0.10000005612E+02 0.  0.
        -12    1    1    2    0    0 -0.74398885961E+01  0.28422416427E+02  0.34145683988E+02  0.45045681623E+02  0.00000000000E+00 0.  1.
         11    1    3    3    0    0  0.26706434900E+00 -0.14372944873E+01  0.10041223579E+00  0.14653401270E+01  0.51100000000E-03 0. -1.
        -11    1    3    3    0    0  0.28072794908E+01 -0.30988619709E+01 -0.72322445663E+01  0.83539885912E+01  0.51100000000E-03 0.  1.
         12    1    3    3    0    0  0.43655447563E+01 -0.23886259969E+02 -0.27013851658E+02  0.36322989658E+02  0.00000000000E+00 0. -1.
</event>
<event>
 7    1  0.1486782E-008  0.4614232E+02  0.7816164E-02  0.1320468E+00
        -11   -1    0    0    0    0  0.00000000000E+00  0.00000000000E+00  0.45593999997E+02  0.45594000000E+02  0.51100000000E-03 0.  1.
         11   -1    0    0    0    0 -0.00000000000E+00 -0.00000000000E+00 -0.45593999997E+02  0.45594000000E+02  0.51100000000E-03 0. -1.
    9900012    2    1    2    0    0  0.15657579563E+02  0.85125754530E+01 -0.41370155565E+02  0.46142317520E+02  0.99999978006E+01 0.  0.
        -12    1    1    2    0    0 -0.15657579563E+02 -0.85125754530E+01  0.41370155565E+02  0.45045682480E+02  0.00000000000E+00 0.  1.
         11    1    3    3    0    0  0.24604775219E+01  0.60939192022E+01 -0.15075785385E+02  0.16445944975E+02  0.51100000000E-03 0. -1.
        -11    1    3    3    0    0 -0.93208043554E-01 -0.61068108431E-02  0.37864371804E-01  0.10079188606E+00  0.51100000000E-03 0.  1.
         12    1    3    3    0    0  0.13290310084E+02  0.24247630616E+01 -0.26332234552E+02  0.29595580659E+02  0.00000000000E+00 0. -1.
</event>
<event>
 7    1  0.1486782E-008  0.4614232E+02  0.7816164E-02  0.1320468E+00
        -11   -1    0    0    0    0  0.00000000000E+00  0.00000000000E+00  0.45593999997E+02  0.45594000000E+02  0.51100000000E-03 0. -1.
         11   -1    0    0    0    0 -0.00000000000E+00 -0.00000000000E+00 -0.45593999997E+02  0.45594000000E+02  0.51100000000E-03 0.  1.
    9900012    2    1    2    0    0  0.31963584370E+01 -0.42521315916E+02  0.14520141084E+02  0.46142317503E+02  0.99999976468E+01 0.  0.
        -12    1    1    2    0    0 -0.31963584370E+01  0.42521315916E+02 -0.14520141084E+02  0.45045682497E+02  0.00000000000E+00 0.  1.
         11    1    3    3    0    0  0.57484804525E+01 -0.21538665487E+02  0.59114016359E+01  0.23063039870E+02  0.51100000000E-03 0. -1.
        -11    1    3    3    0    0 -0.28552501904E+01 -0.15748909465E+02  0.52134279473E+01  0.16833313227E+02  0.51100000000E-03 0.  1.
         12    1    3    3    0    0  0.30312817485E+00 -0.52337409646E+01  0.33953115009E+01  0.62459644062E+01  0.00000000000E+00 0. -1.
</event>
<event>
 7    1  0.1486782E-008  0.4614232E+02  0.7816164E-02  0.1320468E+00
        -11   -1    0    0    0    0  0.00000000000E+00  0.00000000000E+00  0.45593999997E+02  0.45594000000E+02  0.51100000000E-03 0.  1.
         11   -1    0    0    0    0 -0.00000000000E+00 -0.00000000000E+00 -0.45593999997E+02  0.45594000000E+02  0.51100000000E-03 0. -1.
    9900012    2    1    2    0    0  0.14007798776E+02 -0.42570515298E+02  0.45438179608E+01  0.46142317844E+02  0.10000000752E+02 0.  0.
        -12    1    1    2    0    0 -0.14007798776E+02  0.42570515298E+02 -0.45438179608E+01  0.45045682156E+02  0.00000000000E+00 0.  1.
         11    1    3    3    0    0  0.67585833465E+01 -0.17768132559E+02  0.46280791595E+01  0.19565380151E+02  0.51100000000E-03 0. -1.
        -11    1    3    3    0    0  0.72880169004E+01 -0.16965586115E+02 -0.18069673440E+01  0.18552935989E+02  0.51100000000E-03 0.  1.
        -12    1    3    3    0    0 -0.38801470520E-01 -0.78367966242E+01  0.17227061453E+01  0.80240017041E+01  0.00000000000E+00 0.  1.
</event>
<event>
 7    1  0.1486782E-008  0.4614232E+02  0.7816164E-02  0.1320468E+00
        -11   -1    0    0    0    0  0.00000000000E+00  0.00000000000E+00  0.45593999997E+02  0.45594000000E+02  0.51100000000E-03 0.  1.
         11   -1    0    0    0    0 -0.00000000000E+00 -0.00000000000E+00 -0.45593999997E+02  0.45594000000E+02  0.51100000000E-03 0. -1.
    9900012    2    1    2    0    0  0.23397396440E+02 -0.16315395743E+02 -0.34863781503E+02  0.46142316976E+02  0.99999928395E+01 0.  0.
        -12    1    1    2    0    0 -0.23397396440E+02  0.16315395743E+02  0.34863781503E+02  0.45045683024E+02  0.00000000000E+00 0.  1.
         11    1    3    3    0    0  0.19773931110E+02 -0.88176897418E+01 -0.22821696365E+02  0.31457746727E+02  0.51100000000E-03 0. -1.
        -11    1    3    3    0    0  0.34203148198E+01 -0.69452315103E+01 -0.11609624433E+02  0.13954145403E+02  0.51100000000E-03 0.  1.
         12    1    3    3    0    0  0.20315050992E+00 -0.55247449105E+00 -0.43246070485E+00  0.73042484499E+00  0.00000000000E+00 0. -1.
</event>
<event>
 7    1  0.1486782E-008  0.4614232E+02  0.7816164E-02  0.1320468E+00
        -11   -1    0    0    0    0  0.00000000000E+00  0.00000000000E+00  0.45593999997E+02  0.45594000000E+02  0.51100000000E-03 0.  1.
         11   -1    0    0    0    0 -0.00000000000E+00 -0.00000000000E+00 -0.45593999997E+02  0.45594000000E+02  0.51100000000E-03 0. -1.
    9900012    2    1    2    0    0 -0.19628264778E+02  0.40539743262E+02 -0.61142591103E+00  0.46142318702E+02  0.10000008578E+02 0.  0.
        -12    1    1    2    0    0  0.19628264778E+02 -0.40539743262E+02  0.61142591103E+00  0.45045681298E+02  0.00000000000E+00 0.  1.
         11    1    3    3    0    0 -0.10356430701E+02  0.16569249359E+02 -0.87674869662E+00  0.19559252790E+02  0.51100000000E-03 0. -1.
        -11    1    3    3    0    0  0.90315204049E-01 -0.40456334370E+00  0.22544934475E+00  0.47186439082E+00  0.51100000000E-03 0.  1.
         12    1    3    3    0    0 -0.93621492814E+01  0.24375057247E+02  0.39873440837E-01  0.26111201521E+02  0.00000000000E+00 0. -1.
</event>
<event>
 7    1  0.1486782E-008  0.4614232E+02  0.7816164E-02  0.1320468E+00
        -11   -1    0    0    0    0  0.00000000000E+00  0.00000000000E+00  0.45593999997E+02  0.45594000000E+02  0.51100000000E-03 0. -1.
         11   -1    0    0    0    0 -0.00000000000E+00 -0.00000000000E+00 -0.45593999997E+02  0.45594000000E+02  0.51100000000E-03 0.  1.
    9900012    2    1    2    0    0 -0.28736146930E+02 -0.34024838948E+02  0.67570495882E+01  0.46142317355E+02  0.99999962998E+01 0.  0.
        -12    1    1    2    0    0  0.28736146930E+02  0.34024838948E+02 -0.67570495882E+01  0.45045682645E+02  0.00000000000E+00 0.  1.
         11    1    3    3    0    0 -0.27094614821E+01 -0.15095473891E+00  0.55914015367E-01  0.27142393952E+01  0.51100000000E-03 0. -1.
        -11    1    3    3    0    0 -0.23901263405E+02 -0.31253249489E+02  0.50381642642E+01  0.39666347139E+02  0.51100000000E-03 0.  1.
        -12    1    3    3    0    0 -0.21254220431E+01 -0.26206347202E+01  0.16629713086E+01  0.37617308212E+01  0.00000000000E+00 0.  1.
</event>
<event>
 7    1  0.1486782E-008  0.4614232E+02  0.7816164E-02  0.1320468E+00
        -11   -1    0    0    0    0  0.00000000000E+00  0.00000000000E+00  0.45593999997E+02  0.45594000000E+02  0.51100000000E-03 0.  1.
         11   -1    0    0    0    0 -0.00000000000E+00 -0.00000000000E+00 -0.45593999997E+02  0.45594000000E+02  0.51100000000E-03 0. -1.
    9900012    2    1    2    0    0 -0.51332132360E+00 -0.28220508694E+02 -0.35106305538E+02  0.46142319872E+02  0.10000019246E+02 0.  0.
        -12    1    1    2    0    0  0.51332132360E+00  0.28220508694E+02  0.35106305538E+02  0.45045680128E+02  0.00000000000E+00 0.  1.
         11    1    3    3    0    0 -0.33222440351E+01 -0.65420009960E+01 -0.13640127948E+02  0.15488323769E+02  0.51100000000E-03 0. -1.
        -11    1    3    3    0    0  0.16047331946E+01 -0.15281518256E+02 -0.14690911650E+02  0.21258477232E+02  0.51100000000E-03 0.  1.
         12    1    3    3    0    0  0.12041895169E+01 -0.63969894413E+01 -0.67752659398E+01  0.93955188712E+01  0.00000000000E+00 0. -1.
</event>
<event>
 7    1  0.1486782E-008  0.4614232E+02  0.7816164E-02  0.1320468E+00
        -11   -1    0    0    0    0  0.00000000000E+00  0.00000000000E+00  0.45593999997E+02  0.45594000000E+02  0.51100000000E-03 0.  1.
         11   -1    0    0    0    0 -0.00000000000E+00 -0.00000000000E+00 -0.45593999997E+02  0.45594000000E+02  0.51100000000E-03 0. -1.
    9900012    2    1    2    0    0 -0.21255950216E+02 -0.32436985503E+02 -0.22915935134E+02  0.46142317286E+02  0.99999956651E+01 0.  0.
        -12    1    1    2    0    0  0.21255950216E+02  0.32436985503E+02  0.22915935134E+02  0.45045682714E+02  0.00000000000E+00 0.  1.
         11    1    3    3    0    0 -0.25748063609E+01 -0.41301106462E+01  0.18000408017E+00  0.48703021955E+01  0.51100000000E-03 0. -1.
        -11    1    3    3    0    0 -0.24174393490E+01 -0.23007862016E+01 -0.10507709895E+01  0.34988212422E+01  0.51100000000E-03 0.  1.
         12    1    3    3    0    0 -0.16263704506E+02 -0.26006088656E+02 -0.22045168225E+02  0.37773193848E+02  0.00000000000E+00 0. -1.
</event>
<event>
 7    1  0.1486782E-008  0.4614232E+02  0.7816164E-02  0.1320468E+00
        -11   -1    0    0    0    0  0.00000000000E+00  0.00000000000E+00  0.45593999997E+02  0.45594000000E+02  0.51100000000E-03 0. -1.
         11   -1    0    0    0    0 -0.00000000000E+00 -0.00000000000E+00 -0.45593999997E+02  0.45594000000E+02  0.51100000000E-03 0.  1.
    9900012    2    1    2    0    0  0.40665621703E+01 -0.13099867053E+02  0.42906527965E+02  0.46142316670E+02  0.99999900484E+01 0.  0.
        -12    1    1    2    0    0 -0.40665621703E+01  0.13099867053E+02 -0.42906527965E+02  0.45045683330E+02  0.00000000000E+00 0.  1.
         11    1    3    3    0    0 -0.90810976459E+00 -0.21802493007E+00  0.75465442607E+01  0.76041126211E+01  0.51100000000E-03 0. -1.
        -11    1    3    3    0    0 -0.10650577180E+01 -0.57430818780E+01  0.11197039205E+02  0.12628975597E+02  0.51100000000E-03 0.  1.
         12    1    3    3    0    0  0.60397296529E+01 -0.71387602448E+01  0.24162944499E+02  0.25909228452E+02  0.00000000000E+00 0. -1.
</event>
<event>
 7    1  0.1486782E-008  0.4614232E+02  0.7816164E-02  0.1320468E+00
        -11   -1    0    0    0    0  0.00000000000E+00  0.00000000000E+00  0.45593999997E+02  0.45594000000E+02  0.51100000000E-03 0. -1.
         11   -1    0    0    0    0 -0.00000000000E+00 -0.00000000000E+00 -0.45593999997E+02  0.45594000000E+02  0.51100000000E-03 0.  1.
    9900012    2    1    2    0    0 -0.38992328979E+02  0.16193447349E+02  0.15699808799E+02  0.46142318158E+02  0.10000003622E+02 0.  0.
        -12    1    1    2    0    0  0.38992328979E+02 -0.16193447349E+02 -0.15699808799E+02  0.45045681842E+02  0.00000000000E+00 0.  1.
         11    1    3    3    0    0 -0.14516493506E+02  0.64016609158E+01  0.80582861101E+01  0.17794544711E+02  0.51100000000E-03 0. -1.
        -11    1    3    3    0    0 -0.65799387486E+00 -0.78767290458E+00  0.10438001744E+01  0.14638659806E+01  0.51100000000E-03 0.  1.
         12    1    3    3    0    0 -0.23817841599E+02  0.10579459337E+02  0.65977225144E+01  0.26883907466E+02  0.00000000000E+00 0. -1.
</event>
<event>
 7    1  0.1486782E-008  0.4614232E+02  0.7816164E-02  0.1320468E+00
        -11   -1    0    0    0    0  0.00000000000E+00  0.00000000000E+00  0.45593999997E+02  0.45594000000E+02  0.51100000000E-03 0. -1.
         11   -1    0    0    0    0 -0.00000000000E+00 -0.00000000000E+00 -0.45593999997E+02  0.45594000000E+02  0.51100000000E-03 0.  1.
    9900012    2    1    2    0    0 -0.25175325846E+02 -0.16566260754E+02  0.33479476927E+02  0.46142318718E+02  0.10000008727E+02 0.  0.
        -12    1    1    2    0    0  0.25175325846E+02  0.16566260754E+02 -0.33479476927E+02  0.45045681282E+02  0.00000000000E+00 0.  1.
         11    1    3    3    0    0 -0.94749490923E+01 -0.63819176363E+01  0.85633612651E+01  0.14277068657E+02  0.51100000000E-03 0. -1.
        -11    1    3    3    0    0 -0.47228664578E+01 -0.44473031515E+01  0.13687331518E+02  0.15146848426E+02  0.51100000000E-03 0.  1.
        -12    1    3    3    0    0 -0.10977510296E+02 -0.57370399659E+01  0.11228784144E+02  0.16718401635E+02  0.00000000000E+00 0.  1.
</event>
<event>
 7    1  0.1486782E-008  0.4614232E+02  0.7816164E-02  0.1320468E+00
        -11   -1    0    0    0    0  0.00000000000E+00  0.00000000000E+00  0.45593999997E+02  0.45594000000E+02  0.51100000000E-03 0.  1.
         11   -1    0    0    0    0 -0.00000000000E+00 -0.00000000000E+00 -0.45593999997E+02  0.45594000000E+02  0.51100000000E-03 0. -1.
    9900012    2    1    2    0    0  0.11149132715E+01  0.42345388079E+02 -0.15321182647E+02  0.46142316956E+02  0.99999926617E+01 0.  0.
        -12    1    1    2    0    0 -0.11149132715E+01 -0.42345388079E+02  0.15321182647E+02  0.45045683044E+02  0.00000000000E+00 0.  1.
         11    1    3    3    0    0 -0.13896254538E+01  0.28879524737E+02 -0.79426268464E+01  0.29984051251E+02  0.51100000000E-03 0. -1.
        -11    1    3    3    0    0  0.19340275321E+01  0.40390424077E+01 -0.56679647392E+00  0.45139322736E+01  0.51100000000E-03 0.  1.
         12    1    3    3    0    0  0.57051119323E+00  0.94268209345E+01 -0.68117593266E+01  0.11644333432E+02  0.00000000000E+00 0. -1.
</event>
<event>
 7    1  0.1486782E-008  0.4614232E+02  0.7816164E-02  0.1320468E+00
        -11   -1    0    0    0    0  0.00000000000E+00  0.00000000000E+00  0.45593999997E+02  0.45594000000E+02  0.51100000000E-03 0. -1.
         11   -1    0    0    0    0 -0.00000000000E+00 -0.00000000000E+00 -0.45593999997E+02  0.45594000000E+02  0.51100000000E-03 0.  1.
    9900012    2    1    2    0    0  0.23106782680E+02  0.38456228277E+02 -0.40383868994E+01  0.46142317989E+02  0.10000002078E+02 0.  0.
        -12    1    1    2    0    0 -0.23106782680E+02 -0.38456228277E+02  0.40383868994E+01  0.45045682011E+02  0.00000000000E+00 0.  1.
         11    1    3    3    0    0  0.56746971826E+01  0.16050973468E+02 -0.16836815343E+00  0.17025401184E+02  0.51100000000E-03 0. -1.
        -11    1    3    3    0    0  0.17294334464E+02  0.21917718960E+02 -0.45306415108E+01  0.28284397142E+02  0.51100000000E-03 0.  1.
         12    1    3    3    0    0  0.13775103393E+00  0.48753584836E+00  0.66062276476E+00  0.83251966229E+00  0.00000000000E+00 0. -1.
</event>
<event>
 7    1  0.1486782E-008  0.4614232E+02  0.7816164E-02  0.1320468E+00
        -11   -1    0    0    0    0  0.00000000000E+00  0.00000000000E+00  0.45593999997E+02  0.45594000000E+02  0.51100000000E-03 0. -1.
         11   -1    0    0    0    0 -0.00000000000E+00 -0.00000000000E+00 -0.45593999997E+02  0.45594000000E+02  0.51100000000E-03 0.  1.
    9900012    2    1    2    0    0  0.11134192356E+02  0.41861618417E+02  0.12359131647E+02  0.46142317954E+02  0.10000001761E+02 0.  0.
        -12    1    1    2    0    0 -0.11134192356E+02 -0.41861618417E+02 -0.12359131647E+02  0.45045682046E+02  0.00000000000E+00 0.  1.
         11    1    3    3    0    0  0.39530451381E+01  0.12515138914E+02  0.52323209259E+01  0.14129134808E+02  0.51100000000E-03 0. -1.
        -11    1    3    3    0    0  0.49968735443E+00 -0.17370995045E+00  0.10016238764E+01  0.11327458894E+01  0.51100000000E-03 0.  1.
        -12    1    3    3    0    0  0.66814598631E+01  0.29520189454E+02  0.61251868450E+01  0.30880437257E+02  0.00000000000E+00 0.  1.
</event>
<event>
 7    1  0.1486782E-008  0.4614232E+02  0.7816164E-02  0.1320468E+00
        -11   -1    0    0    0    0  0.00000000000E+00  0.00000000000E+00  0.45593999997E+02  0.45594000000E+02  0.51100000000E-03 0.  1.
         11   -1    0    0    0    0 -0.00000000000E+00 -0.00000000000E+00 -0.45593999997E+02  0.45594000000E+02  0.51100000000E-03 0. -1.
    9900012    2    1    2    0    0  0.30099605821E+02 -0.45418153425E+01 -0.33203902893E+02  0.46142317360E+02  0.99999963440E+01 0.  0.
        -12    1    1    2    0    0 -0.30099605821E+02  0.45418153425E+01  0.33203902893E+02  0.45045682640E+02  0.00000000000E+00 0.  1.
         11    1    3    3    0    0  0.80196274473E+01 -0.19743172615E+01 -0.10662823888E+02  0.13487333561E+02  0.51100000000E-03 0. -1.
        -11    1    3    3    0    0  0.16728135998E+02 -0.17023316996E+01 -0.11549071892E+02  0.20398762928E+02  0.51100000000E-03 0.  1.
        -12    1    3    3    0    0  0.53518423757E+01 -0.86516638141E+00 -0.10992007112E+02  0.12256220871E+02  0.00000000000E+00 0.  1.
</event>
<event>
 7    1  0.1486782E-008  0.4614232E+02  0.7816164E-02  0.1320468E+00
        -11   -1    0    0    0    0  0.00000000000E+00  0.00000000000E+00  0.45593999997E+02  0.45594000000E+02  0.51100000000E-03 0. -1.
         11   -1    0    0    0    0 -0.00000000000E+00 -0.00000000000E+00 -0.45593999997E+02  0.45594000000E+02  0.51100000000E-03 0.  1.
    9900012    2    1    2    0    0  0.42093464870E+02 -0.15844351058E+01 -0.15960678625E+02  0.46142317837E+02  0.10000000694E+02 0.  0.
        -12    1    1    2    0    0 -0.42093464870E+02  0.15844351058E+01  0.15960678625E+02  0.45045682163E+02  0.00000000000E+00 0.  1.
         11    1    3    3    0    0  0.24406219668E+01 -0.16527261539E+01 -0.67115033577E+00  0.30230088255E+01  0.51100000000E-03 0. -1.
        -11    1    3    3    0    0  0.32709265852E+02  0.26620679456E+01 -0.13556436154E+02  0.35507177300E+02  0.51100000000E-03 0.  1.
        -12    1    3    3    0    0  0.69435770506E+01 -0.25937768975E+01 -0.17330921355E+01  0.76121317121E+01  0.00000000000E+00 0.  1.
</event>
<event>
 7    1  0.1486782E-008  0.4614232E+02  0.7816164E-02  0.1320468E+00
        -11   -1    0    0    0    0  0.00000000000E+00  0.00000000000E+00  0.45593999997E+02  0.45594000000E+02  0.51100000000E-03 0. -1.
         11   -1    0    0    0    0 -0.00000000000E+00 -0.00000000000E+00 -0.45593999997E+02  0.45594000000E+02  0.51100000000E-03 0.  1.
    9900012    2    1    2    0    0 -0.41108704532E+02 -0.16362497226E+02  0.84532029444E+01  0.46142317146E+02  0.99999943929E+01 0.  0.
        -12    1    1    2    0    0  0.41108704532E+02  0.16362497226E+02 -0.84532029444E+01  0.45045682854E+02  0.00000000000E+00 0.  1.
         11    1    3    3    0    0 -0.66923956435E+01 -0.53996602959E+01  0.45716388073E+01  0.97388075454E+01  0.51100000000E-03 0. -1.
        -11    1    3    3    0    0 -0.16620120249E+02 -0.42067236336E+01  0.23842623375E+01  0.17309235338E+02  0.51100000000E-03 0.  1.
         12    1    3    3    0    0 -0.17796188639E+02 -0.67561132966E+01  0.14973017996E+01  0.19094274263E+02  0.00000000000E+00 0. -1.
</event>
<event>
 7    1  0.1880700E-008  0.4614232E+02  0.7816164E-02  0.1320468E+00
        -11   -1    0    0    0    0  0.00000000000E+00  0.00000000000E+00  0.45593999997E+02  0.45594000000E+02  0.51100000000E-03 0. -1.
         11   -1    0    0    0    0 -0.00000000000E+00 -0.00000000000E+00 -0.45593999997E+02  0.45594000000E+02  0.51100000000E-03 0.  1.
    9900012    2    1    2    0    0  0.10858704928E+02 -0.20088031843E+02  0.38828765071E+02  0.46142317710E+02  0.99999995320E+01 0.  0.
        -12    1    1    2    0    0 -0.10858704928E+02  0.20088031843E+02 -0.38828765071E+02  0.45045682290E+02  0.00000000000E+00 0.  1.
         11    1    3    3    0    0  0.94798638678E+01 -0.17533446056E+02  0.32076918538E+02  0.37765304880E+02  0.51100000000E-03 0. -1.
        -11    1    3    3    0    0  0.14632761579E+01  0.72571935039E+00  0.27875397238E+01  0.32308239913E+01  0.51100000000E-03 0.  1.
         12    1    3    3    0    0 -0.84435097259E-01 -0.32803051374E+01  0.39643068091E+01  0.51461888380E+01  0.00000000000E+00 0. -1.
</event>
<event>
 7    1  0.1486782E-008  0.4614232E+02  0.7816164E-02  0.1320468E+00
        -11   -1    0    0    0    0  0.00000000000E+00  0.00000000000E+00  0.45593999997E+02  0.45594000000E+02  0.51100000000E-03 0.  1.
         11   -1    0    0    0    0 -0.00000000000E+00 -0.00000000000E+00 -0.45593999997E+02  0.45594000000E+02  0.51100000000E-03 0. -1.
    9900012    2    1    2    0    0 -0.18138983746E+01 -0.44937898338E+02 -0.25315276827E+01  0.46142316891E+02  0.99999920650E+01 0.  0.
        -12    1    1    2    0    0  0.18138983746E+01  0.44937898338E+02  0.25315276827E+01  0.45045683109E+02  0.00000000000E+00 0.  1.
         11    1    3    3    0    0 -0.44194505080E+01 -0.16796094204E+02 -0.65022920866E+00  0.17379963222E+02  0.51100000000E-03 0. -1.
        -11    1    3    3    0    0  0.12023049110E+01 -0.13442811109E+01  0.34394585780E+00  0.18360086651E+01  0.51100000000E-03 0.  1.
         12    1    3    3    0    0  0.14032472224E+01 -0.26797523023E+02 -0.22252443319E+01  0.26926345004E+02  0.00000000000E+00 0. -1.
</event>
<event>
 7    1  0.1486782E-008  0.4614232E+02  0.7816164E-02  0.1320468E+00
        -11   -1    0    0    0    0  0.00000000000E+00  0.00000000000E+00  0.45593999997E+02  0.45594000000E+02  0.51100000000E-03 0.  1.
         11   -1    0    0    0    0 -0.00000000000E+00 -0.00000000000E+00 -0.45593999997E+02  0.45594000000E+02  0.51100000000E-03 0. -1.
    9900012    2    1    2    0    0 -0.21631977864E+02 -0.17637935226E+02 -0.35356389931E+02  0.46142317251E+02  0.99999953477E+01 0.  0.
        -12    1    1    2    0    0  0.21631977864E+02  0.17637935226E+02  0.35356389931E+02  0.45045682749E+02  0.00000000000E+00 0.  1.
         11    1    3    3    0    0 -0.15766690913E+02 -0.12368318179E+02 -0.28809484914E+02  0.35093450360E+02  0.51100000000E-03 0. -1.
        -11    1    3    3    0    0 -0.20325485638E+01 -0.45718203049E+01 -0.37740044234E+01  0.62670490833E+01  0.51100000000E-03 0.  1.
        -12    1    3    3    0    0 -0.38327383873E+01 -0.69779674257E+00 -0.27729005943E+01  0.47818178076E+01  0.00000000000E+00 0.  1.
</event>
<event>
 7    1  0.1486782E-008  0.4614232E+02  0.7816164E-02  0.1320468E+00
        -11   -1    0    0    0    0  0.00000000000E+00  0.00000000000E+00  0.45593999997E+02  0.45594000000E+02  0.51100000000E-03 0. -1.
         11   -1    0    0    0    0 -0.00000000000E+00 -0.00000000000E+00 -0.45593999997E+02  0.45594000000E+02  0.51100000000E-03 0.  1.
    9900012    2    1    2    0    0  0.17057239738E+02 -0.34671590703E+02 -0.23152645708E+02  0.46142316160E+02  0.99999854022E+01 0.  0.
        -12    1    1    2    0    0 -0.17057239738E+02  0.34671590703E+02  0.23152645708E+02  0.45045683840E+02  0.00000000000E+00 0.  1.
         11    1    3    3    0    0  0.93489275365E+01 -0.11385991625E+02 -0.84808933059E+01  0.16999082414E+02  0.51100000000E-03 0. -1.
        -11    1    3    3    0    0  0.50701618178E+01 -0.20068582507E+02 -0.10343366147E+02  0.23139571478E+02  0.51100000000E-03 0.  1.
        -12    1    3    3    0    0  0.26381503833E+01 -0.32170165704E+01 -0.43283862549E+01  0.60036622682E+01  0.00000000000E+00 0.  1.
</event>
<event>
 7    1  0.1486782E-008  0.4614232E+02  0.7816164E-02  0.1320468E+00
        -11   -1    0    0    0    0  0.00000000000E+00  0.00000000000E+00  0.45593999997E+02  0.45594000000E+02  0.51100000000E-03 0. -1.
         11   -1    0    0    0    0 -0.00000000000E+00 -0.00000000000E+00 -0.45593999997E+02  0.45594000000E+02  0.51100000000E-03 0.  1.
    9900012    2    1    2    0    0 -0.24101746567E+02  0.24740923150E+01  0.37974970169E+02  0.46142315637E+02  0.99999806294E+01 0.  0.
        -12    1    1    2    0    0  0.24101746567E+02 -0.24740923150E+01 -0.37974970169E+02  0.45045684363E+02  0.00000000000E+00 0.  1.
         11    1    3    3    0    0 -0.13996433237E+02 -0.10518401016E+01  0.23606043356E+02  0.27463644954E+02  0.51100000000E-03 0.  1.
        -11    1    3    3    0    0 -0.93385709444E+01  0.31712523594E+01  0.14756821934E+02  0.17749071600E+02  0.51100000000E-03 0. -1.
        -12    1    3    3    0    0 -0.76674238600E+00  0.35468005727E+00 -0.38789512116E+00  0.92959908269E+00  0.00000000000E+00 0.  1.
</event>
<event>
 7    1  0.1486782E-008  0.4614232E+02  0.7816164E-02  0.1320468E+00
        -11   -1    0    0    0    0  0.00000000000E+00  0.00000000000E+00  0.45593999997E+02  0.45594000000E+02  0.51100000000E-03 0.  1.
         11   -1    0    0    0    0 -0.00000000000E+00 -0.00000000000E+00 -0.45593999997E+02  0.45594000000E+02  0.51100000000E-03 0. -1.
    9900012    2    1    2    0    0  0.18237369820E+01  0.72487849489E+01 -0.44421195401E+02  0.46142317624E+02  0.99999987508E+01 0.  0.
        -12    1    1    2    0    0 -0.18237369820E+01 -0.72487849489E+01  0.44421195401E+02  0.45045682376E+02  0.00000000000E+00 0.  1.
         11    1    3    3    0    0  0.15473558691E+01  0.25824917801E+01 -0.13673547594E+02  0.14001052748E+02  0.51100000000E-03 0. -1.
        -11    1    3    3    0    0 -0.27895597066E+01  0.29327432834E+01 -0.66304337912E+01  0.77682223863E+01  0.51100000000E-03 0.  1.
        -12    1    3    3    0    0  0.30659408195E+01  0.17335498855E+01 -0.24117214016E+02  0.24373042490E+02  0.00000000000E+00 0.  1.
</event>
<event>
 7    1  0.1486782E-008  0.4614232E+02  0.7816164E-02  0.1320468E+00
        -11   -1    0    0    0    0  0.00000000000E+00  0.00000000000E+00  0.45593999997E+02  0.45594000000E+02  0.51100000000E-03 0.  1.
         11   -1    0    0    0    0 -0.00000000000E+00 -0.00000000000E+00 -0.45593999997E+02  0.45594000000E+02  0.51100000000E-03 0. -1.
    9900012    2    1    2    0    0  0.40488968007E+02  0.43442636987E+01  0.19258357001E+02  0.46142317946E+02  0.10000001687E+02 0.  0.
        -12    1    1    2    0    0 -0.40488968007E+02 -0.43442636987E+01 -0.19258357001E+02  0.45045682054E+02  0.00000000000E+00 0.  1.
         11    1    3    3    0    0  0.38500686666E+01  0.66078671549E-01  0.83611907698E+00  0.39403667977E+01  0.51100000000E-03 0. -1.
        -11    1    3    3    0    0  0.33470211542E+02  0.19120631783E+01  0.18410459716E+02  0.38247301519E+02  0.51100000000E-03 0.  1.
        -12    1    3    3    0    0  0.31686877980E+01  0.23661218488E+01  0.11778207871E-01  0.39546496294E+01  0.00000000000E+00 0.  1.
</event>
<event>
 7    1  0.1486782E-008  0.4614232E+02  0.7816164E-02  0.1320468E+00
        -11   -1    0    0    0    0  0.00000000000E+00  0.00000000000E+00  0.45593999997E+02  0.45594000000E+02  0.51100000000E-03 0.  1.
         11   -1    0    0    0    0 -0.00000000000E+00 -0.00000000000E+00 -0.45593999997E+02  0.45594000000E+02  0.51100000000E-03 0. -1.
    9900012    2    1    2    0    0  0.24278737772E+01 -0.11726886137E+02 -0.43424636498E+02  0.46142317804E+02  0.10000000387E+02 0.  0.
        -12    1    1    2    0    0 -0.24278737772E+01  0.11726886137E+02  0.43424636498E+02  0.45045682196E+02  0.00000000000E+00 0.  1.
         11    1    3    3    0    0  0.20080949591E+01 -0.96884053390E+01 -0.38702290448E+02  0.39947026542E+02  0.51100000000E-03 0. -1.
        -11    1    3    3    0    0  0.12723574732E+01  0.40433665765E+00 -0.10277639481E+01  0.16848384690E+01  0.51100000000E-03 0.  1.
         12    1    3    3    0    0 -0.85257865511E+00 -0.24428174556E+01 -0.36945821018E+01  0.45104527923E+01  0.00000000000E+00 0. -1.
</event>
<event>
 7    1  0.1486782E-008  0.4614232E+02  0.7816164E-02  0.1320468E+00
        -11   -1    0    0    0    0  0.00000000000E+00  0.00000000000E+00  0.45593999997E+02  0.45594000000E+02  0.51100000000E-03 0.  1.
         11   -1    0    0    0    0 -0.00000000000E+00 -0.00000000000E+00 -0.45593999997E+02  0.45594000000E+02  0.51100000000E-03 0. -1.
    9900012    2    1    2    0    0 -0.14415685435E+02 -0.24099248835E+02 -0.35221124862E+02  0.46142318548E+02  0.10000007173E+02 0.  0.
        -12    1    1    2    0    0  0.14415685435E+02  0.24099248835E+02  0.35221124862E+02  0.45045681452E+02  0.00000000000E+00 0.  1.
         11    1    3    3    0    0 -0.33585379716E+01 -0.11219556778E+02 -0.16750729142E+02  0.20438815001E+02  0.51100000000E-03 0.  1.
        -11    1    3    3    0    0 -0.75403288161E+01 -0.47495166226E+01 -0.10655401632E+02  0.13890718160E+02  0.51100000000E-03 0. -1.
        -12    1    3    3    0    0 -0.35168186470E+01 -0.81301754346E+01 -0.78149940872E+01  0.11812785386E+02  0.00000000000E+00 0.  1.
</event>
<event>
 7    1  0.1486782E-008  0.4614232E+02  0.7816164E-02  0.1320468E+00
        -11   -1    0    0    0    0  0.00000000000E+00  0.00000000000E+00  0.45593999997E+02  0.45594000000E+02  0.51100000000E-03 0.  1.
         11   -1    0    0    0    0 -0.00000000000E+00 -0.00000000000E+00 -0.45593999997E+02  0.45594000000E+02  0.51100000000E-03 0. -1.
    9900012    2    1    2    0    0  0.62817335984E+01 -0.12394915045E+02 -0.42848796108E+02  0.46142318477E+02  0.10000006526E+02 0.  0.
        -12    1    1    2    0    0 -0.62817335984E+01  0.12394915045E+02  0.42848796108E+02  0.45045681523E+02  0.00000000000E+00 0.  1.
         11    1    3    3    0    0 -0.13973719862E+01 -0.54432765432E+01 -0.11640621941E+02  0.12926174508E+02  0.51100000000E-03 0. -1.
        -11    1    3    3    0    0  0.49537115655E+01 -0.14630288390E+01 -0.16257787435E+02  0.17058586231E+02  0.51100000000E-03 0.  1.
        -12    1    3    3    0    0  0.27253940192E+01 -0.54886096631E+01 -0.14950386732E+02  0.16157557737E+02  0.00000000000E+00 0.  1.
</event>
<event>
 7    1  0.1486782E-008  0.4614232E+02  0.7816164E-02  0.1320468E+00
        -11   -1    0    0    0    0  0.00000000000E+00  0.00000000000E+00  0.45593999997E+02  0.45594000000E+02  0.51100000000E-03 0. -1.
         11   -1    0    0    0    0 -0.00000000000E+00 -0.00000000000E+00 -0.45593999997E+02  0.45594000000E+02  0.51100000000E-03 0.  1.
    9900012    2    1    2    0    0  0.21622188108E+02  0.10625824412E+02  0.38061611681E+02  0.46142318222E+02  0.10000004207E+02 0.  0.
        -12    1    1    2    0    0 -0.21622188108E+02 -0.10625824412E+02 -0.38061611681E+02  0.45045681778E+02  0.00000000000E+00 0.  1.
         11    1    3    3    0    0  0.95489472569E+01  0.25521820083E+01  0.14937108398E+02  0.17911259986E+02  0.51100000000E-03 0. -1.
        -11    1    3    3    0    0  0.11509822228E+02  0.72522443432E+01  0.23510563456E+02  0.27162799009E+02  0.51100000000E-03 0.  1.
        -12    1    3    3    0    0  0.56341862339E+00  0.82139806058E+00 -0.38606017319E+00  0.10682592272E+01  0.00000000000E+00 0.  1.
</event>
<event>
 7    1  0.1486782E-008  0.4614232E+02  0.7816164E-02  0.1320468E+00
        -11   -1    0    0    0    0  0.00000000000E+00  0.00000000000E+00  0.45593999997E+02  0.45594000000E+02  0.51100000000E-03 0.  1.
         11   -1    0    0    0    0 -0.00000000000E+00 -0.00000000000E+00 -0.45593999997E+02  0.45594000000E+02  0.51100000000E-03 0. -1.
    9900012    2    1    2    0    0  0.55666294868E+01 -0.36596282714E+02 -0.25667845067E+02  0.46142317157E+02  0.99999944941E+01 0.  0.
        -12    1    1    2    0    0 -0.55666294868E+01  0.36596282714E+02  0.25667845067E+02  0.45045682843E+02  0.00000000000E+00 0.  1.
         11    1    3    3    0    0 -0.16209850857E+00 -0.11768024348E+02 -0.85723205293E+01  0.14560128863E+02  0.51100000000E-03 0. -1.
        -11    1    3    3    0    0  0.55829261319E+01 -0.93098428259E+01 -0.88666063675E+01  0.14016381358E+02  0.51100000000E-03 0.  1.
        -12    1    3    3    0    0  0.14580186349E+00 -0.15518415541E+02 -0.82289181707E+01  0.17565806937E+02  0.00000000000E+00 0.  1.
</event>
<event>
 7    1  0.1486782E-008  0.4614232E+02  0.7816164E-02  0.1320468E+00
        -11   -1    0    0    0    0  0.00000000000E+00  0.00000000000E+00  0.45593999997E+02  0.45594000000E+02  0.51100000000E-03 0.  1.
         11   -1    0    0    0    0 -0.00000000000E+00 -0.00000000000E+00 -0.45593999997E+02  0.45594000000E+02  0.51100000000E-03 0. -1.
    9900012    2    1    2    0    0 -0.21504469873E+02 -0.32504152644E+02 -0.22586529483E+02  0.46142317879E+02  0.10000001075E+02 0.  0.
        -12    1    1    2    0    0  0.21504469873E+02  0.32504152644E+02  0.22586529483E+02  0.45045682121E+02  0.00000000000E+00 0.  1.
         11    1    3    3    0    0 -0.10765697373E+02 -0.16458875554E+02 -0.95500158702E+01  0.21863156858E+02  0.51100000000E-03 0. -1.
        -11    1    3    3    0    0 -0.47408325531E+01 -0.52786771290E+01 -0.86719726285E+01  0.11204598835E+02  0.51100000000E-03 0.  1.
        -12    1    3    3    0    0 -0.59979399469E+01 -0.10766599962E+02 -0.43645409845E+01  0.13074562186E+02  0.00000000000E+00 0.  1.
</event>
<event>
 7    1  0.1486782E-008  0.4614232E+02  0.7816164E-02  0.1320468E+00
        -11   -1    0    0    0    0  0.00000000000E+00  0.00000000000E+00  0.45593999997E+02  0.45594000000E+02  0.51100000000E-03 0.  1.
         11   -1    0    0    0    0 -0.00000000000E+00 -0.00000000000E+00 -0.45593999997E+02  0.45594000000E+02  0.51100000000E-03 0. -1.
    9900012    2    1    2    0    0 -0.11669496454E+02 -0.40833149581E+02 -0.15019660159E+02  0.46142318259E+02  0.10000004544E+02 0.  0.
        -12    1    1    2    0    0  0.11669496454E+02  0.40833149581E+02  0.15019660159E+02  0.45045681741E+02  0.00000000000E+00 0.  1.
         11    1    3    3    0    0 -0.10485712379E+02 -0.27256456366E+02 -0.63742714718E+01  0.29891402021E+02  0.51100000000E-03 0. -1.
        -11    1    3    3    0    0 -0.16611194356E+01 -0.10556187696E+02 -0.70457862367E+01  0.12799825014E+02  0.51100000000E-03 0.  1.
         12    1    3    3    0    0  0.47733536017E+00 -0.30205055190E+01 -0.15996024507E+01  0.34510912240E+01  0.00000000000E+00 0. -1.
</event>
<event>
 7    1  0.1486782E-008  0.4614232E+02  0.7816164E-02  0.1320468E+00
        -11   -1    0    0    0    0  0.00000000000E+00  0.00000000000E+00  0.45593999997E+02  0.45594000000E+02  0.51100000000E-03 0.  1.
         11   -1    0    0    0    0 -0.00000000000E+00 -0.00000000000E+00 -0.45593999997E+02  0.45594000000E+02  0.51100000000E-03 0. -1.
    9900012    2    1    2    0    0  0.62158535458E+01 -0.16447242026E+02 -0.41472458173E+02  0.46142318826E+02  0.10000009708E+02 0.  0.
        -12    1    1    2    0    0 -0.62158535458E+01  0.16447242026E+02  0.41472458173E+02  0.45045681174E+02  0.00000000000E+00 0.  1.
         11    1    3    3    0    0  0.57307355093E+01 -0.66956912428E+01 -0.20735649677E+02  0.22530884991E+02  0.51100000000E-03 0. -1.
        -11    1    3    3    0    0 -0.22230526108E+01 -0.64424027343E+01 -0.14812682794E+02  0.16305277910E+02  0.51100000000E-03 0.  1.
        -12    1    3    3    0    0  0.27081706472E+01 -0.33091480491E+01 -0.59241257013E+01  0.73061559242E+01  0.00000000000E+00 0.  1.
</event>
<event>
 7    1  0.1486782E-008  0.4614232E+02  0.7816164E-02  0.1320468E+00
        -11   -1    0    0    0    0  0.00000000000E+00  0.00000000000E+00  0.45593999997E+02  0.45594000000E+02  0.51100000000E-03 0.  1.
         11   -1    0    0    0    0 -0.00000000000E+00 -0.00000000000E+00 -0.45593999997E+02  0.45594000000E+02  0.51100000000E-03 0. -1.
    9900012    2    1    2    0    0 -0.24321661710E+02 -0.34797264041E+02 -0.15057247817E+02  0.46142317356E+02  0.99999963063E+01 0.  0.
        -12    1    1    2    0    0  0.24321661710E+02  0.34797264041E+02  0.15057247817E+02  0.45045682644E+02  0.00000000000E+00 0.  1.
         11    1    3    3    0    0 -0.12370899048E+02 -0.13723758513E+02 -0.11200307483E+02  0.21606193069E+02  0.51100000000E-03 0. -1.
        -11    1    3    3    0    0 -0.10396807570E+02 -0.18618196150E+02 -0.33246252936E+01  0.21582028847E+02  0.51100000000E-03 0.  1.
         12    1    3    3    0    0 -0.15539550915E+01 -0.24553093774E+01 -0.53231504052E+00  0.29540954398E+01  0.00000000000E+00 0. -1.
</event>
<event>
 7    1  0.1486782E-008  0.4614232E+02  0.7816164E-02  0.1320468E+00
        -11   -1    0    0    0    0  0.00000000000E+00  0.00000000000E+00  0.45593999997E+02  0.45594000000E+02  0.51100000000E-03 0. -1.
         11   -1    0    0    0    0 -0.00000000000E+00 -0.00000000000E+00 -0.45593999997E+02  0.45594000000E+02  0.51100000000E-03 0.  1.
    9900012    2    1    2    0    0 -0.35592445215E+01 -0.38522204579E+01  0.44739307977E+02  0.46142317606E+02  0.99999985896E+01 0.  0.
        -12    1    1    2    0    0  0.35592445215E+01  0.38522204579E+01 -0.44739307977E+02  0.45045682394E+02  0.00000000000E+00 0.  1.
         11    1    3    3    0    0 -0.87461390379E+00  0.31134606852E+01  0.93967147266E+01  0.99376473490E+01  0.51100000000E-03 0. -1.
        -11    1    3    3    0    0 -0.16288705487E+01 -0.23393922388E+01  0.90841760933E+01  0.95209364490E+01  0.51100000000E-03 0.  1.
         12    1    3    3    0    0 -0.10557600689E+01 -0.46262889043E+01  0.26258417157E+02  0.26683733808E+02  0.00000000000E+00 0. -1.
</event>
<event>
 7    1  0.1486782E-008  0.4614232E+02  0.7816164E-02  0.1320468E+00
        -11   -1    0    0    0    0  0.00000000000E+00  0.00000000000E+00  0.45593999997E+02  0.45594000000E+02  0.51100000000E-03 0.  1.
         11   -1    0    0    0    0 -0.00000000000E+00 -0.00000000000E+00 -0.45593999997E+02  0.45594000000E+02  0.51100000000E-03 0. -1.
    9900012    2    1    2    0    0  0.15566712172E+02 -0.80867206751E+01 -0.41489708743E+02  0.46142317513E+02  0.99999977382E+01 0.  0.
        -12    1    1    2    0    0 -0.15566712172E+02  0.80867206751E+01  0.41489708743E+02  0.45045682487E+02  0.00000000000E+00 0.  1.
         11    1    3    3    0    0  0.10867715376E+02 -0.71269463828E+01 -0.25192077076E+02  0.28346804933E+02  0.51100000000E-03 0. -1.
        -11    1    3    3    0    0 -0.11020514818E+01 -0.76540448705E+00 -0.30291258246E+01  0.33129993992E+01  0.51100000000E-03 0.  1.
        -12    1    3    3    0    0  0.58010482779E+01 -0.19436980522E+00 -0.13268505843E+02  0.14482513181E+02  0.00000000000E+00 0.  1.
</event>
<event>
 7    1  0.1486782E-008  0.4614232E+02  0.7816164E-02  0.1320468E+00
        -11   -1    0    0    0    0  0.00000000000E+00  0.00000000000E+00  0.45593999997E+02  0.45594000000E+02  0.51100000000E-03 0. -1.
         11   -1    0    0    0    0 -0.00000000000E+00 -0.00000000000E+00 -0.45593999997E+02  0.45594000000E+02  0.51100000000E-03 0.  1.
    9900012    2    1    2    0    0  0.13465679680E+02 -0.16249752198E+02 -0.39796162144E+02  0.46142317664E+02  0.99999991151E+01 0.  0.
        -12    1    1    2    0    0 -0.13465679680E+02  0.16249752198E+02  0.39796162144E+02  0.45045682336E+02  0.00000000000E+00 0.  1.
         11    1    3    3    0    0  0.51482770676E+01 -0.79255159446E+01 -0.20135553561E+02  0.22243180466E+02  0.51100000000E-03 0. -1.
        -11    1    3    3    0    0  0.78391695317E+01 -0.52793820945E+01 -0.10003364977E+02  0.13761968078E+02  0.51100000000E-03 0.  1.
        -12    1    3    3    0    0  0.47823308110E+00 -0.30448541585E+01 -0.96572436054E+01  0.10137169121E+02  0.00000000000E+00 0.  1.
</event>
<event>
 7    1  0.1486782E-008  0.4614232E+02  0.7816164E-02  0.1320468E+00
        -11   -1    0    0    0    0  0.00000000000E+00  0.00000000000E+00  0.45593999997E+02  0.45594000000E+02  0.51100000000E-03 0.  1.
         11   -1    0    0    0    0 -0.00000000000E+00 -0.00000000000E+00 -0.45593999997E+02  0.45594000000E+02  0.51100000000E-03 0. -1.
    9900012    2    1    2    0    0  0.28334052188E+02 -0.26614752828E+02 -0.22758514578E+02  0.46142316885E+02  0.99999920094E+01 0.  0.
        -12    1    1    2    0    0 -0.28334052188E+02  0.26614752828E+02  0.22758514578E+02  0.45045683115E+02  0.00000000000E+00 0.  1.
         11    1    3    3    0    0  0.13103544510E+02 -0.17323126734E+02 -0.11700972813E+02  0.24671975267E+02  0.51100000000E-03 0. -1.
        -11    1    3    3    0    0  0.11486751536E+02 -0.78370176241E+01 -0.63632742803E+01  0.15292336837E+02  0.51100000000E-03 0.  1.
        -12    1    3    3    0    0  0.37437561425E+01 -0.14546084700E+01 -0.46942674846E+01  0.61780047809E+01  0.00000000000E+00 0.  1.
</event>
<event>
 7    1  0.1486782E-008  0.4614232E+02  0.7816164E-02  0.1320468E+00
        -11   -1    0    0    0    0  0.00000000000E+00  0.00000000000E+00  0.45593999997E+02  0.45594000000E+02  0.51100000000E-03 0.  1.
         11   -1    0    0    0    0 -0.00000000000E+00 -0.00000000000E+00 -0.45593999997E+02  0.45594000000E+02  0.51100000000E-03 0. -1.
    9900012    2    1    2    0    0  0.21694593658E+02 -0.10300582025E+02 -0.38109790606E+02  0.46142317364E+02  0.99999963830E+01 0.  0.
        -12    1    1    2    0    0 -0.21694593658E+02  0.10300582025E+02  0.38109790606E+02  0.45045682636E+02  0.00000000000E+00 0.  1.
         11    1    3    3    0    0  0.18254331846E+02 -0.57380386810E+01 -0.23022670375E+02  0.29936417129E+02  0.51100000000E-03 0. -1.
        -11    1    3    3    0    0  0.22214350549E+01 -0.34686403199E+01 -0.89212769478E+01  0.98262618535E+01  0.51100000000E-03 0.  1.
        -12    1    3    3    0    0  0.12188267571E+01 -0.10939030243E+01 -0.61658432836E+01  0.63796383822E+01  0.00000000000E+00 0.  1.
</event>
<event>
 7    1  0.1486782E-008  0.4614232E+02  0.7816164E-02  0.1320468E+00
        -11   -1    0    0    0    0  0.00000000000E+00  0.00000000000E+00  0.45593999997E+02  0.45594000000E+02  0.51100000000E-03 0.  1.
         11   -1    0    0    0    0 -0.00000000000E+00 -0.00000000000E+00 -0.45593999997E+02  0.45594000000E+02  0.51100000000E-03 0. -1.
    9900012    2    1    2    0    0  0.14818291067E+02 -0.16230359370E+02 -0.39320567937E+02  0.46142318982E+02  0.10000011136E+02 0.  0.
        -12    1    1    2    0    0 -0.14818291067E+02  0.16230359370E+02  0.39320567937E+02  0.45045681018E+02  0.00000000000E+00 0.  1.
         11    1    3    3    0    0  0.74496082977E+01 -0.78291699095E+01 -0.15227532456E+02  0.18672715663E+02  0.51100000000E-03 0. -1.
        -11    1    3    3    0    0  0.21253741176E+01 -0.19980869473E+01 -0.14542406520E+02  0.14832098781E+02  0.51100000000E-03 0.  1.
         12    1    3    3    0    0  0.52433086521E+01 -0.64031025127E+01 -0.95506289611E+01  0.12637504539E+02  0.00000000000E+00 0. -1.
</event>
<event>
 7    1  0.1486782E-008  0.4614232E+02  0.7816164E-02  0.1320468E+00
        -11   -1    0    0    0    0  0.00000000000E+00  0.00000000000E+00  0.45593999997E+02  0.45594000000E+02  0.51100000000E-03 0. -1.
         11   -1    0    0    0    0 -0.00000000000E+00 -0.00000000000E+00 -0.45593999997E+02  0.45594000000E+02  0.51100000000E-03 0.  1.
    9900012    2    1    2    0    0  0.16373951008E+02 -0.41379102064E+02 -0.69840742696E+01  0.46142315938E+02  0.99999833730E+01 0.  0.
        -12    1    1    2    0    0 -0.16373951008E+02  0.41379102064E+02  0.69840742696E+01  0.45045684062E+02  0.00000000000E+00 0.  1.
         11    1    3    3    0    0  0.80109070120E+01 -0.25988223704E+02 -0.85491451992E+01  0.28507021702E+02  0.51100000000E-03 0. -1.
        -11    1    3    3    0    0  0.55821385787E+01 -0.90408500035E+01  0.68467483118E+00  0.10647348016E+02  0.51100000000E-03 0.  1.
         12    1    3    3    0    0  0.27809054170E+01 -0.63500283569E+01  0.88039609838E+00  0.69879462192E+01  0.00000000000E+00 0. -1.
</event>
<event>
 7    1  0.1486782E-008  0.4614232E+02  0.7816164E-02  0.1320468E+00
        -11   -1    0    0    0    0  0.00000000000E+00  0.00000000000E+00  0.45593999997E+02  0.45594000000E+02  0.51100000000E-03 0.  1.
         11   -1    0    0    0    0 -0.00000000000E+00 -0.00000000000E+00 -0.45593999997E+02  0.45594000000E+02  0.51100000000E-03 0. -1.
    9900012    2    1    2    0    0 -0.38566400994E+02 -0.20689012628E+02  0.10663534914E+02  0.46142317565E+02  0.99999982109E+01 0.  0.
        -12    1    1    2    0    0  0.38566400994E+02  0.20689012628E+02 -0.10663534914E+02  0.45045682435E+02  0.00000000000E+00 0.  1.
         11    1    3    3    0    0 -0.10562075088E+01 -0.10958133949E+01 -0.12517964917E+01  0.19706283302E+01  0.51100000000E-03 0. -1.
        -11    1    3    3    0    0 -0.15358676155E+02 -0.99367954651E+01  0.64491341519E+01  0.19396395772E+02  0.51100000000E-03 0.  1.
         12    1    3    3    0    0 -0.22151517330E+02 -0.96564037677E+01  0.54661972541E+01  0.24775293463E+02  0.00000000000E+00 0. -1.
</event>
<event>
 7    1  0.1486782E-008  0.4614232E+02  0.7816164E-02  0.1320468E+00
        -11   -1    0    0    0    0  0.00000000000E+00  0.00000000000E+00  0.45593999997E+02  0.45594000000E+02  0.51100000000E-03 0.  1.
         11   -1    0    0    0    0 -0.00000000000E+00 -0.00000000000E+00 -0.45593999997E+02  0.45594000000E+02  0.51100000000E-03 0. -1.
    9900012    2    1    2    0    0 -0.32264575418E+02  0.23430169830E+02 -0.20955616252E+02  0.46142317214E+02  0.99999950142E+01 0.  0.
        -12    1    1    2    0    0  0.32264575418E+02 -0.23430169830E+02  0.20955616252E+02  0.45045682786E+02  0.00000000000E+00 0.  1.
         11    1    3    3    0    0 -0.24043139380E+02  0.12746815213E+02 -0.11347047393E+02  0.29484052200E+02  0.51100000000E-03 0. -1.
        -11    1    3    3    0    0 -0.11827852043E+01  0.96340753094E+00 -0.17090998025E+01  0.22908857034E+01  0.51100000000E-03 0.  1.
         12    1    3    3    0    0 -0.70386508338E+01  0.97199470855E+01 -0.78994690561E+01  0.14367379311E+02  0.00000000000E+00 0. -1.
</event>
<event>
 7    1  0.1486782E-008  0.4614232E+02  0.7816164E-02  0.1320468E+00
        -11   -1    0    0    0    0  0.00000000000E+00  0.00000000000E+00  0.45593999997E+02  0.45594000000E+02  0.51100000000E-03 0.  1.
         11   -1    0    0    0    0 -0.00000000000E+00 -0.00000000000E+00 -0.45593999997E+02  0.45594000000E+02  0.51100000000E-03 0. -1.
    9900012    2    1    2    0    0  0.43412948681E+02 -0.10222683871E+02 -0.63186884385E+01  0.46142320937E+02  0.10000028959E+02 0.  0.
        -12    1    1    2    0    0 -0.43412948681E+02  0.10222683871E+02  0.63186884385E+01  0.45045679063E+02  0.00000000000E+00 0.  1.
         11    1    3    3    0    0  0.11039584087E+02 -0.48181052835E+01 -0.10037978774E+01  0.12086941953E+02  0.51100000000E-03 0. -1.
        -11    1    3    3    0    0  0.15332957514E+02 -0.94442033627E+00 -0.58360572899E+01  0.16433230992E+02  0.51100000000E-03 0.  1.
         12    1    3    3    0    0  0.17040407080E+02 -0.44601582516E+01  0.52116672884E+00  0.17622147991E+02  0.00000000000E+00 0. -1.
</event>
<event>
 7    1  0.1486782E-008  0.4614232E+02  0.7816164E-02  0.1320468E+00
        -11   -1    0    0    0    0  0.00000000000E+00  0.00000000000E+00  0.45593999997E+02  0.45594000000E+02  0.51100000000E-03 0.  1.
         11   -1    0    0    0    0 -0.00000000000E+00 -0.00000000000E+00 -0.45593999997E+02  0.45594000000E+02  0.51100000000E-03 0. -1.
    9900012    2    1    2    0    0 -0.29648280867E+02  0.26431724705E+02 -0.21247516871E+02  0.46142316494E+02  0.99999884497E+01 0.  0.
        -12    1    1    2    0    0  0.29648280867E+02 -0.26431724705E+02  0.21247516871E+02  0.45045683506E+02  0.00000000000E+00 0.  1.
         11    1    3    3    0    0 -0.52296697649E+01  0.87705085380E+01 -0.40812184478E+01  0.10996709060E+02  0.51100000000E-03 0. -1.
        -11    1    3    3    0    0 -0.10065975080E+02  0.10711573193E+02 -0.89052736062E+01  0.17186202397E+02  0.51100000000E-03 0.  1.
        -12    1    3    3    0    0 -0.14352636023E+02  0.69496429742E+01 -0.82610248172E+01  0.17959405037E+02  0.00000000000E+00 0.  1.
</event>
<event>
 7    1  0.1486782E-008  0.4614232E+02  0.7816164E-02  0.1320468E+00
        -11   -1    0    0    0    0  0.00000000000E+00  0.00000000000E+00  0.45593999997E+02  0.45594000000E+02  0.51100000000E-03 0. -1.
         11   -1    0    0    0    0 -0.00000000000E+00 -0.00000000000E+00 -0.45593999997E+02  0.45594000000E+02  0.51100000000E-03 0.  1.
    9900012    2    1    2    0    0 -0.11028935694E+02  0.39956091906E+02  0.17634817085E+02  0.46142317892E+02  0.10000001197E+02 0.  0.
        -12    1    1    2    0    0  0.11028935694E+02 -0.39956091906E+02 -0.17634817085E+02  0.45045682108E+02  0.00000000000E+00 0.  1.
         11    1    3    3    0    0 -0.86446821820E+01  0.29598494162E+02  0.15828332250E+02  0.34660315763E+02  0.51100000000E-03 0. -1.
        -11    1    3    3    0    0 -0.26475011666E+01  0.90398893094E+01  0.24616656498E+00  0.94228158950E+01  0.51100000000E-03 0.  1.
        -12    1    3    3    0    0  0.26324765441E+00  0.13177084343E+01  0.15603182700E+01  0.20591862347E+01  0.00000000000E+00 0.  1.
</event>
<event>
 7    1  0.1486782E-008  0.4614232E+02  0.7816164E-02  0.1320468E+00
        -11   -1    0    0    0    0  0.00000000000E+00  0.00000000000E+00  0.45593999997E+02  0.45594000000E+02  0.51100000000E-03 0. -1.
         11   -1    0    0    0    0 -0.00000000000E+00 -0.00000000000E+00 -0.45593999997E+02  0.45594000000E+02  0.51100000000E-03 0.  1.
    9900012    2    1    2    0    0  0.17011148560E+02 -0.24926122251E+02  0.33442827235E+02  0.46142318306E+02  0.10000004967E+02 0.  0.
        -12    1    1    2    0    0 -0.17011148560E+02  0.24926122251E+02 -0.33442827235E+02  0.45045681694E+02  0.00000000000E+00 0.  1.
         11    1    3    3    0    0  0.61107265524E+01 -0.11003629940E+02  0.20098888420E+02  0.23714682516E+02  0.51100000000E-03 0. -1.
        -11    1    3    3    0    0  0.10681887961E+02 -0.14124427093E+02  0.13244990714E+02  0.22114066799E+02  0.51100000000E-03 0.  1.
         12    1    3    3    0    0  0.21853404590E+00  0.20193478164E+00  0.98948101772E-01  0.31356899097E+00  0.00000000000E+00 0. -1.
</event>
<event>
 7    1  0.1486782E-008  0.4614231E+02  0.7816164E-02  0.1320468E+00
        -11   -1    0    0    0    0  0.00000000000E+00  0.00000000000E+00  0.45593999997E+02  0.45594000000E+02  0.51100000000E-03 0.  1.
         11   -1    0    0    0    0 -0.00000000000E+00 -0.00000000000E+00 -0.45593999997E+02  0.45594000000E+02  0.51100000000E-03 0. -1.
    9900012    2    1    2    0    0  0.42013879666E+01 -0.10991492064E+01 -0.44835856313E+02  0.46142314290E+02  0.99999683436E+01 0.  0.
        -12    1    1    2    0    0 -0.42013879666E+01  0.10991492064E+01  0.44835856313E+02  0.45045685710E+02  0.00000000000E+00 0.  1.
         11    1    3    3    0    0  0.58090633433E+01 -0.29113752968E+01 -0.32347794132E+02  0.32993955636E+02  0.51100000000E-03 0. -1.
        -11    1    3    3    0    0 -0.12317757570E+00  0.21022373142E+01 -0.39395286677E+01  0.44670416189E+01  0.51100000000E-03 0.  1.
         12    1    3    3    0    0 -0.14844978010E+01 -0.29001122376E+00 -0.85485335136E+01  0.86813170351E+01  0.00000000000E+00 0. -1.
</event>
<event>
 7    1  0.1486782E-008  0.4614232E+02  0.7816164E-02  0.1320468E+00
        -11   -1    0    0    0    0  0.00000000000E+00  0.00000000000E+00  0.45593999997E+02  0.45594000000E+02  0.51100000000E-03 0.  1.
         11   -1    0    0    0    0 -0.00000000000E+00 -0.00000000000E+00 -0.45593999997E+02  0.45594000000E+02  0.51100000000E-03 0. -1.
    9900012    2    1    2    0    0 -0.15306335462E+02  0.39549774846E+02 -0.15186996285E+02  0.46142318167E+02  0.10000003703E+02 0.  0.
        -12    1    1    2    0    0  0.15306335462E+02 -0.39549774846E+02  0.15186996285E+02  0.45045681833E+02  0.00000000000E+00 0.  1.
         11    1    3    3    0    0 -0.58702135661E+01  0.13093861234E+02 -0.78410936329E+01  0.16352105643E+02  0.51100000000E-03 0. -1.
        -11    1    3    3    0    0 -0.15594051740E+00  0.82931419059E+01 -0.63757404491E+00  0.83190757323E+01  0.51100000000E-03 0.  1.
        -12    1    3    3    0    0 -0.92801813781E+01  0.18162771706E+02 -0.67083286076E+01  0.21471136792E+02  0.00000000000E+00 0.  1.
</event>
<event>
 7    1  0.1486782E-008  0.4614232E+02  0.7816164E-02  0.1320468E+00
        -11   -1    0    0    0    0  0.00000000000E+00  0.00000000000E+00  0.45593999997E+02  0.45594000000E+02  0.51100000000E-03 0.  1.
         11   -1    0    0    0    0 -0.00000000000E+00 -0.00000000000E+00 -0.45593999997E+02  0.45594000000E+02  0.51100000000E-03 0. -1.
    9900012    2    1    2    0    0  0.29514623993E+02 -0.33571868401E+02  0.55614807536E+01  0.46142318236E+02  0.10000004332E+02 0.  0.
        -12    1    1    2    0    0 -0.29514623993E+02  0.33571868401E+02 -0.55614807536E+01  0.45045681764E+02  0.00000000000E+00 0.  1.
         11    1    3    3    0    0  0.14705597742E+02 -0.21009063164E+02  0.33691753588E+01  0.25864776876E+02  0.51100000000E-03 0.  1.
        -11    1    3    3    0    0  0.11105347250E+02 -0.78769955203E+01 -0.71648109041E+00  0.13634116817E+02  0.51100000000E-03 0. -1.
        -12    1    3    3    0    0  0.37036790011E+01 -0.46858097167E+01  0.29087864852E+01  0.66434245432E+01  0.00000000000E+00 0.  1.
</event>
<event>
 7    1  0.1486782E-008  0.4614232E+02  0.7816164E-02  0.1320468E+00
        -11   -1    0    0    0    0  0.00000000000E+00  0.00000000000E+00  0.45593999997E+02  0.45594000000E+02  0.51100000000E-03 0. -1.
         11   -1    0    0    0    0 -0.00000000000E+00 -0.00000000000E+00 -0.45593999997E+02  0.45594000000E+02  0.51100000000E-03 0.  1.
    9900012    2    1    2    0    0 -0.17555277548E+02 -0.39820939285E+02  0.11628355285E+02  0.46142316278E+02  0.99999864744E+01 0.  0.
        -12    1    1    2    0    0  0.17555277548E+02  0.39820939285E+02 -0.11628355285E+02  0.45045683722E+02  0.00000000000E+00 0.  1.
         11    1    3    3    0    0 -0.63827742329E+01 -0.13735511574E+02  0.76384290080E+01  0.16963186112E+02  0.51100000000E-03 0. -1.
        -11    1    3    3    0    0 -0.35163964204E-01 -0.53009038399E+01  0.27776941220E+00  0.53082929583E+01  0.51100000000E-03 0.  1.
         12    1    3    3    0    0 -0.11137339351E+02 -0.20784523872E+02  0.37121568649E+01  0.23870837208E+02  0.00000000000E+00 0. -1.
</event>
<event>
 7    1  0.1486782E-008  0.4614232E+02  0.7816164E-02  0.1320468E+00
        -11   -1    0    0    0    0  0.00000000000E+00  0.00000000000E+00  0.45593999997E+02  0.45594000000E+02  0.51100000000E-03 0. -1.
         11   -1    0    0    0    0 -0.00000000000E+00 -0.00000000000E+00 -0.45593999997E+02  0.45594000000E+02  0.51100000000E-03 0.  1.
    9900012    2    1    2    0    0  0.16776130788E+02  0.40407478624E+02 -0.10719637258E+02  0.46142317455E+02  0.99999972118E+01 0.  0.
        -12    1    1    2    0    0 -0.16776130788E+02 -0.40407478624E+02  0.10719637258E+02  0.45045682545E+02  0.00000000000E+00 0.  1.
         11    1    3    3    0    0  0.45082885266E+01  0.77004273372E+01 -0.11866150808E+01  0.90016277542E+01  0.51100000000E-03 0. -1.
        -11    1    3    3    0    0  0.13354482153E+02  0.28602219224E+02 -0.92089211514E+01  0.32882113179E+02  0.51100000000E-03 0.  1.
        -12    1    3    3    0    0 -0.10866398913E+01  0.41048320627E+01 -0.32410102616E+00  0.42585765217E+01  0.00000000000E+00 0.  1.
</event>
<event>
 7    1  0.1486782E-008  0.4614232E+02  0.7816164E-02  0.1320468E+00
        -11   -1    0    0    0    0  0.00000000000E+00  0.00000000000E+00  0.45593999997E+02  0.45594000000E+02  0.51100000000E-03 0.  1.
         11   -1    0    0    0    0 -0.00000000000E+00 -0.00000000000E+00 -0.45593999997E+02  0.45594000000E+02  0.51100000000E-03 0. -1.
    9900012    2    1    2    0    0 -0.33296800132E+02  0.80533369160E+01  0.29250305992E+02  0.46142317242E+02  0.99999952707E+01 0.  0.
        -12    1    1    2    0    0  0.33296800132E+02 -0.80533369160E+01 -0.29250305992E+02  0.45045682758E+02  0.00000000000E+00 0.  1.
         11    1    3    3    0    0 -0.81414401592E+01  0.36351798615E+00  0.58200953269E+01  0.10014424750E+02  0.51100000000E-03 0. -1.
        -11    1    3    3    0    0 -0.13781651692E+02  0.65241224320E+00  0.91112313037E+01  0.16534028585E+02  0.51100000000E-03 0.  1.
        -12    1    3    3    0    0 -0.11373708280E+02  0.70374066867E+01  0.14318979361E+02  0.19593863908E+02  0.00000000000E+00 0.  1.
</event>
<event>
 7    1  0.1486782E-008  0.4614232E+02  0.7816164E-02  0.1320468E+00
        -11   -1    0    0    0    0  0.00000000000E+00  0.00000000000E+00  0.45593999997E+02  0.45594000000E+02  0.51100000000E-03 0.  1.
         11   -1    0    0    0    0 -0.00000000000E+00 -0.00000000000E+00 -0.45593999997E+02  0.45594000000E+02  0.51100000000E-03 0. -1.
    9900012    2    1    2    0    0 -0.18545463892E+01 -0.22048411869E+02 -0.39236995660E+02  0.46142316115E+02  0.99999849865E+01 0.  0.
        -12    1    1    2    0    0  0.18545463892E+01  0.22048411869E+02  0.39236995660E+02  0.45045683885E+02  0.00000000000E+00 0.  1.
         11    1    3    3    0    0  0.19443006457E+01 -0.75316506486E+01 -0.19627696176E+02  0.21112852104E+02  0.51100000000E-03 0. -1.
        -11    1    3    3    0    0 -0.83516844912E+00 -0.50767973644E+01 -0.38678731414E+01  0.64367554495E+01  0.51100000000E-03 0.  1.
         12    1    3    3    0    0 -0.29636785857E+01 -0.94399638560E+01 -0.15741426342E+02  0.18592708562E+02  0.00000000000E+00 0. -1.
</event>
<event>
 7    1  0.1486782E-008  0.4614232E+02  0.7816164E-02  0.1320468E+00
        -11   -1    0    0    0    0  0.00000000000E+00  0.00000000000E+00  0.45593999997E+02  0.45594000000E+02  0.51100000000E-03 0. -1.
         11   -1    0    0    0    0 -0.00000000000E+00 -0.00000000000E+00 -0.45593999997E+02  0.45594000000E+02  0.51100000000E-03 0.  1.
    9900012    2    1    2    0    0 -0.35972088602E+02 -0.21231941816E+02 -0.16861998219E+02  0.46142317680E+02  0.99999992634E+01 0.  0.
        -12    1    1    2    0    0  0.35972088602E+02  0.21231941816E+02  0.16861998219E+02  0.45045682320E+02  0.00000000000E+00 0.  1.
         11    1    3    3    0    0 -0.11277301413E+02 -0.70529845716E+01 -0.58309622646E+01  0.14523162180E+02  0.51100000000E-03 0. -1.
        -11    1    3    3    0    0 -0.84497332256E+01 -0.64689649424E+01 -0.81588221785E+01  0.13409395162E+02  0.51100000000E-03 0.  1.
        -12    1    3    3    0    0 -0.16245053964E+02 -0.77099923025E+01 -0.28722137758E+01  0.18209760338E+02  0.00000000000E+00 0.  1.
</event>
<event>
 7    1  0.1486782E-008  0.4614232E+02  0.7816164E-02  0.1320468E+00
        -11   -1    0    0    0    0  0.00000000000E+00  0.00000000000E+00  0.45593999997E+02  0.45594000000E+02  0.51100000000E-03 0.  1.
         11   -1    0    0    0    0 -0.00000000000E+00 -0.00000000000E+00 -0.45593999997E+02  0.45594000000E+02  0.51100000000E-03 0. -1.
    9900012    2    1    2    0    0  0.22160735386E+01  0.94752601224E+01 -0.43982064607E+02  0.46142317150E+02  0.99999944262E+01 0.  0.
        -12    1    1    2    0    0 -0.22160735386E+01 -0.94752601224E+01  0.43982064607E+02  0.45045682850E+02  0.00000000000E+00 0.  1.
         11    1    3    3    0    0  0.74809078911E-01  0.53153378473E+01 -0.21782776126E+02  0.22422037125E+02  0.51100000000E-03 0. -1.
        -11    1    3    3    0    0 -0.51481663761E+00  0.64467127090E+00 -0.16480409442E+02  0.16501046417E+02  0.51100000000E-03 0.  1.
        -12    1    3    3    0    0  0.26560810973E+01  0.35152510042E+01 -0.57188790399E+01  0.72192336083E+01  0.00000000000E+00 0.  1.
</event>
<event>
 7    1  0.1486782E-008  0.4614232E+02  0.7816164E-02  0.1320468E+00
        -11   -1    0    0    0    0  0.00000000000E+00  0.00000000000E+00  0.45593999997E+02  0.45594000000E+02  0.51100000000E-03 0.  1.
         11   -1    0    0    0    0 -0.00000000000E+00 -0.00000000000E+00 -0.45593999997E+02  0.45594000000E+02  0.51100000000E-03 0. -1.
    9900012    2    1    2    0    0  0.23169945501E+02 -0.15462291806E+01 -0.38598915299E+02  0.46142318060E+02  0.10000002724E+02 0.  0.
        -12    1    1    2    0    0 -0.23169945501E+02  0.15462291806E+01  0.38598915299E+02  0.45045681940E+02  0.00000000000E+00 0.  1.
         11    1    3    3    0    0  0.12620247055E+02 -0.33417244855E+01 -0.21061937903E+02  0.24779890774E+02  0.51100000000E-03 0. -1.
        -11    1    3    3    0    0 -0.13793159925E+00 -0.10357905685E+01 -0.85987389811E+00  0.13532444752E+01  0.51100000000E-03 0.  1.
         12    1    3    3    0    0  0.10687630045E+02  0.28312858734E+01 -0.16677103498E+02  0.20009182811E+02  0.00000000000E+00 0. -1.
</event>
<event>
 7    1  0.1486782E-008  0.4614232E+02  0.7816164E-02  0.1320468E+00
        -11   -1    0    0    0    0  0.00000000000E+00  0.00000000000E+00  0.45593999997E+02  0.45594000000E+02  0.51100000000E-03 0.  1.
         11   -1    0    0    0    0 -0.00000000000E+00 -0.00000000000E+00 -0.45593999997E+02  0.45594000000E+02  0.51100000000E-03 0. -1.
    9900012    2    1    2    0    0  0.15964135581E+02 -0.17054081996E+02 -0.38515166073E+02  0.46142319239E+02  0.10000013477E+02 0.  0.
        -12    1    1    2    0    0 -0.15964135581E+02  0.17054081996E+02  0.38515166073E+02  0.45045680761E+02  0.00000000000E+00 0.  1.
         11    1    3    3    0    0  0.21477243993E+01 -0.41365494854E+01 -0.24739939433E+01  0.52767800820E+01  0.51100000000E-03 0. -1.
        -11    1    3    3    0    0  0.30668740180E+01 -0.14314498345E+01 -0.84838822420E+01  0.91340584095E+01  0.51100000000E-03 0.  1.
         12    1    3    3    0    0  0.10749537164E+02 -0.11486082676E+02 -0.27557289888E+02  0.31731480748E+02  0.00000000000E+00 0. -1.
</event>
<event>
 7    1  0.1486782E-008  0.4614232E+02  0.7816164E-02  0.1320468E+00
        -11   -1    0    0    0    0  0.00000000000E+00  0.00000000000E+00  0.45593999997E+02  0.45594000000E+02  0.51100000000E-03 0.  1.
         11   -1    0    0    0    0 -0.00000000000E+00 -0.00000000000E+00 -0.45593999997E+02  0.45594000000E+02  0.51100000000E-03 0. -1.
    9900012    2    1    2    0    0  0.36655869297E+02  0.13459930173E+02 -0.22456426483E+02  0.46142316916E+02  0.99999922906E+01 0.  0.
        -12    1    1    2    0    0 -0.36655869297E+02 -0.13459930173E+02  0.22456426483E+02  0.45045683084E+02  0.00000000000E+00 0.  1.
         11    1    3    3    0    0  0.92830416711E+01  0.49667254842E+01 -0.86026543676E+01  0.13595914354E+02  0.51100000000E-03 0. -1.
        -11    1    3    3    0    0  0.11107336274E+02  0.13854259951E+01 -0.24812807516E+01  0.11465124453E+02  0.51100000000E-03 0.  1.
        -12    1    3    3    0    0  0.16265491352E+02  0.71077786939E+01 -0.11372491363E+02  0.21081278109E+02  0.00000000000E+00 0.  1.
</event>
<event>
 7    1  0.1486782E-008  0.4614232E+02  0.7816164E-02  0.1320468E+00
        -11   -1    0    0    0    0  0.00000000000E+00  0.00000000000E+00  0.45593999997E+02  0.45594000000E+02  0.51100000000E-03 0. -1.
         11   -1    0    0    0    0 -0.00000000000E+00 -0.00000000000E+00 -0.45593999997E+02  0.45594000000E+02  0.51100000000E-03 0.  1.
    9900012    2    1    2    0    0 -0.36977879879E+02  0.25723976470E+02 -0.16391261052E+00  0.46142318374E+02  0.10000005589E+02 0.  0.
        -12    1    1    2    0    0  0.36977879879E+02 -0.25723976470E+02  0.16391261052E+00  0.45045681626E+02  0.00000000000E+00 0.  1.
         11    1    3    3    0    0 -0.69265701963E+01  0.83108259798E+01  0.30169851357E+01  0.11231625115E+02  0.51100000000E-03 0. -1.
        -11    1    3    3    0    0 -0.26639398676E+02  0.14896857989E+02 -0.26121354537E+01  0.30633269360E+02  0.51100000000E-03 0.  1.
        -12    1    3    3    0    0 -0.34119110070E+01  0.25162925012E+01 -0.56876229245E+00  0.42774238996E+01  0.00000000000E+00 0.  1.
</event>
<event>
 7    1  0.1496580E-008  0.4614232E+02  0.7816164E-02  0.1320468E+00
        -11   -1    0    0    0    0  0.00000000000E+00  0.00000000000E+00  0.45593999997E+02  0.45594000000E+02  0.51100000000E-03 0. -1.
         11   -1    0    0    0    0 -0.00000000000E+00 -0.00000000000E+00 -0.45593999997E+02  0.45594000000E+02  0.51100000000E-03 0.  1.
    9900012    2    1    2    0    0 -0.66016846755E+00 -0.36615297379E+02  0.26229708558E+02  0.46142318347E+02  0.10000005342E+02 0.  0.
        -12    1    1    2    0    0  0.66016846755E+00  0.36615297379E+02 -0.26229708558E+02  0.45045681653E+02  0.00000000000E+00 0.  1.
         11    1    3    3    0    0 -0.51631794911E+00 -0.25435574553E+02  0.23309206796E+02  0.34504407817E+02  0.51100000000E-03 0. -1.
        -11    1    3    3    0    0 -0.71155473571E+00 -0.82665529078E+01  0.21950353125E+01  0.85825629857E+01  0.51100000000E-03 0.  1.
         12    1    3    3    0    0  0.56770421727E+00 -0.29131699177E+01  0.72546645014E+00  0.30553475446E+01  0.00000000000E+00 0. -1.
</event>
<event>
 7    1  0.1486782E-008  0.4614232E+02  0.7816164E-02  0.1320468E+00
        -11   -1    0    0    0    0  0.00000000000E+00  0.00000000000E+00  0.45593999997E+02  0.45594000000E+02  0.51100000000E-03 0.  1.
         11   -1    0    0    0    0 -0.00000000000E+00 -0.00000000000E+00 -0.45593999997E+02  0.45594000000E+02  0.51100000000E-03 0. -1.
    9900012    2    1    2    0    0 -0.62112004974E+01  0.44433703152E+02 -0.40224962003E+01  0.46142318041E+02  0.10000002556E+02 0.  0.
        -12    1    1    2    0    0  0.62112004974E+01 -0.44433703152E+02  0.40224962003E+01  0.45045681959E+02  0.00000000000E+00 0.  1.
         11    1    3    3    0    0 -0.64309166251E+01  0.37256262202E+02 -0.35794807791E+01  0.37976287928E+02  0.51100000000E-03 0. -1.
        -11    1    3    3    0    0  0.76908954770E+00 -0.13819112926E+00  0.18487459199E+00  0.80297845331E+00  0.51100000000E-03 0.  1.
         12    1    3    3    0    0 -0.54937342000E+00  0.73156320798E+01 -0.62789001319E+00  0.73630516601E+01  0.00000000000E+00 0. -1.
</event>
<event>
 7    1  0.1486782E-008  0.4614232E+02  0.7816164E-02  0.1320468E+00
        -11   -1    0    0    0    0  0.00000000000E+00  0.00000000000E+00  0.45593999997E+02  0.45594000000E+02  0.51100000000E-03 0.  1.
         11   -1    0    0    0    0 -0.00000000000E+00 -0.00000000000E+00 -0.45593999997E+02  0.45594000000E+02  0.51100000000E-03 0. -1.
    9900012    2    1    2    0    0 -0.28770585946E+02  0.25252047715E+02 -0.23742389454E+02  0.46142316673E+02  0.99999900744E+01 0.  0.
        -12    1    1    2    0    0  0.28770585946E+02 -0.25252047715E+02  0.23742389454E+02  0.45045683327E+02  0.00000000000E+00 0.  1.
         11    1    3    3    0    0 -0.65851550409E+01  0.60672947029E+01 -0.52543579217E+01  0.10381936686E+02  0.51100000000E-03 0. -1.
        -11    1    3    3    0    0 -0.35052349494E+01  0.82274654770E+01 -0.58359583434E+01  0.10678776628E+02  0.51100000000E-03 0.  1.
        -12    1    3    3    0    0 -0.18680195955E+02  0.10957287535E+02 -0.12652073189E+02  0.25081603358E+02  0.00000000000E+00 0.  1.
</event>
<event>
 7    1  0.1486782E-008  0.4614232E+02  0.7816164E-02  0.1320468E+00
        -11   -1    0    0    0    0  0.00000000000E+00  0.00000000000E+00  0.45593999997E+02  0.45594000000E+02  0.51100000000E-03 0.  1.
         11   -1    0    0    0    0 -0.00000000000E+00 -0.00000000000E+00 -0.45593999997E+02  0.45594000000E+02  0.51100000000E-03 0. -1.
    9900012    2    1    2    0    0 -0.94156852791E+01 -0.43973078475E+02  0.26128073043E+01  0.46142317389E+02  0.99999966092E+01 0.  0.
        -12    1    1    2    0    0  0.94156852791E+01  0.43973078475E+02 -0.26128073043E+01  0.45045682611E+02  0.00000000000E+00 0.  1.
         11    1    3    3    0    0 -0.20614086198E+01 -0.25562645901E+01  0.18982589157E+01  0.37930569894E+01  0.51100000000E-03 0. -1.
        -11    1    3    3    0    0 -0.26973005757E+01 -0.10994059189E+02 -0.18302407621E+01  0.11467107279E+02  0.51100000000E-03 0.  1.
         12    1    3    3    0    0 -0.46569760835E+01 -0.30422754696E+02  0.25447891507E+01  0.30882153121E+02  0.00000000000E+00 0. -1.
</event>
<event>
 7    1  0.1486782E-008  0.4614232E+02  0.7816164E-02  0.1320468E+00
        -11   -1    0    0    0    0  0.00000000000E+00  0.00000000000E+00  0.45593999997E+02  0.45594000000E+02  0.51100000000E-03 0. -1.
         11   -1    0    0    0    0 -0.00000000000E+00 -0.00000000000E+00 -0.45593999997E+02  0.45594000000E+02  0.51100000000E-03 0.  1.
    9900012    2    1    2    0    0 -0.39277603554E+02  0.10086610398E+02  0.19612334846E+02  0.46142317317E+02  0.99999959481E+01 0.  0.
        -12    1    1    2    0    0  0.39277603554E+02 -0.10086610398E+02 -0.19612334846E+02  0.45045682683E+02  0.00000000000E+00 0.  1.
         11    1    3    3    0    0 -0.86912557795E+01  0.34653269444E+01  0.75396648428E+01  0.12016362347E+02  0.51100000000E-03 0. -1.
        -11    1    3    3    0    0 -0.15051886641E+02  0.54286466923E+01  0.36385578204E+01  0.16409405828E+02  0.51100000000E-03 0.  1.
        -12    1    3    3    0    0 -0.15534461134E+02  0.11926367609E+01  0.84341121831E+01  0.17716549141E+02  0.00000000000E+00 0.  1.
</event>
<event>
 7    1  0.1486782E-008  0.4614232E+02  0.7816164E-02  0.1320468E+00
        -11   -1    0    0    0    0  0.00000000000E+00  0.00000000000E+00  0.45593999997E+02  0.45594000000E+02  0.51100000000E-03 0.  1.
         11   -1    0    0    0    0 -0.00000000000E+00 -0.00000000000E+00 -0.45593999997E+02  0.45594000000E+02  0.51100000000E-03 0. -1.
    9900012    2    1    2    0    0 -0.49238438608E-01 -0.95403076083E+01 -0.44023785445E+02  0.46142316760E+02  0.99999908686E+01 0.  0.
        -12    1    1    2    0    0  0.49238438608E-01  0.95403076083E+01  0.44023785445E+02  0.45045683240E+02  0.00000000000E+00 0.  1.
         11    1    3    3    0    0  0.22843893122E+01  0.49365154246E+00 -0.13711081934E+02  0.13908842311E+02  0.51100000000E-03 0. -1.
        -11    1    3    3    0    0 -0.33508412655E+01 -0.82601615133E+01 -0.24892175299E+02  0.26440098275E+02  0.51100000000E-03 0.  1.
        -12    1    3    3    0    0  0.10172135147E+01 -0.17737976375E+01 -0.54205282121E+01  0.57933761738E+01  0.00000000000E+00 0.  1.
</event>
<event>
 7    1  0.1486782E-008  0.4614232E+02  0.7816164E-02  0.1320468E+00
        -11   -1    0    0    0    0  0.00000000000E+00  0.00000000000E+00  0.45593999997E+02  0.45594000000E+02  0.51100000000E-03 0.  1.
         11   -1    0    0    0    0 -0.00000000000E+00 -0.00000000000E+00 -0.45593999997E+02  0.45594000000E+02  0.51100000000E-03 0. -1.
    9900012    2    1    2    0    0  0.24933281476E+02  0.35734929472E+01 -0.37345350456E+02  0.46142316770E+02  0.99999909594E+01 0.  0.
        -12    1    1    2    0    0 -0.24933281476E+02 -0.35734929472E+01  0.37345350456E+02  0.45045683230E+02  0.00000000000E+00 0.  1.
         11    1    3    3    0    0  0.36148875446E+00 -0.80573243463E+00 -0.50275793980E+01  0.51045502976E+01  0.51100000000E-03 0. -1.
        -11    1    3    3    0    0  0.12566956953E+02  0.40297322528E+00 -0.14566717820E+02  0.19242662570E+02  0.51100000000E-03 0.  1.
         12    1    3    3    0    0  0.12004835768E+02  0.39762521566E+01 -0.17751053238E+02  0.21795103902E+02  0.00000000000E+00 0. -1.
</event>
<event>
 7    1  0.1486782E-008  0.4614232E+02  0.7816164E-02  0.1320468E+00
        -11   -1    0    0    0    0  0.00000000000E+00  0.00000000000E+00  0.45593999997E+02  0.45594000000E+02  0.51100000000E-03 0. -1.
         11   -1    0    0    0    0 -0.00000000000E+00 -0.00000000000E+00 -0.45593999997E+02  0.45594000000E+02  0.51100000000E-03 0.  1.
    9900012    2    1    2    0    0 -0.43547793862E+02 -0.97449040392E+01 -0.61432855657E+01  0.46142318048E+02  0.10000002620E+02 0.  0.
        -12    1    1    2    0    0  0.43547793862E+02  0.97449040392E+01  0.61432855657E+01  0.45045681952E+02  0.00000000000E+00 0.  1.
         11    1    3    3    0    0 -0.34875950723E+02 -0.89724983158E+01 -0.56426526329E+01  0.36451024593E+02  0.51100000000E-03 0. -1.
        -11    1    3    3    0    0 -0.74196362430E+01  0.80939563704E+00  0.41627365186E+00  0.74752529917E+01  0.51100000000E-03 0.  1.
        -12    1    3    3    0    0 -0.12522068952E+01 -0.15818013605E+01 -0.91690658458E+00  0.22160404638E+01  0.00000000000E+00 0.  1.
</event>
<event>
 7    1  0.1486782E-008  0.4614231E+02  0.7816164E-02  0.1320468E+00
        -11   -1    0    0    0    0  0.00000000000E+00  0.00000000000E+00  0.45593999997E+02  0.45594000000E+02  0.51100000000E-03 0.  1.
         11   -1    0    0    0    0 -0.00000000000E+00 -0.00000000000E+00 -0.45593999997E+02  0.45594000000E+02  0.51100000000E-03 0. -1.
    9900012    2    1    2    0    0  0.11547295137E+02 -0.19111433522E+02 -0.39121950799E+02  0.46142312631E+02  0.99999532214E+01 0.  0.
        -12    1    1    2    0    0 -0.11547295137E+02  0.19111433522E+02  0.39121950799E+02  0.45045687369E+02  0.00000000000E+00 0.  1.
         11    1    3    3    0    0  0.67000270870E+01 -0.87134117923E+01 -0.16733492141E+02  0.20020581099E+02  0.51100000000E-03 0. -1.
        -11    1    3    3    0    0  0.65462271965E+01 -0.76508472390E+01 -0.18535680010E+02  0.21094074705E+02  0.51100000000E-03 0.  1.
        -12    1    3    3    0    0 -0.16989591469E+01 -0.27471744908E+01 -0.38527786474E+01  0.50276568271E+01  0.00000000000E+00 0.  1.
</event>
<event>
 7    1  0.1486782E-008  0.4614232E+02  0.7816164E-02  0.1320468E+00
        -11   -1    0    0    0    0  0.00000000000E+00  0.00000000000E+00  0.45593999997E+02  0.45594000000E+02  0.51100000000E-03 0.  1.
         11   -1    0    0    0    0 -0.00000000000E+00 -0.00000000000E+00 -0.45593999997E+02  0.45594000000E+02  0.51100000000E-03 0. -1.
    9900012    2    1    2    0    0 -0.32883029395E+02 -0.82558680417E+01 -0.29659072113E+02  0.46142317211E+02  0.99999949823E+01 0.  0.
        -12    1    1    2    0    0  0.32883029395E+02  0.82558680417E+01  0.29659072113E+02  0.45045682789E+02  0.00000000000E+00 0.  1.
         11    1    3    3    0    0 -0.27929357902E+02 -0.79600567608E+01 -0.26564267817E+02  0.39358250233E+02  0.51100000000E-03 0. -1.
        -11    1    3    3    0    0 -0.39946083753E+01 -0.16960698468E+01 -0.22115194926E+01  0.48707666465E+01  0.51100000000E-03 0.  1.
        -12    1    3    3    0    0 -0.95906311814E+00  0.14002585658E+01 -0.88328480289E+00  0.19133003316E+01  0.00000000000E+00 0.  1.
</event>
<event>
 7    1  0.1486782E-008  0.4614232E+02  0.7816164E-02  0.1320468E+00
        -11   -1    0    0    0    0  0.00000000000E+00  0.00000000000E+00  0.45593999997E+02  0.45594000000E+02  0.51100000000E-03 0. -1.
         11   -1    0    0    0    0 -0.00000000000E+00 -0.00000000000E+00 -0.45593999997E+02  0.45594000000E+02  0.51100000000E-03 0.  1.
    9900012    2    1    2    0    0 -0.37013233330E+02 -0.38029815859E+00  0.25670789189E+02  0.46142317789E+02  0.10000000257E+02 0.  0.
        -12    1    1    2    0    0  0.37013233330E+02  0.38029815859E+00 -0.25670789189E+02  0.45045682211E+02  0.00000000000E+00 0.  1.
         11    1    3    3    0    0 -0.26132246734E+02 -0.52623293025E+00  0.20600416356E+02  0.33279849681E+02  0.51100000000E-03 0. -1.
        -11    1    3    3    0    0 -0.56200718691E+00  0.10878162361E+01 -0.19448418686E+00  0.12397663496E+01  0.51100000000E-03 0.  1.
        -12    1    3    3    0    0 -0.10318979409E+02 -0.94188146440E+00  0.52648570198E+01  0.11622701759E+02  0.00000000000E+00 0.  1.
</event>
<event>
 7    1  0.1486782E-008  0.4614231E+02  0.7816164E-02  0.1320468E+00
        -11   -1    0    0    0    0  0.00000000000E+00  0.00000000000E+00  0.45593999997E+02  0.45594000000E+02  0.51100000000E-03 0.  1.
         11   -1    0    0    0    0 -0.00000000000E+00 -0.00000000000E+00 -0.45593999997E+02  0.45594000000E+02  0.51100000000E-03 0. -1.
    9900012    2    1    2    0    0 -0.15661969852E+02  0.61346929122E+01 -0.41787351888E+02  0.46142306148E+02  0.99998941011E+01 0.  0.
        -12    1    1    2    0    0  0.15661969852E+02 -0.61346929122E+01  0.41787351888E+02  0.45045693852E+02  0.00000000000E+00 0.  1.
         11    1    3    3    0    0 -0.63539603557E+01 -0.14635248112E+01 -0.89852580083E+01  0.11101782686E+02  0.51100000000E-03 0. -1.
        -11    1    3    3    0    0 -0.48218868536E+01  0.29593430598E+01 -0.18592035659E+02  0.19433787443E+02  0.51100000000E-03 0.  1.
         12    1    3    3    0    0 -0.44861226429E+01  0.46388746636E+01 -0.14210058221E+02  0.15606736018E+02  0.00000000000E+00 0. -1.
</event>
<event>
 7    1  0.1486782E-008  0.4614232E+02  0.7816164E-02  0.1320468E+00
        -11   -1    0    0    0    0  0.00000000000E+00  0.00000000000E+00  0.45593999997E+02  0.45594000000E+02  0.51100000000E-03 0.  1.
         11   -1    0    0    0    0 -0.00000000000E+00 -0.00000000000E+00 -0.45593999997E+02  0.45594000000E+02  0.51100000000E-03 0. -1.
    9900012    2    1    2    0    0 -0.14649395938E+02  0.38976961280E+02 -0.17184444960E+02  0.46142318070E+02  0.10000002815E+02 0.  0.
        -12    1    1    2    0    0  0.14649395938E+02 -0.38976961280E+02  0.17184444960E+02  0.45045681930E+02  0.00000000000E+00 0.  1.
         11    1    3    3    0    0 -0.26126885781E+01  0.18680373266E+01 -0.31691751070E+01  0.45121365427E+01  0.51100000000E-03 0. -1.
        -11    1    3    3    0    0 -0.41705558275E+01  0.15426306585E+02 -0.39299903884E+01  0.16456284376E+02  0.51100000000E-03 0.  1.
         12    1    3    3    0    0 -0.78661515324E+01  0.21682617369E+02 -0.10085279465E+02  0.25173897151E+02  0.00000000000E+00 0. -1.
</event>
<event>
 7    1  0.1486782E-008  0.4614232E+02  0.7816164E-02  0.1320468E+00
        -11   -1    0    0    0    0  0.00000000000E+00  0.00000000000E+00  0.45593999997E+02  0.45594000000E+02  0.51100000000E-03 0.  1.
         11   -1    0    0    0    0 -0.00000000000E+00 -0.00000000000E+00 -0.45593999997E+02  0.45594000000E+02  0.51100000000E-03 0. -1.
    9900012    2    1    2    0    0 -0.22566440534E+01 -0.30250796525E+01 -0.44887303853E+02  0.46142316561E+02  0.99999890538E+01 0.  0.
        -12    1    1    2    0    0  0.22566440534E+01  0.30250796525E+01  0.44887303853E+02  0.45045683439E+02  0.00000000000E+00 0.  1.
         11    1    3    3    0    0 -0.28771374049E+01 -0.52534607688E+01 -0.24253679735E+02  0.24982348782E+02  0.51100000000E-03 0. -1.
        -11    1    3    3    0    0  0.17986578470E+01  0.27897164994E+01 -0.13089990183E+02  0.13504278265E+02  0.51100000000E-03 0.  1.
        -12    1    3    3    0    0 -0.11781644955E+01 -0.56133538306E+00 -0.75436339347E+01  0.76556895138E+01  0.00000000000E+00 0.  1.
</event>
<event>
 7    1  0.1486782E-008  0.4614231E+02  0.7816164E-02  0.1320468E+00
        -11   -1    0    0    0    0  0.00000000000E+00  0.00000000000E+00  0.45593999997E+02  0.45594000000E+02  0.51100000000E-03 0. -1.
         11   -1    0    0    0    0 -0.00000000000E+00 -0.00000000000E+00 -0.45593999997E+02  0.45594000000E+02  0.51100000000E-03 0.  1.
    9900012    2    1    2    0    0  0.17048428582E+02  0.34842513389E+02  0.22901188862E+02  0.46142310887E+02  0.99999373141E+01 0.  0.
        -12    1    1    2    0    0 -0.17048428582E+02 -0.34842513389E+02 -0.22901188862E+02  0.45045689113E+02  0.00000000000E+00 0.  1.
         11    1    3    3    0    0  0.83999022063E+01  0.20968469759E+02  0.12617817700E+02  0.25873623729E+02  0.51100000000E-03 0. -1.
        -11    1    3    3    0    0  0.11803617232E+01  0.48292438708E+01  0.59754498322E+01  0.77730850451E+01  0.51100000000E-03 0.  1.
         12    1    3    3    0    0  0.74681646529E+01  0.90447997589E+01  0.43079213300E+01  0.12495602112E+02  0.00000000000E+00 0. -1.
</event>
<event>
 7    1  0.1486782E-008  0.4614232E+02  0.7816164E-02  0.1320468E+00
        -11   -1    0    0    0    0  0.00000000000E+00  0.00000000000E+00  0.45593999997E+02  0.45594000000E+02  0.51100000000E-03 0.  1.
         11   -1    0    0    0    0 -0.00000000000E+00 -0.00000000000E+00 -0.45593999997E+02  0.45594000000E+02  0.51100000000E-03 0. -1.
    9900012    2    1    2    0    0 -0.31168081522E+02 -0.25788635696E+02 -0.19814401058E+02  0.46142317342E+02  0.99999961786E+01 0.  0.
        -12    1    1    2    0    0  0.31168081522E+02  0.25788635696E+02  0.19814401058E+02  0.45045682658E+02  0.00000000000E+00 0.  1.
         11    1    3    3    0    0 -0.19638311875E+02 -0.12441007224E+02 -0.89428957525E+01  0.24908178150E+02  0.51100000000E-03 0. -1.
        -11    1    3    3    0    0 -0.41361480848E+01 -0.81481872635E+01 -0.63494268794E+01  0.11127259259E+02  0.51100000000E-03 0.  1.
        -12    1    3    3    0    0 -0.73936215625E+01 -0.51994412085E+01 -0.45220784260E+01  0.10106879933E+02  0.00000000000E+00 0.  1.
</event>
<event>
 7    1  0.1486782E-008  0.4614232E+02  0.7816164E-02  0.1320468E+00
        -11   -1    0    0    0    0  0.00000000000E+00  0.00000000000E+00  0.45593999997E+02  0.45594000000E+02  0.51100000000E-03 0. -1.
         11   -1    0    0    0    0 -0.00000000000E+00 -0.00000000000E+00 -0.45593999997E+02  0.45594000000E+02  0.51100000000E-03 0.  1.
    9900012    2    1    2    0    0 -0.26598049122E+02 -0.21494890260E+02  0.29319397046E+02  0.46142316882E+02  0.99999919811E+01 0.  0.
        -12    1    1    2    0    0  0.26598049122E+02  0.21494890260E+02 -0.29319397046E+02  0.45045683118E+02  0.00000000000E+00 0.  1.
         11    1    3    3    0    0 -0.12630874534E+02 -0.13645204830E+02  0.17381674149E+02  0.25452960590E+02  0.51100000000E-03 0. -1.
        -11    1    3    3    0    0 -0.61711683445E+01 -0.72930586579E+00  0.32294832270E+01  0.70031969811E+01  0.51100000000E-03 0.  1.
        -12    1    3    3    0    0 -0.77960062441E+01 -0.71203795647E+01  0.87082396709E+01  0.13686159310E+02  0.00000000000E+00 0.  1.
</event>
<event>
 7    1  0.1486782E-008  0.4614232E+02  0.7816164E-02  0.1320468E+00
        -11   -1    0    0    0    0  0.00000000000E+00  0.00000000000E+00  0.45593999997E+02  0.45594000000E+02  0.51100000000E-03 0.  1.
         11   -1    0    0    0    0 -0.00000000000E+00 -0.00000000000E+00 -0.45593999997E+02  0.45594000000E+02  0.51100000000E-03 0. -1.
    9900012    2    1    2    0    0 -0.27690158741E+02  0.28771752964E+02 -0.20845983568E+02  0.46142315516E+02  0.99999795267E+01 0.  0.
        -12    1    1    2    0    0  0.27690158741E+02 -0.28771752964E+02  0.20845983568E+02  0.45045684484E+02  0.00000000000E+00 0.  1.
         11    1    3    3    0    0 -0.17028139807E+01  0.25400293274E+01 -0.48757311628E+01  0.57553522108E+01  0.51100000000E-03 0. -1.
        -11    1    3    3    0    0 -0.92951296750E+01  0.85152011682E+01 -0.37598181754E+01  0.13154631108E+02  0.51100000000E-03 0.  1.
         12    1    3    3    0    0 -0.16692215085E+02  0.17716522469E+02 -0.12210434230E+02  0.27232332197E+02  0.00000000000E+00 0. -1.
</event>
<event>
 7    1  0.1486782E-008  0.4614232E+02  0.7816164E-02  0.1320468E+00
        -11   -1    0    0    0    0  0.00000000000E+00  0.00000000000E+00  0.45593999997E+02  0.45594000000E+02  0.51100000000E-03 0.  1.
         11   -1    0    0    0    0 -0.00000000000E+00 -0.00000000000E+00 -0.45593999997E+02  0.45594000000E+02  0.51100000000E-03 0. -1.
    9900012    2    1    2    0    0  0.32999683377E+02  0.15419395504E+02 -0.26502388835E+02  0.46142317913E+02  0.10000001389E+02 0.  0.
        -12    1    1    2    0    0 -0.32999683377E+02 -0.15419395504E+02  0.26502388835E+02  0.45045682087E+02  0.00000000000E+00 0.  1.
         11    1    3    3    0    0  0.98686593835E+01  0.28415862566E+01 -0.58743492913E+01  0.11831019835E+02  0.51100000000E-03 0. -1.
        -11    1    3    3    0    0  0.25712563303E+01  0.21206375417E+01 -0.63831459160E+01  0.72009037451E+01  0.51100000000E-03 0.  1.
        -12    1    3    3    0    0  0.20559767664E+02  0.10457171705E+02 -0.14244893627E+02  0.27110394333E+02  0.00000000000E+00 0.  1.
</event>
<event>
 7    1  0.1486782E-008  0.4614232E+02  0.7816164E-02  0.1320468E+00
        -11   -1    0    0    0    0  0.00000000000E+00  0.00000000000E+00  0.45593999997E+02  0.45594000000E+02  0.51100000000E-03 0.  1.
         11   -1    0    0    0    0 -0.00000000000E+00 -0.00000000000E+00 -0.45593999997E+02  0.45594000000E+02  0.51100000000E-03 0. -1.
    9900012    2    1    2    0    0 -0.26128055924E+02 -0.49237493151E+00 -0.36690539361E+02  0.46142318542E+02  0.10000007119E+02 0.  0.
        -12    1    1    2    0    0  0.26128055924E+02  0.49237493151E+00  0.36690539361E+02  0.45045681458E+02  0.00000000000E+00 0.  1.
         11    1    3    3    0    0 -0.65388476453E+01  0.10004531455E+01 -0.45487679472E+01  0.80279963331E+01  0.51100000000E-03 0.  1.
        -11    1    3    3    0    0 -0.18488582606E+02 -0.37852260308E+00 -0.31251090767E+02  0.36312554861E+02  0.51100000000E-03 0. -1.
        -12    1    3    3    0    0 -0.11006256729E+01 -0.11143054740E+01 -0.89068064628E+00  0.18017673476E+01  0.00000000000E+00 0.  1.
</event>
<event>
 7    1  0.1486782E-008  0.4614232E+02  0.7816164E-02  0.1320468E+00
        -11   -1    0    0    0    0  0.00000000000E+00  0.00000000000E+00  0.45593999997E+02  0.45594000000E+02  0.51100000000E-03 0.  1.
         11   -1    0    0    0    0 -0.00000000000E+00 -0.00000000000E+00 -0.45593999997E+02  0.45594000000E+02  0.51100000000E-03 0. -1.
    9900012    2    1    2    0    0 -0.39381918361E+02  0.11001043207E+02 -0.18898545944E+02  0.46142317807E+02  0.10000000418E+02 0.  0.
        -12    1    1    2    0    0  0.39381918361E+02 -0.11001043207E+02  0.18898545944E+02  0.45045682193E+02  0.00000000000E+00 0.  1.
         11    1    3    3    0    0 -0.14008503692E+02  0.73936044333E+01 -0.87552302470E+01  0.18098552957E+02  0.51100000000E-03 0. -1.
        -11    1    3    3    0    0 -0.22015708199E+00 -0.27033222353E+00 -0.90274969771E+00  0.96773236469E+00  0.51100000000E-03 0.  1.
         12    1    3    3    0    0 -0.25153257587E+02  0.38777709970E+01 -0.92405659995E+01  0.27076032485E+02  0.00000000000E+00 0. -1.
</event>
<event>
 7    1  0.1486782E-008  0.4614232E+02  0.7816164E-02  0.1320468E+00
        -11   -1    0    0    0    0  0.00000000000E+00  0.00000000000E+00  0.45593999997E+02  0.45594000000E+02  0.51100000000E-03 0. -1.
         11   -1    0    0    0    0 -0.00000000000E+00 -0.00000000000E+00 -0.45593999997E+02  0.45594000000E+02  0.51100000000E-03 0.  1.
    9900012    2    1    2    0    0  0.44340539670E+01  0.43149879121E+02  0.12146629054E+02  0.46142317631E+02  0.99999988119E+01 0.  0.
        -12    1    1    2    0    0 -0.44340539670E+01 -0.43149879121E+02 -0.12146629054E+02  0.45045682369E+02  0.00000000000E+00 0.  1.
         11    1    3    3    0    0  0.62315263806E+01  0.34175108955E+02  0.10596756715E+02  0.36318882778E+02  0.51100000000E-03 0. -1.
        -11    1    3    3    0    0 -0.16305878257E+01  0.16777522127E+01  0.85734652377E+00  0.24917288110E+01  0.51100000000E-03 0.  1.
        -12    1    3    3    0    0 -0.16688458790E+00  0.72970179538E+01  0.69252581495E+00  0.73317060421E+01  0.00000000000E+00 0.  1.
</event>
<event>
 7    1  0.1486782E-008  0.4614232E+02  0.7816164E-02  0.1320468E+00
        -11   -1    0    0    0    0  0.00000000000E+00  0.00000000000E+00  0.45593999997E+02  0.45594000000E+02  0.51100000000E-03 0.  1.
         11   -1    0    0    0    0 -0.00000000000E+00 -0.00000000000E+00 -0.45593999997E+02  0.45594000000E+02  0.51100000000E-03 0. -1.
    9900012    2    1    2    0    0 -0.16191451977E+02 -0.90409501466E+01 -0.41051328103E+02  0.46142318346E+02  0.10000005331E+02 0.  0.
        -12    1    1    2    0    0  0.16191451977E+02  0.90409501466E+01  0.41051328103E+02  0.45045681654E+02  0.00000000000E+00 0.  1.
         11    1    3    3    0    0 -0.11334869266E+02 -0.52318551150E+01 -0.27216194038E+02  0.29942825307E+02  0.51100000000E-03 0.  1.
        -11    1    3    3    0    0  0.69750329770E+00  0.36281537303E+00 -0.44741472045E+01  0.45427017637E+01  0.51100000000E-03 0. -1.
        -12    1    3    3    0    0 -0.55540860088E+01 -0.41719104046E+01 -0.93609868605E+01  0.11656791275E+02  0.00000000000E+00 0.  1.
</event>
<event>
 7    1  0.1486782E-008  0.4614232E+02  0.7816164E-02  0.1320468E+00
        -11   -1    0    0    0    0  0.00000000000E+00  0.00000000000E+00  0.45593999997E+02  0.45594000000E+02  0.51100000000E-03 0.  1.
         11   -1    0    0    0    0 -0.00000000000E+00 -0.00000000000E+00 -0.45593999997E+02  0.45594000000E+02  0.51100000000E-03 0. -1.
    9900012    2    1    2    0    0  0.12467041714E+02 -0.40824023484E+01 -0.43093158551E+02  0.46142318165E+02  0.10000003683E+02 0.  0.
        -12    1    1    2    0    0 -0.12467041714E+02  0.40824023484E+01  0.43093158551E+02  0.45045681835E+02  0.00000000000E+00 0.  1.
         11    1    3    3    0    0  0.97814663390E+01 -0.57556093113E+01 -0.26445958442E+02  0.28778339780E+02  0.51100000000E-03 0. -1.
        -11    1    3    3    0    0  0.22816973842E+01 -0.66017070858E+00 -0.59249008252E+01  0.63832921261E+01  0.51100000000E-03 0.  1.
         12    1    3    3    0    0  0.40387799098E+00  0.23333776714E+01 -0.10722299284E+02  0.10980686259E+02  0.00000000000E+00 0. -1.
</event>
<event>
 7    1  0.1486782E-008  0.4614232E+02  0.7816164E-02  0.1320468E+00
        -11   -1    0    0    0    0  0.00000000000E+00  0.00000000000E+00  0.45593999997E+02  0.45594000000E+02  0.51100000000E-03 0.  1.
         11   -1    0    0    0    0 -0.00000000000E+00 -0.00000000000E+00 -0.45593999997E+02  0.45594000000E+02  0.51100000000E-03 0. -1.
    9900012    2    1    2    0    0 -0.16205489585E+02 -0.16050956942E+02 -0.38844078230E+02  0.46142317355E+02  0.99999962942E+01 0.  0.
        -12    1    1    2    0    0  0.16205489585E+02  0.16050956942E+02  0.38844078230E+02  0.45045682645E+02  0.00000000000E+00 0.  1.
         11    1    3    3    0    0 -0.61126545833E+01 -0.75418466986E+01 -0.16534645571E+02  0.19173901588E+02  0.51100000000E-03 0. -1.
        -11    1    3    3    0    0  0.12115672899E+01 -0.75730181005E+00 -0.17586019390E+01  0.22658513566E+01  0.51100000000E-03 0.  1.
        -12    1    3    3    0    0 -0.11304402292E+02 -0.77518084338E+01 -0.20550830720E+02  0.24702564410E+02  0.00000000000E+00 0.  1.
</event>
<event>
 7    1  0.1486782E-008  0.4614232E+02  0.7816164E-02  0.1320468E+00
        -11   -1    0    0    0    0  0.00000000000E+00  0.00000000000E+00  0.45593999997E+02  0.45594000000E+02  0.51100000000E-03 0.  1.
         11   -1    0    0    0    0 -0.00000000000E+00 -0.00000000000E+00 -0.45593999997E+02  0.45594000000E+02  0.51100000000E-03 0. -1.
    9900012    2    1    2    0    0  0.29528388244E+02  0.29712841628E+02 -0.16563056276E+02  0.46142317598E+02  0.99999985114E+01 0.  0.
        -12    1    1    2    0    0 -0.29528388244E+02 -0.29712841628E+02  0.16563056276E+02  0.45045682402E+02  0.00000000000E+00 0.  1.
         11    1    3    3    0    0  0.92514883750E+01  0.11866350090E+02 -0.95094706483E+01  0.17799728478E+02  0.51100000000E-03 0. -1.
        -11    1    3    3    0    0  0.12171640649E+02  0.12871262894E+02 -0.28423203358E+01  0.17941489061E+02  0.51100000000E-03 0.  1.
         12    1    3    3    0    0  0.81052592202E+01  0.49752286435E+01 -0.42112652916E+01  0.10401100059E+02  0.00000000000E+00 0. -1.
</event>
<event>
 7    1  0.1486782E-008  0.4614232E+02  0.7816164E-02  0.1320468E+00
        -11   -1    0    0    0    0  0.00000000000E+00  0.00000000000E+00  0.45593999997E+02  0.45594000000E+02  0.51100000000E-03 0.  1.
         11   -1    0    0    0    0 -0.00000000000E+00 -0.00000000000E+00 -0.45593999997E+02  0.45594000000E+02  0.51100000000E-03 0. -1.
    9900012    2    1    2    0    0 -0.14721963143E+02 -0.21168894555E+01 -0.42519361459E+02  0.46142317425E+02  0.99999969340E+01 0.  0.
        -12    1    1    2    0    0  0.14721963143E+02  0.21168894555E+01  0.42519361459E+02  0.45045682575E+02  0.00000000000E+00 0.  1.
         11    1    3    3    0    0 -0.22442241277E+00  0.20138482890E+01 -0.82933541845E+01  0.85373107149E+01  0.51100000000E-03 0. -1.
        -11    1    3    3    0    0 -0.67686825162E+01 -0.10301220948E+00 -0.12936546242E+02  0.14600681609E+02  0.51100000000E-03 0.  1.
         12    1    3    3    0    0 -0.77288582143E+01 -0.40277255350E+01 -0.21289461033E+02  0.23004325101E+02  0.00000000000E+00 0. -1.
</event>
<event>
 7    1  0.1486782E-008  0.4614232E+02  0.7816164E-02  0.1320468E+00
        -11   -1    0    0    0    0  0.00000000000E+00  0.00000000000E+00  0.45593999997E+02  0.45594000000E+02  0.51100000000E-03 0.  1.
         11   -1    0    0    0    0 -0.00000000000E+00 -0.00000000000E+00 -0.45593999997E+02  0.45594000000E+02  0.51100000000E-03 0. -1.
    9900012    2    1    2    0    0 -0.28301714783E+02 -0.30026304279E+02  0.18070624861E+02  0.46142317730E+02  0.99999997153E+01 0.  0.
        -12    1    1    2    0    0  0.28301714783E+02  0.30026304279E+02 -0.18070624861E+02  0.45045682270E+02  0.00000000000E+00 0.  1.
         11    1    3    3    0    0 -0.23870941074E+01 -0.21789523646E+00  0.53899699976E+00  0.24568709039E+01  0.51100000000E-03 0. -1.
        -11    1    3    3    0    0 -0.16431517490E+02 -0.17491706796E+02  0.13857979061E+02  0.27712779680E+02  0.51100000000E-03 0.  1.
         12    1    3    3    0    0 -0.94831031858E+01 -0.12316702246E+02  0.36736488004E+01  0.15972667146E+02  0.00000000000E+00 0. -1.
</event>
<event>
 7    1  0.1486782E-008  0.4614232E+02  0.7816164E-02  0.1320468E+00
        -11   -1    0    0    0    0  0.00000000000E+00  0.00000000000E+00  0.45593999997E+02  0.45594000000E+02  0.51100000000E-03 0.  1.
         11   -1    0    0    0    0 -0.00000000000E+00 -0.00000000000E+00 -0.45593999997E+02  0.45594000000E+02  0.51100000000E-03 0. -1.
    9900012    2    1    2    0    0  0.46174759556E+01  0.28735117280E+02 -0.34381468351E+02  0.46142318573E+02  0.10000007402E+02 0.  0.
        -12    1    1    2    0    0 -0.46174759556E+01 -0.28735117280E+02  0.34381468351E+02  0.45045681427E+02  0.00000000000E+00 0.  1.
         11    1    3    3    0    0  0.32497467500E+00  0.87942710275E+00 -0.37032261159E+01  0.38200634150E+01  0.51100000000E-03 0. -1.
        -11    1    3    3    0    0 -0.21480644538E+01  0.64414487148E+01 -0.68866803516E+01  0.96712361655E+01  0.51100000000E-03 0.  1.
         12    1    3    3    0    0  0.64405657344E+01  0.21414241462E+02 -0.23791561883E+02  0.32651018992E+02  0.00000000000E+00 0. -1.
</event>
<event>
 7    1  0.1486782E-008  0.4614232E+02  0.7816164E-02  0.1320468E+00
        -11   -1    0    0    0    0  0.00000000000E+00  0.00000000000E+00  0.45593999997E+02  0.45594000000E+02  0.51100000000E-03 0.  1.
         11   -1    0    0    0    0 -0.00000000000E+00 -0.00000000000E+00 -0.45593999997E+02  0.45594000000E+02  0.51100000000E-03 0. -1.
    9900012    2    1    2    0    0  0.33269628721E+02 -0.34006616741E+01 -0.30177488105E+02  0.46142317816E+02  0.10000000501E+02 0.  0.
        -12    1    1    2    0    0 -0.33269628721E+02  0.34006616741E+01  0.30177488105E+02  0.45045682184E+02  0.00000000000E+00 0.  1.
         11    1    3    3    0    0  0.53010635873E+01  0.68336599060E-01 -0.82107424407E+01  0.97735478070E+01  0.51100000000E-03 0. -1.
        -11    1    3    3    0    0  0.10741597760E+02 -0.12800951346E+01 -0.12709724791E+02  0.16690047050E+02  0.51100000000E-03 0.  1.
         12    1    3    3    0    0  0.17226967374E+02 -0.21889031386E+01 -0.92570208733E+01  0.19678722959E+02  0.00000000000E+00 0. -1.
</event>
<event>
 7    1  0.1486782E-008  0.4614232E+02  0.7816164E-02  0.1320468E+00
        -11   -1    0    0    0    0  0.00000000000E+00  0.00000000000E+00  0.45593999997E+02  0.45594000000E+02  0.51100000000E-03 0. -1.
         11   -1    0    0    0    0 -0.00000000000E+00 -0.00000000000E+00 -0.45593999997E+02  0.45594000000E+02  0.51100000000E-03 0.  1.
    9900012    2    1    2    0    0  0.13416721051E+02  0.42997840037E+02  0.53930487306E+00  0.46142317617E+02  0.99999986837E+01 0.  0.
        -12    1    1    2    0    0 -0.13416721051E+02 -0.42997840037E+02 -0.53930487306E+00  0.45045682383E+02  0.00000000000E+00 0.  1.
         11    1    3    3    0    0 -0.12377708540E+00  0.25556935234E+00  0.63055635953E+00  0.69154757204E+00  0.51100000000E-03 0. -1.
        -11    1    3    3    0    0  0.13695807714E+01  0.12723510024E+01  0.11842109618E+01  0.22129131085E+01  0.51100000000E-03 0.  1.
         12    1    3    3    0    0  0.12170917365E+02  0.41469919682E+02 -0.12754624483E+01  0.43237856936E+02  0.00000000000E+00 0. -1.
</event>
<event>
 7    1  0.1486782E-008  0.4614232E+02  0.7816164E-02  0.1320468E+00
        -11   -1    0    0    0    0  0.00000000000E+00  0.00000000000E+00  0.45593999997E+02  0.45594000000E+02  0.51100000000E-03 0.  1.
         11   -1    0    0    0    0 -0.00000000000E+00 -0.00000000000E+00 -0.45593999997E+02  0.45594000000E+02  0.51100000000E-03 0. -1.
    9900012    2    1    2    0    0  0.10112749717E+02  0.26005696329E+02 -0.35363109730E+02  0.46142317874E+02  0.10000001030E+02 0.  0.
        -12    1    1    2    0    0 -0.10112749717E+02 -0.26005696329E+02  0.35363109730E+02  0.45045682126E+02  0.00000000000E+00 0.  1.
         11    1    3    3    0    0  0.34032066355E+01  0.15573111838E+02 -0.19934308489E+02  0.25524111795E+02  0.51100000000E-03 0. -1.
        -11    1    3    3    0    0  0.76156204632E+01  0.98770701300E+01 -0.13265348884E+02  0.18207791482E+02  0.51100000000E-03 0.  1.
         12    1    3    3    0    0 -0.90607738138E+00  0.55551436121E+00 -0.21634523577E+01  0.24104145972E+01  0.00000000000E+00 0. -1.
</event>
<event>
 7    1  0.1486782E-008  0.4614232E+02  0.7816164E-02  0.1320468E+00
        -11   -1    0    0    0    0  0.00000000000E+00  0.00000000000E+00  0.45593999997E+02  0.45594000000E+02  0.51100000000E-03 0.  1.
         11   -1    0    0    0    0 -0.00000000000E+00 -0.00000000000E+00 -0.45593999997E+02  0.45594000000E+02  0.51100000000E-03 0. -1.
    9900012    2    1    2    0    0  0.85740291885E+01  0.25786768177E+02 -0.35925504568E+02  0.46142320208E+02  0.10000022309E+02 0.  0.
        -12    1    1    2    0    0 -0.85740291885E+01 -0.25786768177E+02  0.35925504568E+02  0.45045679792E+02  0.00000000000E+00 0.  1.
         11    1    3    3    0    0  0.43225415959E+01  0.44459855832E+01 -0.80426676692E+01  0.10155572714E+02  0.51100000000E-03 0. -1.
        -11    1    3    3    0    0  0.48444120055E+01  0.18231737087E+02 -0.26509858918E+02  0.32536705196E+02  0.51100000000E-03 0.  1.
        -12    1    3    3    0    0 -0.59292441297E+00  0.31090455064E+01 -0.13729779805E+01  0.34500422976E+01  0.00000000000E+00 0.  1.
</event>
<event>
 7    1  0.1486782E-008  0.4614232E+02  0.7816164E-02  0.1320468E+00
        -11   -1    0    0    0    0  0.00000000000E+00  0.00000000000E+00  0.45593999997E+02  0.45594000000E+02  0.51100000000E-03 0. -1.
         11   -1    0    0    0    0 -0.00000000000E+00 -0.00000000000E+00 -0.45593999997E+02  0.45594000000E+02  0.51100000000E-03 0.  1.
    9900012    2    1    2    0    0  0.10546289952E+02  0.43754378610E+02 -0.18556872394E+01  0.46142318138E+02  0.10000003433E+02 0.  0.
        -12    1    1    2    0    0 -0.10546289952E+02 -0.43754378610E+02  0.18556872394E+01  0.45045681862E+02  0.00000000000E+00 0.  1.
         11    1    3    3    0    0  0.84446096221E+01  0.26624415199E+02 -0.20549901769E+01  0.28007033068E+02  0.51100000000E-03 0. -1.
        -11    1    3    3    0    0 -0.12878139757E+01  0.77621411028E+01  0.17300479857E+01  0.80562004462E+01  0.51100000000E-03 0.  1.
        -12    1    3    3    0    0  0.33894943055E+01  0.93678223085E+01 -0.15307450482E+01  0.10079084624E+02  0.00000000000E+00 0.  1.
</event>
<event>
 7    1  0.1486782E-008  0.4614232E+02  0.7816164E-02  0.1320468E+00
        -11   -1    0    0    0    0  0.00000000000E+00  0.00000000000E+00  0.45593999997E+02  0.45594000000E+02  0.51100000000E-03 0.  1.
         11   -1    0    0    0    0 -0.00000000000E+00 -0.00000000000E+00 -0.45593999997E+02  0.45594000000E+02  0.51100000000E-03 0. -1.
    9900012    2    1    2    0    0 -0.21391266873E+02  0.39640519397E+02  0.39535198836E+00  0.46142318968E+02  0.10000011002E+02 0.  0.
        -12    1    1    2    0    0  0.21391266873E+02 -0.39640519397E+02 -0.39535198836E+00  0.45045681032E+02  0.00000000000E+00 0.  1.
         11    1    3    3    0    0 -0.10905252938E+02  0.23344015315E+02  0.31924275731E+00  0.25767605804E+02  0.51100000000E-03 0.  1.
        -11    1    3    3    0    0 -0.87432166576E+01  0.14576040167E+02  0.21924433428E+01  0.17138016004E+02  0.51100000000E-03 0. -1.
        -12    1    3    3    0    0 -0.17427972776E+01  0.17204639142E+01 -0.21163341117E+01  0.32366971596E+01  0.00000000000E+00 0.  1.
</event>
<event>
 7    1  0.1486782E-008  0.4614232E+02  0.7816164E-02  0.1320468E+00
        -11   -1    0    0    0    0  0.00000000000E+00  0.00000000000E+00  0.45593999997E+02  0.45594000000E+02  0.51100000000E-03 0.  1.
         11   -1    0    0    0    0 -0.00000000000E+00 -0.00000000000E+00 -0.45593999997E+02  0.45594000000E+02  0.51100000000E-03 0. -1.
    9900012    2    1    2    0    0  0.85953448453E+01 -0.46944075064E+01 -0.43968125654E+02  0.46142317761E+02  0.10000000001E+02 0.  0.
        -12    1    1    2    0    0 -0.85953448453E+01  0.46944075064E+01  0.43968125654E+02  0.45045682239E+02  0.00000000000E+00 0.  1.
         11    1    3    3    0    0 -0.30024807007E+00 -0.20761607068E+01 -0.17595012022E+02  0.17719623035E+02  0.51100000000E-03 0. -1.
        -11    1    3    3    0    0  0.62652171715E+01 -0.91307849253E+00 -0.10647856160E+02  0.12388038570E+02  0.51100000000E-03 0.  1.
        -12    1    3    3    0    0  0.26303757439E+01 -0.17051683071E+01 -0.15725257472E+02  0.16034656157E+02  0.00000000000E+00 0.  1.
</event>
<event>
 7    1  0.1486782E-008  0.4614232E+02  0.7816164E-02  0.1320468E+00
        -11   -1    0    0    0    0  0.00000000000E+00  0.00000000000E+00  0.45593999997E+02  0.45594000000E+02  0.51100000000E-03 0. -1.
         11   -1    0    0    0    0 -0.00000000000E+00 -0.00000000000E+00 -0.45593999997E+02  0.45594000000E+02  0.51100000000E-03 0.  1.
    9900012    2    1    2    0    0  0.39445826474E+02  0.10575581811E+02  0.19007824429E+02  0.46142317117E+02  0.99999941303E+01 0.  0.
        -12    1    1    2    0    0 -0.39445826474E+02 -0.10575581811E+02 -0.19007824429E+02  0.45045682883E+02  0.00000000000E+00 0.  1.
         11    1    3    3    0    0  0.12036277709E+02  0.12300879623E+00  0.65398565306E+01  0.13698789580E+02  0.51100000000E-03 0.  1.
        -11    1    3    3    0    0  0.26853939486E+02  0.10259265733E+02  0.10857548516E+02  0.30729024705E+02  0.51100000000E-03 0. -1.
         12    1    3    3    0    0  0.55560927942E+00  0.19330728190E+00  0.16104193826E+01  0.17145028330E+01  0.00000000000E+00 0. -1.
</event>
<event>
 7    1  0.1486782E-008  0.4614232E+02  0.7816164E-02  0.1320468E+00
        -11   -1    0    0    0    0  0.00000000000E+00  0.00000000000E+00  0.45593999997E+02  0.45594000000E+02  0.51100000000E-03 0.  1.
         11   -1    0    0    0    0 -0.00000000000E+00 -0.00000000000E+00 -0.45593999997E+02  0.45594000000E+02  0.51100000000E-03 0. -1.
    9900012    2    1    2    0    0 -0.32497881967E+02  0.57844163037E+01 -0.30651944496E+02  0.46142317569E+02  0.99999982477E+01 0.  0.
        -12    1    1    2    0    0  0.32497881967E+02 -0.57844163037E+01  0.30651944496E+02  0.45045682431E+02  0.00000000000E+00 0.  1.
         11    1    3    3    0    0 -0.19858047562E+02  0.46336366480E+01 -0.19985328968E+02  0.28552163066E+02  0.51100000000E-03 0. -1.
        -11    1    3    3    0    0 -0.11168099877E+01  0.20232913764E+01 -0.27009410735E+01  0.35547229830E+01  0.51100000000E-03 0.  1.
        -12    1    3    3    0    0 -0.11523024418E+02 -0.87251172072E+00 -0.79656744542E+01  0.14035431520E+02  0.00000000000E+00 0.  1.
</event>
<event>
 7    1  0.1486782E-008  0.4614232E+02  0.7816164E-02  0.1320468E+00
        -11   -1    0    0    0    0  0.00000000000E+00  0.00000000000E+00  0.45593999997E+02  0.45594000000E+02  0.51100000000E-03 0. -1.
         11   -1    0    0    0    0 -0.00000000000E+00 -0.00000000000E+00 -0.45593999997E+02  0.45594000000E+02  0.51100000000E-03 0.  1.
    9900012    2    1    2    0    0 -0.21348475834E+02 -0.38158564183E+02  0.10829602225E+02  0.46142315131E+02  0.99999760138E+01 0.  0.
        -12    1    1    2    0    0  0.21348475834E+02  0.38158564183E+02 -0.10829602225E+02  0.45045684869E+02  0.00000000000E+00 0.  1.
         11    1    3    3    0    0 -0.15898429046E+02 -0.28903868259E+02  0.77590378441E+01  0.33887996621E+02  0.51100000000E-03 0. -1.
        -11    1    3    3    0    0 -0.53391959200E+00  0.58350493798E+00 -0.12645018551E+00  0.80096070684E+00  0.51100000000E-03 0.  1.
        -12    1    3    3    0    0 -0.49161271965E+01 -0.98382008620E+01  0.31970145665E+01  0.11453357802E+02  0.00000000000E+00 0.  1.
</event>
<event>
 7    1  0.1486782E-008  0.4614232E+02  0.7816164E-02  0.1320468E+00
        -11   -1    0    0    0    0  0.00000000000E+00  0.00000000000E+00  0.45593999997E+02  0.45594000000E+02  0.51100000000E-03 0. -1.
         11   -1    0    0    0    0 -0.00000000000E+00 -0.00000000000E+00 -0.45593999997E+02  0.45594000000E+02  0.51100000000E-03 0.  1.
    9900012    2    1    2    0    0  0.27168136617E+02 -0.31831452438E+02 -0.16666268223E+02  0.46142317543E+02  0.99999980099E+01 0.  0.
        -12    1    1    2    0    0 -0.27168136617E+02  0.31831452438E+02  0.16666268223E+02  0.45045682457E+02  0.00000000000E+00 0.  1.
         11    1    3    3    0    0  0.28213054249E+01 -0.51634299461E+01 -0.84471603971E+00  0.59442677057E+01  0.51100000000E-03 0. -1.
        -11    1    3    3    0    0  0.12583432947E+02 -0.11789320163E+02 -0.11555117050E+02  0.20756964733E+02  0.51100000000E-03 0.  1.
         12    1    3    3    0    0  0.11763398246E+02 -0.14878702329E+02 -0.42664351329E+01  0.19441085104E+02  0.00000000000E+00 0. -1.
</event>
<event>
 7    1  0.1486782E-008  0.4614232E+02  0.7816164E-02  0.1320468E+00
        -11   -1    0    0    0    0  0.00000000000E+00  0.00000000000E+00  0.45593999997E+02  0.45594000000E+02  0.51100000000E-03 0.  1.
         11   -1    0    0    0    0 -0.00000000000E+00 -0.00000000000E+00 -0.45593999997E+02  0.45594000000E+02  0.51100000000E-03 0. -1.
    9900012    2    1    2    0    0  0.24975768297E+02 -0.36188900737E+02  0.97820186761E+01  0.46142318432E+02  0.10000006117E+02 0.  0.
        -12    1    1    2    0    0 -0.24975768297E+02  0.36188900737E+02 -0.97820186761E+01  0.45045681568E+02  0.00000000000E+00 0.  1.
         11    1    3    3    0    0  0.92941317346E+01 -0.15431689610E+02  0.27483792396E+01  0.18222829572E+02  0.51100000000E-03 0. -1.
        -11    1    3    3    0    0  0.36644111165E+01 -0.94215301039E+01  0.49899051947E+01  0.11273521741E+02  0.51100000000E-03 0.  1.
        -12    1    3    3    0    0  0.12017225445E+02 -0.11335681023E+02  0.20437342418E+01  0.16645967119E+02  0.00000000000E+00 0.  1.
</event>
<event>
 7    1  0.1486782E-008  0.4614232E+02  0.7816164E-02  0.1320468E+00
        -11   -1    0    0    0    0  0.00000000000E+00  0.00000000000E+00  0.45593999997E+02  0.45594000000E+02  0.51100000000E-03 0.  1.
         11   -1    0    0    0    0 -0.00000000000E+00 -0.00000000000E+00 -0.45593999997E+02  0.45594000000E+02  0.51100000000E-03 0. -1.
    9900012    2    1    2    0    0 -0.16588883259E+02  0.25705915871E+02 -0.33062489431E+02  0.46142319120E+02  0.10000012395E+02 0.  0.
        -12    1    1    2    0    0  0.16588883259E+02 -0.25705915871E+02  0.33062489431E+02  0.45045680880E+02  0.00000000000E+00 0.  1.
         11    1    3    3    0    0 -0.11725050078E+02  0.15869639811E+02 -0.23508266070E+02  0.30691380564E+02  0.51100000000E-03 0. -1.
        -11    1    3    3    0    0 -0.42639805859E+01  0.36745147567E+01 -0.27934377275E+01  0.62838589841E+01  0.51100000000E-03 0.  1.
         12    1    3    3    0    0 -0.59985259453E+00  0.61617613037E+01 -0.67607856333E+01  0.91670795720E+01  0.00000000000E+00 0. -1.
</event>
<event>
 7    1  0.1486782E-008  0.4614232E+02  0.7816164E-02  0.1320468E+00
        -11   -1    0    0    0    0  0.00000000000E+00  0.00000000000E+00  0.45593999997E+02  0.45594000000E+02  0.51100000000E-03 0.  1.
         11   -1    0    0    0    0 -0.00000000000E+00 -0.00000000000E+00 -0.45593999997E+02  0.45594000000E+02  0.51100000000E-03 0. -1.
    9900012    2    1    2    0    0 -0.84383387811E+01  0.16693282466E+02 -0.40978558984E+02  0.46142317218E+02  0.99999950480E+01 0.  0.
        -12    1    1    2    0    0  0.84383387811E+01 -0.16693282466E+02  0.40978558984E+02  0.45045682782E+02  0.00000000000E+00 0.  1.
         11    1    3    3    0    0 -0.25184781833E+01  0.48225503880E+01 -0.51205796340E+01  0.74712823969E+01  0.51100000000E-03 0. -1.
        -11    1    3    3    0    0 -0.11080653816E+01  0.19350183463E+01 -0.14073046736E+02  0.14248605180E+02  0.51100000000E-03 0.  1.
         12    1    3    3    0    0 -0.48117952162E+01  0.99357137314E+01 -0.21784932615E+02  0.24422429641E+02  0.00000000000E+00 0. -1.
</event>
<event>
 7    1  0.1486782E-008  0.4614232E+02  0.7816164E-02  0.1320468E+00
        -11   -1    0    0    0    0  0.00000000000E+00  0.00000000000E+00  0.45593999997E+02  0.45594000000E+02  0.51100000000E-03 0. -1.
         11   -1    0    0    0    0 -0.00000000000E+00 -0.00000000000E+00 -0.45593999997E+02  0.45594000000E+02  0.51100000000E-03 0.  1.
    9900012    2    1    2    0    0 -0.18066460700E+02 -0.21003500631E+02  0.35518580962E+02  0.46142316138E+02  0.99999852026E+01 0.  0.
        -12    1    1    2    0    0  0.18066460700E+02  0.21003500631E+02 -0.35518580962E+02  0.45045683862E+02  0.00000000000E+00 0.  1.
         11    1    3    3    0    0 -0.19809625276E+00  0.84541111212E+00  0.19897512600E+01  0.21709611723E+01  0.51100000000E-03 0. -1.
        -11    1    3    3    0    0 -0.15254935529E+02 -0.20192824580E+02  0.30620820111E+02  0.39725279698E+02  0.51100000000E-03 0.  1.
        -12    1    3    3    0    0 -0.26134289181E+01 -0.16560871631E+01  0.29080095909E+01  0.42460752681E+01  0.00000000000E+00 0.  1.
</event>
<event>
 7    1  0.1486782E-008  0.4614232E+02  0.7816164E-02  0.1320468E+00
        -11   -1    0    0    0    0  0.00000000000E+00  0.00000000000E+00  0.45593999997E+02  0.45594000000E+02  0.51100000000E-03 0.  1.
         11   -1    0    0    0    0 -0.00000000000E+00 -0.00000000000E+00 -0.45593999997E+02  0.45594000000E+02  0.51100000000E-03 0. -1.
    9900012    2    1    2    0    0  0.18451808913E+02 -0.41022147663E+02 -0.24140521908E+01  0.46142317643E+02  0.99999989229E+01 0.  0.
        -12    1    1    2    0    0 -0.18451808913E+02  0.41022147663E+02  0.24140521908E+01  0.45045682357E+02  0.00000000000E+00 0.  1.
         11    1    3    3    0    0  0.13310831278E+01 -0.43560586547E+01 -0.18934314967E+01  0.49327591053E+01  0.51100000000E-03 0. -1.
        -11    1    3    3    0    0  0.80808478752E+01 -0.15661409740E+02 -0.40201084207E+01  0.18075982114E+02  0.51100000000E-03 0.  1.
        -12    1    3    3    0    0  0.90398779101E+01 -0.21004679268E+02  0.34994877267E+01  0.23133576424E+02  0.00000000000E+00 0.  1.
</event>
<event>
 7    1  0.1486782E-008  0.4614232E+02  0.7816164E-02  0.1320468E+00
        -11   -1    0    0    0    0  0.00000000000E+00  0.00000000000E+00  0.45593999997E+02  0.45594000000E+02  0.51100000000E-03 0.  1.
         11   -1    0    0    0    0 -0.00000000000E+00 -0.00000000000E+00 -0.45593999997E+02  0.45594000000E+02  0.51100000000E-03 0. -1.
    9900012    2    1    2    0    0  0.21426081243E+02  0.86685645977E+01 -0.38663840528E+02  0.46142317254E+02  0.99999953801E+01 0.  0.
        -12    1    1    2    0    0 -0.21426081243E+02 -0.86685645977E+01  0.38663840528E+02  0.45045682746E+02  0.00000000000E+00 0.  1.
         11    1    3    3    0    0  0.12651135917E+02  0.21010851208E+01 -0.15143738068E+02  0.19844359440E+02  0.51100000000E-03 0. -1.
        -11    1    3    3    0    0  0.35484382285E+01  0.20538038806E+01 -0.13645783500E+02  0.14248401027E+02  0.51100000000E-03 0.  1.
        -12    1    3    3    0    0  0.52265070978E+01  0.45136755963E+01 -0.98743189604E+01  0.12049556787E+02  0.00000000000E+00 0.  1.
</event>
<event>
 7    1  0.1486782E-008  0.4614232E+02  0.7816164E-02  0.1320468E+00
        -11   -1    0    0    0    0  0.00000000000E+00  0.00000000000E+00  0.45593999997E+02  0.45594000000E+02  0.51100000000E-03 0.  1.
         11   -1    0    0    0    0 -0.00000000000E+00 -0.00000000000E+00 -0.45593999997E+02  0.45594000000E+02  0.51100000000E-03 0. -1.
    9900012    2    1    2    0    0 -0.79558266238E+01  0.41004728619E+02 -0.16865071024E+02  0.46142316888E+02  0.99999920391E+01 0.  0.
        -12    1    1    2    0    0  0.79558266238E+01 -0.41004728619E+02  0.16865071024E+02  0.45045683112E+02  0.00000000000E+00 0.  1.
         11    1    3    3    0    0 -0.85333321024E+01  0.32646822562E+02 -0.16554595718E+02  0.37585734260E+02  0.51100000000E-03 0. -1.
        -11    1    3    3    0    0  0.60430593427E+00  0.32857604107E+01 -0.87360911670E+00  0.34532014549E+01  0.51100000000E-03 0.  1.
         12    1    3    3    0    0 -0.26800455690E-01  0.50721456456E+01  0.56313381010E+00  0.51033811736E+01  0.00000000000E+00 0. -1.
</event>
<event>
 7    1  0.1486782E-008  0.4614232E+02  0.7816164E-02  0.1320468E+00
        -11   -1    0    0    0    0  0.00000000000E+00  0.00000000000E+00  0.45593999997E+02  0.45594000000E+02  0.51100000000E-03 0.  1.
         11   -1    0    0    0    0 -0.00000000000E+00 -0.00000000000E+00 -0.45593999997E+02  0.45594000000E+02  0.51100000000E-03 0. -1.
    9900012    2    1    2    0    0 -0.98854440857E+01 -0.70273687104E+01 -0.43382110687E+02  0.46142318260E+02  0.10000004546E+02 0.  0.
        -12    1    1    2    0    0  0.98854440857E+01  0.70273687104E+01  0.43382110687E+02  0.45045681740E+02  0.00000000000E+00 0.  1.
         11    1    3    3    0    0 -0.54627952160E+01  0.12030421351E+00 -0.25272688765E+02  0.25856631690E+02  0.51100000000E-03 0. -1.
        -11    1    3    3    0    0 -0.17128273300E+01 -0.58939320326E+01 -0.11583251420E+02  0.13108925432E+02  0.51100000000E-03 0.  1.
         12    1    3    3    0    0 -0.27098215397E+01 -0.12537408913E+01 -0.65261705019E+01  0.71767611372E+01  0.00000000000E+00 0. -1.
</event>
<event>
 7    1  0.1486782E-008  0.4614232E+02  0.7816164E-02  0.1320468E+00
        -11   -1    0    0    0    0  0.00000000000E+00  0.00000000000E+00  0.45593999997E+02  0.45594000000E+02  0.51100000000E-03 0. -1.
         11   -1    0    0    0    0 -0.00000000000E+00 -0.00000000000E+00 -0.45593999997E+02  0.45594000000E+02  0.51100000000E-03 0.  1.
    9900012    2    1    2    0    0 -0.38538045300E+02 -0.62067985678E+01  0.22481286808E+02  0.46142317181E+02  0.99999947133E+01 0.  0.
        -12    1    1    2    0    0  0.38538045300E+02  0.62067985678E+01 -0.22481286808E+02  0.45045682819E+02  0.00000000000E+00 0.  1.
         11    1    3    3    0    0 -0.61994723490E+01  0.21190729732E+00  0.21118601320E+01  0.65527334439E+01  0.51100000000E-03 0. -1.
        -11    1    3    3    0    0 -0.57115159590E+01  0.18370424121E+01  0.26623064767E+01  0.65638415132E+01  0.51100000000E-03 0.  1.
        -12    1    3    3    0    0 -0.26627056992E+02 -0.82557482773E+01  0.17707120200E+02  0.33025742224E+02  0.00000000000E+00 0.  1.
</event>
<event>
 7    1  0.1486782E-008  0.4614232E+02  0.7816164E-02  0.1320468E+00
        -11   -1    0    0    0    0  0.00000000000E+00  0.00000000000E+00  0.45593999997E+02  0.45594000000E+02  0.51100000000E-03 0. -1.
         11   -1    0    0    0    0 -0.00000000000E+00 -0.00000000000E+00 -0.45593999997E+02  0.45594000000E+02  0.51100000000E-03 0.  1.
    9900012    2    1    2    0    0  0.16247620088E+02  0.41943764313E+02  0.24184606236E+01  0.46142317909E+02  0.10000001349E+02 0.  0.
        -12    1    1    2    0    0 -0.16247620088E+02 -0.41943764313E+02 -0.24184606236E+01  0.45045682091E+02  0.00000000000E+00 0.  1.
         11    1    3    3    0    0  0.28566942032E+01  0.94934927066E+01 -0.10573906930E+01  0.99702146858E+01  0.51100000000E-03 0. -1.
        -11    1    3    3    0    0  0.10658352603E+02  0.20430207836E+02 -0.98153160514E+00  0.23064199032E+02  0.51100000000E-03 0.  1.
        -12    1    3    3    0    0  0.27325732818E+01  0.12020063770E+02  0.44573829218E+01  0.13107904191E+02  0.00000000000E+00 0.  1.
</event>
<event>
 7    1  0.1486782E-008  0.4614232E+02  0.7816164E-02  0.1320468E+00
        -11   -1    0    0    0    0  0.00000000000E+00  0.00000000000E+00  0.45593999997E+02  0.45594000000E+02  0.51100000000E-03 0. -1.
         11   -1    0    0    0    0 -0.00000000000E+00 -0.00000000000E+00 -0.45593999997E+02  0.45594000000E+02  0.51100000000E-03 0.  1.
    9900012    2    1    2    0    0 -0.25711989389E+02 -0.23509474804E+02  0.28553662619E+02  0.46142318155E+02  0.10000003594E+02 0.  0.
        -12    1    1    2    0    0  0.25711989389E+02  0.23509474804E+02 -0.28553662619E+02  0.45045681845E+02  0.00000000000E+00 0.  1.
         11    1    3    3    0    0 -0.24269334158E+02 -0.21491887702E+02  0.23136121299E+02  0.39826899534E+02  0.51100000000E-03 0. -1.
        -11    1    3    3    0    0 -0.17190472785E+00  0.44232247143E+00  0.88194646268E+00  0.10015139681E+01  0.51100000000E-03 0.  1.
         12    1    3    3    0    0 -0.12707505029E+01 -0.24599095738E+01  0.45355948575E+01  0.53139046531E+01  0.00000000000E+00 0. -1.
</event>
<event>
 7    1  0.1486782E-008  0.4614232E+02  0.7816164E-02  0.1320468E+00
        -11   -1    0    0    0    0  0.00000000000E+00  0.00000000000E+00  0.45593999997E+02  0.45594000000E+02  0.51100000000E-03 0. -1.
         11   -1    0    0    0    0 -0.00000000000E+00 -0.00000000000E+00 -0.45593999997E+02  0.45594000000E+02  0.51100000000E-03 0.  1.
    9900012    2    1    2    0    0  0.16001760472E+02  0.39382264665E+02  0.14902829446E+02  0.46142318366E+02  0.10000005514E+02 0.  0.
        -12    1    1    2    0    0 -0.16001760472E+02 -0.39382264665E+02 -0.14902829446E+02  0.45045681634E+02  0.00000000000E+00 0.  1.
         11    1    3    3    0    0  0.90545495917E+01  0.20740399818E+02  0.76391411912E+01  0.23885257614E+02  0.51100000000E-03 0. -1.
        -11    1    3    3    0    0  0.38153298143E+01  0.34512343901E+01  0.34188964321E-01  0.51447963569E+01  0.51100000000E-03 0.  1.
         12    1    3    3    0    0  0.31318810663E+01  0.15190630458E+02  0.72294992905E+01  0.17112264394E+02  0.00000000000E+00 0. -1.
</event>
<event>
 7    1  0.1486782E-008  0.4614232E+02  0.7816164E-02  0.1320468E+00
        -11   -1    0    0    0    0  0.00000000000E+00  0.00000000000E+00  0.45593999997E+02  0.45594000000E+02  0.51100000000E-03 0. -1.
         11   -1    0    0    0    0 -0.00000000000E+00 -0.00000000000E+00 -0.45593999997E+02  0.45594000000E+02  0.51100000000E-03 0.  1.
    9900012    2    1    2    0    0 -0.30203833531E+02  0.29082698044E+02 -0.16463249618E+02  0.46142317926E+02  0.10000001506E+02 0.  0.
        -12    1    1    2    0    0  0.30203833531E+02 -0.29082698044E+02  0.16463249618E+02  0.45045682074E+02  0.00000000000E+00 0.  1.
         11    1    3    3    0    0 -0.22147416955E+02  0.19976753719E+02 -0.14737705949E+02  0.33268284353E+02  0.51100000000E-03 0. -1.
        -11    1    3    3    0    0 -0.28751416635E+01  0.40519344416E+01  0.11263737548E+01  0.50944411274E+01  0.51100000000E-03 0.  1.
        -12    1    3    3    0    0 -0.51812749130E+01  0.50540098836E+01 -0.28519174237E+01  0.77795924456E+01  0.00000000000E+00 0.  1.
</event>
<event>
 7    1  0.1486782E-008  0.4614232E+02  0.7816164E-02  0.1320468E+00
        -11   -1    0    0    0    0  0.00000000000E+00  0.00000000000E+00  0.45593999997E+02  0.45594000000E+02  0.51100000000E-03 0. -1.
         11   -1    0    0    0    0 -0.00000000000E+00 -0.00000000000E+00 -0.45593999997E+02  0.45594000000E+02  0.51100000000E-03 0.  1.
    9900012    2    1    2    0    0 -0.44327821988E+02  0.66492613648E+01  0.44659849848E+01  0.46142317623E+02  0.99999987442E+01 0.  0.
        -12    1    1    2    0    0  0.44327821988E+02 -0.66492613648E+01 -0.44659849848E+01  0.45045682377E+02  0.00000000000E+00 0.  1.
         11    1    3    3    0    0 -0.12555335123E+02  0.14119259948E+01 -0.12853730794E+01  0.12699691306E+02  0.51100000000E-03 0. -1.
        -11    1    3    3    0    0  0.10781535513E+00 -0.51336626543E+00  0.26075643333E+00  0.58580137583E+00  0.51100000000E-03 0.  1.
         12    1    3    3    0    0 -0.31880302220E+02  0.57507016354E+01  0.54906016308E+01  0.32856824941E+02  0.00000000000E+00 0. -1.
</event>
<event>
 7    1  0.1486782E-008  0.4614233E+02  0.7816164E-02  0.1320468E+00
        -11   -1    0    0    0    0  0.00000000000E+00  0.00000000000E+00  0.45593999997E+02  0.45594000000E+02  0.51100000000E-03 0.  1.
         11   -1    0    0    0    0 -0.00000000000E+00 -0.00000000000E+00 -0.45593999997E+02  0.45594000000E+02  0.51100000000E-03 0. -1.
    9900012    2    1    2    0    0 -0.30395644764E+02 -0.20469323354E+02 -0.26195884614E+02  0.46142325514E+02  0.10000070697E+02 0.  0.
        -12    1    1    2    0    0  0.30395644764E+02  0.20469323354E+02  0.26195884614E+02  0.45045674486E+02  0.00000000000E+00 0.  1.
         11    1    3    3    0    0 -0.10201797676E+02 -0.40030897138E+01 -0.11684350767E+02  0.16019533582E+02  0.51100000000E-03 0. -1.
        -11    1    3    3    0    0 -0.19872588445E+02 -0.15975153804E+02 -0.13257493475E+02  0.28738240100E+02  0.51100000000E-03 0.  1.
        -12    1    3    3    0    0 -0.32125864358E+00 -0.49107983628E+00 -0.12540403716E+01  0.13845518319E+01  0.00000000000E+00 0.  1.
</event>
<event>
 7    1  0.1486782E-008  0.4614232E+02  0.7816164E-02  0.1320468E+00
        -11   -1    0    0    0    0  0.00000000000E+00  0.00000000000E+00  0.45593999997E+02  0.45594000000E+02  0.51100000000E-03 0.  1.
         11   -1    0    0    0    0 -0.00000000000E+00 -0.00000000000E+00 -0.45593999997E+02  0.45594000000E+02  0.51100000000E-03 0. -1.
    9900012    2    1    2    0    0 -0.38485244525E+02  0.16881401281E+02  0.16217821420E+02  0.46142317776E+02  0.10000000140E+02 0.  0.
        -12    1    1    2    0    0  0.38485244525E+02 -0.16881401281E+02 -0.16217821420E+02  0.45045682224E+02  0.00000000000E+00 0.  1.
         11    1    3    3    0    0 -0.27043821739E+02  0.12696817211E+02  0.12136557029E+02  0.32247069299E+02  0.51100000000E-03 0. -1.
        -11    1    3    3    0    0 -0.13466755642E+01  0.12914604388E+01 -0.11204041976E+01  0.21763986232E+01  0.51100000000E-03 0.  1.
        -12    1    3    3    0    0 -0.10094747222E+02  0.28931236310E+01  0.52016685884E+01  0.11718849855E+02  0.00000000000E+00 0.  1.
</event>
<event>
 7    1  0.1486782E-008  0.4614232E+02  0.7816164E-02  0.1320468E+00
        -11   -1    0    0    0    0  0.00000000000E+00  0.00000000000E+00  0.45593999997E+02  0.45594000000E+02  0.51100000000E-03 0. -1.
         11   -1    0    0    0    0 -0.00000000000E+00 -0.00000000000E+00 -0.45593999997E+02  0.45594000000E+02  0.51100000000E-03 0.  1.
    9900012    2    1    2    0    0 -0.16533860947E+02  0.41059304536E+02  0.83593351495E+01  0.46142317289E+02  0.99999956923E+01 0.  0.
        -12    1    1    2    0    0  0.16533860947E+02 -0.41059304536E+02 -0.83593351495E+01  0.45045682711E+02  0.00000000000E+00 0.  1.
         11    1    3    3    0    0 -0.10981718684E+02  0.18056720359E+02  0.13537719640E+01  0.21177251809E+02  0.51100000000E-03 0. -1.
        -11    1    3    3    0    0 -0.24537408001E+01  0.16539472296E+02  0.57943207972E+01  0.17696020499E+02  0.51100000000E-03 0.  1.
        -12    1    3    3    0    0 -0.30984014631E+01  0.64631118804E+01  0.12112423883E+01  0.72690449804E+01  0.00000000000E+00 0.  1.
</event>
<event>
 7    1  0.1486782E-008  0.4614232E+02  0.7816164E-02  0.1320468E+00
        -11   -1    0    0    0    0  0.00000000000E+00  0.00000000000E+00  0.45593999997E+02  0.45594000000E+02  0.51100000000E-03 0.  1.
         11   -1    0    0    0    0 -0.00000000000E+00 -0.00000000000E+00 -0.45593999997E+02  0.45594000000E+02  0.51100000000E-03 0. -1.
    9900012    2    1    2    0    0 -0.41435972201E+02 -0.78169975412E+01 -0.15845134601E+02  0.46142317262E+02  0.99999954485E+01 0.  0.
        -12    1    1    2    0    0  0.41435972201E+02  0.78169975412E+01  0.15845134601E+02  0.45045682738E+02  0.00000000000E+00 0.  1.
         11    1    3    3    0    0 -0.13060600238E+02  0.48173402340E+00 -0.31528194046E+01  0.13444389785E+02  0.51100000000E-03 0. -1.
        -11    1    3    3    0    0 -0.15807711783E+02 -0.43767308189E+01 -0.10151132808E+02  0.19289505490E+02  0.51100000000E-03 0.  1.
        -12    1    3    3    0    0 -0.12567660180E+02 -0.39220007457E+01 -0.25411823880E+01  0.13408421987E+02  0.00000000000E+00 0.  1.
</event>
<event>
 7    1  0.1486782E-008  0.4614232E+02  0.7816164E-02  0.1320468E+00
        -11   -1    0    0    0    0  0.00000000000E+00  0.00000000000E+00  0.45593999997E+02  0.45594000000E+02  0.51100000000E-03 0.  1.
         11   -1    0    0    0    0 -0.00000000000E+00 -0.00000000000E+00 -0.45593999997E+02  0.45594000000E+02  0.51100000000E-03 0. -1.
    9900012    2    1    2    0    0  0.41213953597E+02 -0.82011968127E+01 -0.16225410909E+02  0.46142316973E+02  0.99999928109E+01 0.  0.
        -12    1    1    2    0    0 -0.41213953597E+02  0.82011968127E+01  0.16225410909E+02  0.45045683027E+02  0.00000000000E+00 0.  1.
         11    1    3    3    0    0  0.20028853809E+02 -0.40863201425E+01 -0.37578006022E+01  0.20783985730E+02  0.51100000000E-03 0. -1.
        -11    1    3    3    0    0  0.59558651632E+01  0.79305317961E+00 -0.43394801107E+01  0.74116361946E+01  0.51100000000E-03 0.  1.
        -12    1    3    3    0    0  0.15229234624E+02 -0.49079298498E+01 -0.81281301962E+01  0.17946695048E+02  0.00000000000E+00 0.  1.
</event>
<event>
 7    1  0.1486782E-008  0.4614232E+02  0.7816164E-02  0.1320468E+00
        -11   -1    0    0    0    0  0.00000000000E+00  0.00000000000E+00  0.45593999997E+02  0.45594000000E+02  0.51100000000E-03 0.  1.
         11   -1    0    0    0    0 -0.00000000000E+00 -0.00000000000E+00 -0.45593999997E+02  0.45594000000E+02  0.51100000000E-03 0. -1.
    9900012    2    1    2    0    0  0.13588547765E+02  0.15559756971E+02 -0.40029473913E+02  0.46142318197E+02  0.10000003972E+02 0.  0.
        -12    1    1    2    0    0 -0.13588547765E+02 -0.15559756971E+02  0.40029473913E+02  0.45045681803E+02  0.00000000000E+00 0.  1.
         11    1    3    3    0    0  0.53275685535E+01  0.67461615318E+01 -0.89759674479E+01  0.12428261101E+02  0.51100000000E-03 0.  1.
        -11    1    3    3    0    0  0.62187711234E+01  0.91306919299E+01 -0.25591568411E+02  0.27874199960E+02  0.51100000000E-03 0. -1.
         12    1    3    3    0    0  0.20422080876E+01 -0.31709649065E+00 -0.54619380545E+01  0.58398571360E+01  0.00000000000E+00 0. -1.
</event>
<event>
 7    1  0.1486782E-008  0.4614232E+02  0.7816164E-02  0.1320468E+00
        -11   -1    0    0    0    0  0.00000000000E+00  0.00000000000E+00  0.45593999997E+02  0.45594000000E+02  0.51100000000E-03 0.  1.
         11   -1    0    0    0    0 -0.00000000000E+00 -0.00000000000E+00 -0.45593999997E+02  0.45594000000E+02  0.51100000000E-03 0. -1.
    9900012    2    1    2    0    0  0.29541655479E+01  0.41682235992E+02 -0.16821937216E+02  0.46142318041E+02  0.10000002556E+02 0.  0.
        -12    1    1    2    0    0 -0.29541655479E+01 -0.41682235992E+02  0.16821937216E+02  0.45045681959E+02  0.00000000000E+00 0.  1.
         11    1    3    3    0    0  0.11708676544E+01  0.76665351562E+01 -0.52521086919E+01  0.93665008588E+01  0.51100000000E-03 0. -1.
        -11    1    3    3    0    0  0.43298130982E+01  0.28525512524E+02 -0.93472374435E+01  0.30328583783E+02  0.51100000000E-03 0.  1.
        -12    1    3    3    0    0 -0.25465152047E+01  0.54901883127E+01 -0.22225910807E+01  0.64472333995E+01  0.00000000000E+00 0.  1.
</event>
<event>
 7    1  0.1486782E-008  0.4614232E+02  0.7816164E-02  0.1320468E+00
        -11   -1    0    0    0    0  0.00000000000E+00  0.00000000000E+00  0.45593999997E+02  0.45594000000E+02  0.51100000000E-03 0.  1.
         11   -1    0    0    0    0 -0.00000000000E+00 -0.00000000000E+00 -0.45593999997E+02  0.45594000000E+02  0.51100000000E-03 0. -1.
    9900012    2    1    2    0    0 -0.29167517020E+02  0.32366114735E+02 -0.11436964837E+02  0.46142316557E+02  0.99999890206E+01 0.  0.
        -12    1    1    2    0    0  0.29167517020E+02 -0.32366114735E+02  0.11436964837E+02  0.45045683443E+02  0.00000000000E+00 0.  1.
         11    1    3    3    0    0 -0.28337577628E+02  0.28715369625E+02 -0.11422122157E+02  0.41929174012E+02  0.51100000000E-03 0. -1.
        -11    1    3    3    0    0 -0.13876877311E+01  0.17687254800E+01  0.57863559049E-01  0.22488698307E+01  0.51100000000E-03 0.  1.
         12    1    3    3    0    0  0.55774833918E+00  0.18820196300E+01 -0.72706238867E-01  0.19642727139E+01  0.00000000000E+00 0. -1.
</event>
<event>
 7    1  0.1486782E-008  0.4614232E+02  0.7816164E-02  0.1320468E+00
        -11   -1    0    0    0    0  0.00000000000E+00  0.00000000000E+00  0.45593999997E+02  0.45594000000E+02  0.51100000000E-03 0. -1.
         11   -1    0    0    0    0 -0.00000000000E+00 -0.00000000000E+00 -0.45593999997E+02  0.45594000000E+02  0.51100000000E-03 0.  1.
    9900012    2    1    2    0    0 -0.65896279897E+01 -0.15692092274E+02  0.41706696336E+02  0.46142317896E+02  0.10000001226E+02 0.  0.
        -12    1    1    2    0    0  0.65896279897E+01  0.15692092274E+02 -0.41706696336E+02  0.45045682104E+02  0.00000000000E+00 0.  1.
         11    1    3    3    0    0 -0.12075685663E+01 -0.80518859555E+01  0.16376116107E+02  0.18288473646E+02  0.51100000000E-03 0. -1.
        -11    1    3    3    0    0  0.49700043738E+00 -0.38856219414E+01  0.49497828057E+01  0.63123226621E+01  0.51100000000E-03 0.  1.
        -12    1    3    3    0    0 -0.58790598607E+01 -0.37545843768E+01  0.20380797424E+02  0.21541521588E+02  0.00000000000E+00 0.  1.
</event>
<event>
 7    1  0.1486782E-008  0.4614232E+02  0.7816164E-02  0.1320468E+00
        -11   -1    0    0    0    0  0.00000000000E+00  0.00000000000E+00  0.45593999997E+02  0.45594000000E+02  0.51100000000E-03 0. -1.
         11   -1    0    0    0    0 -0.00000000000E+00 -0.00000000000E+00 -0.45593999997E+02  0.45594000000E+02  0.51100000000E-03 0.  1.
    9900012    2    1    2    0    0 -0.36894278956E+02  0.61940619761E+01  0.25091020923E+02  0.46142317028E+02  0.99999933126E+01 0.  0.
        -12    1    1    2    0    0  0.36894278956E+02 -0.61940619761E+01 -0.25091020923E+02  0.45045682972E+02  0.00000000000E+00 0.  1.
         11    1    3    3    0    0 -0.22794784165E+02  0.70391007691E+01  0.17121675051E+02  0.29364994152E+02  0.51100000000E-03 0. -1.
        -11    1    3    3    0    0 -0.90744469649E+01 -0.24891988729E+01  0.58581861240E+01  0.11084224992E+02  0.51100000000E-03 0.  1.
        -12    1    3    3    0    0 -0.50250478269E+01  0.16441600799E+01  0.21111597485E+01  0.56930978838E+01  0.00000000000E+00 0.  1.
</event>
<event>
 7    1  0.1486782E-008  0.4614232E+02  0.7816164E-02  0.1320468E+00
        -11   -1    0    0    0    0  0.00000000000E+00  0.00000000000E+00  0.45593999997E+02  0.45594000000E+02  0.51100000000E-03 0. -1.
         11   -1    0    0    0    0 -0.00000000000E+00 -0.00000000000E+00 -0.45593999997E+02  0.45594000000E+02  0.51100000000E-03 0.  1.
    9900012    2    1    2    0    0 -0.19777999278E+02 -0.40454453731E+02  0.11753203213E+01  0.46142318077E+02  0.10000002877E+02 0.  0.
        -12    1    1    2    0    0  0.19777999278E+02  0.40454453731E+02 -0.11753203213E+01  0.45045681923E+02  0.00000000000E+00 0.  1.
         11    1    3    3    0    0 -0.51652202612E+01 -0.12254568190E+02 -0.57809631339E+00  0.13311203457E+02  0.51100000000E-03 0. -1.
        -11    1    3    3    0    0 -0.70363524752E+01 -0.60179547922E+01  0.15652919145E+01  0.93902169877E+01  0.51100000000E-03 0.  1.
        -12    1    3    3    0    0 -0.75764265413E+01 -0.22181930749E+02  0.18812472011E+00  0.23440897632E+02  0.00000000000E+00 0.  1.
</event>
<event>
 7    1  0.1486782E-008  0.4614231E+02  0.7816164E-02  0.1320468E+00
        -11   -1    0    0    0    0  0.00000000000E+00  0.00000000000E+00  0.45593999997E+02  0.45594000000E+02  0.51100000000E-03 0.  1.
         11   -1    0    0    0    0 -0.00000000000E+00 -0.00000000000E+00 -0.45593999997E+02  0.45594000000E+02  0.51100000000E-03 0. -1.
    9900012    2    1    2    0    0  0.11391994999E+02 -0.14097728671E+02 -0.41238215229E+02  0.46142313203E+02  0.99999584373E+01 0.  0.
        -12    1    1    2    0    0 -0.11391994999E+02  0.14097728671E+02  0.41238215229E+02  0.45045686797E+02  0.00000000000E+00 0.  1.
         11    1    3    3    0    0  0.61234353780E+00 -0.77376224146E+01 -0.19652794652E+02  0.21130028470E+02  0.51100000000E-03 0. -1.
        -11    1    3    3    0    0  0.36741900056E+01 -0.24025825625E+01 -0.60278617553E+01  0.74570230500E+01  0.51100000000E-03 0.  1.
         12    1    3    3    0    0  0.71054614561E+01 -0.39575236943E+01 -0.15557558821E+02  0.17555261683E+02  0.00000000000E+00 0. -1.
</event>
<event>
 7    1  0.1486782E-008  0.4614232E+02  0.7816164E-02  0.1320468E+00
        -11   -1    0    0    0    0  0.00000000000E+00  0.00000000000E+00  0.45593999997E+02  0.45594000000E+02  0.51100000000E-03 0. -1.
         11   -1    0    0    0    0 -0.00000000000E+00 -0.00000000000E+00 -0.45593999997E+02  0.45594000000E+02  0.51100000000E-03 0.  1.
    9900012    2    1    2    0    0 -0.27079160485E+02  0.31693512685E+02  0.17069089161E+02  0.46142317813E+02  0.10000000473E+02 0.  0.
        -12    1    1    2    0    0  0.27079160485E+02 -0.31693512685E+02 -0.17069089161E+02  0.45045682187E+02  0.00000000000E+00 0.  1.
         11    1    3    3    0    0 -0.14761035792E+02  0.22066541555E+02  0.99467195645E+01  0.28350620174E+02  0.51100000000E-03 0. -1.
        -11    1    3    3    0    0 -0.11730452682E+02  0.76318201134E+01  0.71420889281E+01  0.15711703692E+02  0.51100000000E-03 0.  1.
        -12    1    3    3    0    0 -0.58767201056E+00  0.19951510166E+01 -0.19719331385E-01  0.20799939478E+01  0.00000000000E+00 0.  1.
</event>
<event>
 7    1  0.1486782E-008  0.4614232E+02  0.7816164E-02  0.1320468E+00
        -11   -1    0    0    0    0  0.00000000000E+00  0.00000000000E+00  0.45593999997E+02  0.45594000000E+02  0.51100000000E-03 0.  1.
         11   -1    0    0    0    0 -0.00000000000E+00 -0.00000000000E+00 -0.45593999997E+02  0.45594000000E+02  0.51100000000E-03 0. -1.
    9900012    2    1    2    0    0  0.10336993596E+02  0.15695895599E+02 -0.40937744066E+02  0.46142318027E+02  0.10000002423E+02 0.  0.
        -12    1    1    2    0    0 -0.10336993596E+02 -0.15695895599E+02  0.40937744066E+02  0.45045681973E+02  0.00000000000E+00 0.  1.
         11    1    3    3    0    0  0.62450273255E+01  0.10831078739E+02 -0.18026145585E+02  0.21937514852E+02  0.51100000000E-03 0. -1.
        -11    1    3    3    0    0  0.25630434768E+00 -0.70023431529E+00 -0.50949182728E+01  0.51491953238E+01  0.51100000000E-03 0.  1.
         12    1    3    3    0    0  0.38356619226E+01  0.55650511752E+01 -0.17816680207E+02  0.19055607851E+02  0.00000000000E+00 0. -1.
</event>
<event>
 7    1  0.1486782E-008  0.4614232E+02  0.7816164E-02  0.1320468E+00
        -11   -1    0    0    0    0  0.00000000000E+00  0.00000000000E+00  0.45593999997E+02  0.45594000000E+02  0.51100000000E-03 0.  1.
         11   -1    0    0    0    0 -0.00000000000E+00 -0.00000000000E+00 -0.45593999997E+02  0.45594000000E+02  0.51100000000E-03 0. -1.
    9900012    2    1    2    0    0 -0.15393101612E+02 -0.36173446223E+02  0.21991990623E+02  0.46142318293E+02  0.10000004853E+02 0.  0.
        -12    1    1    2    0    0  0.15393101612E+02  0.36173446223E+02 -0.21991990623E+02  0.45045681707E+02  0.00000000000E+00 0.  1.
         11    1    3    3    0    0 -0.46966330650E+01 -0.31591376492E+01  0.17681677848E+01  0.59300025641E+01  0.51100000000E-03 0. -1.
        -11    1    3    3    0    0 -0.34103800731E+01 -0.13263673985E+02  0.75038448560E+01  0.15616127167E+02  0.51100000000E-03 0.  1.
         12    1    3    3    0    0 -0.72860884737E+01 -0.19750634588E+02  0.12719977983E+02  0.24596188562E+02  0.00000000000E+00 0. -1.
</event>
<event>
 7    1  0.1486782E-008  0.4614233E+02  0.7816164E-02  0.1320468E+00
        -11   -1    0    0    0    0  0.00000000000E+00  0.00000000000E+00  0.45593999997E+02  0.45594000000E+02  0.51100000000E-03 0.  1.
         11   -1    0    0    0    0 -0.00000000000E+00 -0.00000000000E+00 -0.45593999997E+02  0.45594000000E+02  0.51100000000E-03 0. -1.
    9900012    2    1    2    0    0  0.80451834816E+00  0.39197752459E+02 -0.22181108374E+02  0.46142327441E+02  0.10000088269E+02 0.  0.
        -12    1    1    2    0    0 -0.80451834816E+00 -0.39197752459E+02  0.22181108374E+02  0.45045672559E+02  0.00000000000E+00 0.  1.
         11    1    3    3    0    0 -0.42721480043E+01  0.14059692545E+02 -0.79774925380E+01  0.16720244929E+02  0.51100000000E-03 0.  1.
        -11    1    3    3    0    0  0.36277628663E+01  0.18308665029E+02 -0.11573763739E+02  0.21961782393E+02  0.51100000000E-03 0. -1.
        -12    1    3    3    0    0  0.14489034861E+01  0.68293948847E+01 -0.26298520970E+01  0.74603001183E+01  0.00000000000E+00 0.  1.
</event>
<event>
 7    1  0.1486782E-008  0.4614232E+02  0.7816164E-02  0.1320468E+00
        -11   -1    0    0    0    0  0.00000000000E+00  0.00000000000E+00  0.45593999997E+02  0.45594000000E+02  0.51100000000E-03 0.  1.
         11   -1    0    0    0    0 -0.00000000000E+00 -0.00000000000E+00 -0.45593999997E+02  0.45594000000E+02  0.51100000000E-03 0. -1.
    9900012    2    1    2    0    0  0.29396793012E+01  0.11930903969E+02 -0.43337341078E+02  0.46142319678E+02  0.10000017482E+02 0.  0.
        -12    1    1    2    0    0 -0.29396793012E+01 -0.11930903969E+02  0.43337341078E+02  0.45045680322E+02  0.00000000000E+00 0.  1.
         11    1    3    3    0    0 -0.11220348773E+01  0.21190144059E+01 -0.18370251578E+02  0.18526071565E+02  0.51100000000E-03 0. -1.
        -11    1    3    3    0    0  0.99500159163E+00  0.68998224971E-01 -0.52793290408E+00  0.11284956069E+01  0.51100000000E-03 0.  1.
         12    1    3    3    0    0  0.30667125869E+01  0.97428913381E+01 -0.24439156596E+02  0.26487752506E+02  0.00000000000E+00 0. -1.
</event>
<event>
 7    1  0.1486782E-008  0.4614232E+02  0.7816164E-02  0.1320468E+00
        -11   -1    0    0    0    0  0.00000000000E+00  0.00000000000E+00  0.45593999997E+02  0.45594000000E+02  0.51100000000E-03 0.  1.
         11   -1    0    0    0    0 -0.00000000000E+00 -0.00000000000E+00 -0.45593999997E+02  0.45594000000E+02  0.51100000000E-03 0. -1.
    9900012    2    1    2    0    0 -0.14660098502E+02  0.11603200753E+01 -0.42577560985E+02  0.46142317297E+02  0.99999957664E+01 0.  0.
        -12    1    1    2    0    0  0.14660098502E+02 -0.11603200753E+01  0.42577560985E+02  0.45045682703E+02  0.00000000000E+00 0.  1.
         11    1    3    3    0    0  0.88840164003E+00  0.15229086831E+00 -0.27677929566E+01  0.29108638055E+01  0.51100000000E-03 0.  1.
        -11    1    3    3    0    0 -0.12352631098E+02  0.34589403635E+01 -0.30072850991E+02  0.32694466359E+02  0.51100000000E-03 0. -1.
         12    1    3    3    0    0 -0.31958690437E+01 -0.24509111565E+01 -0.97369170373E+01  0.10536987133E+02  0.00000000000E+00 0. -1.
</event>
<event>
 7    1  0.1486782E-008  0.4614232E+02  0.7816164E-02  0.1320468E+00
        -11   -1    0    0    0    0  0.00000000000E+00  0.00000000000E+00  0.45593999997E+02  0.45594000000E+02  0.51100000000E-03 0.  1.
         11   -1    0    0    0    0 -0.00000000000E+00 -0.00000000000E+00 -0.45593999997E+02  0.45594000000E+02  0.51100000000E-03 0. -1.
    9900012    2    1    2    0    0  0.42740153075E+02  0.40513506537E-01 -0.14226427465E+02  0.46142316915E+02  0.99999922806E+01 0.  0.
        -12    1    1    2    0    0 -0.42740153075E+02 -0.40513506537E-01  0.14226427465E+02  0.45045683085E+02  0.00000000000E+00 0.  1.
         11    1    3    3    0    0  0.22651850998E+02  0.15478374857E+01 -0.91549178402E+01  0.24480904302E+02  0.51100000000E-03 0. -1.
        -11    1    3    3    0    0  0.11495183310E+02 -0.38499149780E+01 -0.34926336937E+01  0.12615846189E+02  0.51100000000E-03 0.  1.
        -12    1    3    3    0    0  0.85931187669E+01  0.23425909989E+01 -0.15788759313E+01  0.90455664243E+01  0.00000000000E+00 0.  1.
</event>
<event>
 7    1  0.1486782E-008  0.4614232E+02  0.7816164E-02  0.1320468E+00
        -11   -1    0    0    0    0  0.00000000000E+00  0.00000000000E+00  0.45593999997E+02  0.45594000000E+02  0.51100000000E-03 0.  1.
         11   -1    0    0    0    0 -0.00000000000E+00 -0.00000000000E+00 -0.45593999997E+02  0.45594000000E+02  0.51100000000E-03 0. -1.
    9900012    2    1    2    0    0  0.40219105462E+02 -0.85171200420E+01  0.18411837222E+02  0.46142317323E+02  0.99999960011E+01 0.  0.
        -12    1    1    2    0    0 -0.40219105462E+02  0.85171200420E+01 -0.18411837222E+02  0.45045682677E+02  0.00000000000E+00 0.  1.
         11    1    3    3    0    0  0.24345212009E+02 -0.38918884724E+01  0.15042475365E+02  0.28881000831E+02  0.51100000000E-03 0. -1.
        -11    1    3    3    0    0  0.63789956520E+00 -0.48383629359E+00 -0.57687641084E+00  0.98681308706E+00  0.51100000000E-03 0.  1.
         12    1    3    3    0    0  0.15235993888E+02 -0.41413952760E+01  0.39462382673E+01  0.16274503404E+02  0.00000000000E+00 0. -1.
</event>
<event>
 7    1  0.1486782E-008  0.4614232E+02  0.7816164E-02  0.1320468E+00
        -11   -1    0    0    0    0  0.00000000000E+00  0.00000000000E+00  0.45593999997E+02  0.45594000000E+02  0.51100000000E-03 0.  1.
         11   -1    0    0    0    0 -0.00000000000E+00 -0.00000000000E+00 -0.45593999997E+02  0.45594000000E+02  0.51100000000E-03 0. -1.
    9900012    2    1    2    0    0  0.41915817132E+02 -0.13069769340E+02 -0.10067713795E+02  0.46142318104E+02  0.10000003126E+02 0.  0.
        -12    1    1    2    0    0 -0.41915817132E+02  0.13069769340E+02  0.10067713795E+02  0.45045681896E+02  0.00000000000E+00 0.  1.
         11    1    3    3    0    0  0.22297347362E+02 -0.66996103331E+01 -0.76901015865E+01  0.24519260606E+02  0.51100000000E-03 0. -1.
        -11    1    3    3    0    0  0.87759340579E+01 -0.47641689397E+01  0.12814721719E+01  0.10067596310E+02  0.51100000000E-03 0.  1.
        -12    1    3    3    0    0  0.10842535712E+02 -0.16059900669E+01 -0.36590843806E+01  0.11555461188E+02  0.00000000000E+00 0.  1.
</event>
<event>
 7    1  0.1486782E-008  0.4614232E+02  0.7816164E-02  0.1320468E+00
        -11   -1    0    0    0    0  0.00000000000E+00  0.00000000000E+00  0.45593999997E+02  0.45594000000E+02  0.51100000000E-03 0. -1.
         11   -1    0    0    0    0 -0.00000000000E+00 -0.00000000000E+00 -0.45593999997E+02  0.45594000000E+02  0.51100000000E-03 0.  1.
    9900012    2    1    2    0    0 -0.41940483741E+02  0.14192727877E+02  0.82870884608E+01  0.46142317230E+02  0.99999951571E+01 0.  0.
        -12    1    1    2    0    0  0.41940483741E+02 -0.14192727877E+02 -0.82870884608E+01  0.45045682770E+02  0.00000000000E+00 0.  1.
         11    1    3    3    0    0 -0.16585950106E+02  0.24295699539E+01  0.36227174158E+01  0.17149945563E+02  0.51100000000E-03 0. -1.
        -11    1    3    3    0    0 -0.14533653612E+01  0.13609545565E+01  0.19463418751E+01  0.27843697912E+01  0.51100000000E-03 0.  1.
         12    1    3    3    0    0 -0.23901168274E+02  0.10402203367E+02  0.27180291699E+01  0.26208001876E+02  0.00000000000E+00 0. -1.
</event>
<event>
 7    1  0.1486782E-008  0.4614232E+02  0.7816164E-02  0.1320468E+00
        -11   -1    0    0    0    0  0.00000000000E+00  0.00000000000E+00  0.45593999997E+02  0.45594000000E+02  0.51100000000E-03 0.  1.
         11   -1    0    0    0    0 -0.00000000000E+00 -0.00000000000E+00 -0.45593999997E+02  0.45594000000E+02  0.51100000000E-03 0. -1.
    9900012    2    1    2    0    0 -0.22468733366E+02  0.24317604851E+02 -0.30543798769E+02  0.46142317321E+02  0.99999959887E+01 0.  0.
        -12    1    1    2    0    0  0.22468733366E+02 -0.24317604851E+02  0.30543798769E+02  0.45045682679E+02  0.00000000000E+00 0.  1.
         11    1    3    3    0    0 -0.13593185729E+02  0.13178258102E+02 -0.18661586303E+02  0.26583754221E+02  0.51100000000E-03 0. -1.
        -11    1    3    3    0    0 -0.58284659909E+01  0.10269461465E+02 -0.11285856075E+02  0.16334117736E+02  0.51100000000E-03 0.  1.
        -12    1    3    3    0    0 -0.30470816465E+01  0.86988528319E+00 -0.59635639117E+00  0.32244453649E+01  0.00000000000E+00 0.  1.
</event>
<event>
 7    1  0.1486782E-008  0.4614232E+02  0.7816164E-02  0.1320468E+00
        -11   -1    0    0    0    0  0.00000000000E+00  0.00000000000E+00  0.45593999997E+02  0.45594000000E+02  0.51100000000E-03 0.  1.
         11   -1    0    0    0    0 -0.00000000000E+00 -0.00000000000E+00 -0.45593999997E+02  0.45594000000E+02  0.51100000000E-03 0. -1.
    9900012    2    1    2    0    0  0.27276244493E+02 -0.34488400800E+02 -0.97811108066E+01  0.46142318387E+02  0.10000005705E+02 0.  0.
        -12    1    1    2    0    0 -0.27276244493E+02  0.34488400800E+02  0.97811108066E+01  0.45045681613E+02  0.00000000000E+00 0.  1.
         11    1    3    3    0    0  0.79939769732E+01 -0.14177885433E+02 -0.22145414117E+01  0.16426207631E+02  0.51100000000E-03 0. -1.
        -11    1    3    3    0    0  0.15425095392E+02 -0.19379105606E+02 -0.65285563755E+01  0.25614553491E+02  0.51100000000E-03 0.  1.
        -12    1    3    3    0    0  0.38571721281E+01 -0.93140976059E+00 -0.10380130194E+01  0.41015572648E+01  0.00000000000E+00 0.  1.
</event>
<event>
 7    1  0.1486782E-008  0.4614232E+02  0.7816164E-02  0.1320468E+00
        -11   -1    0    0    0    0  0.00000000000E+00  0.00000000000E+00  0.45593999997E+02  0.45594000000E+02  0.51100000000E-03 0. -1.
         11   -1    0    0    0    0 -0.00000000000E+00 -0.00000000000E+00 -0.45593999997E+02  0.45594000000E+02  0.51100000000E-03 0.  1.
    9900012    2    1    2    0    0 -0.26850447136E+02  0.19207581665E+02  0.30646954337E+02  0.46142317466E+02  0.99999973053E+01 0.  0.
        -12    1    1    2    0    0  0.26850447136E+02 -0.19207581665E+02 -0.30646954337E+02  0.45045682534E+02  0.00000000000E+00 0.  1.
         11    1    3    3    0    0 -0.49563147955E+01  0.29234550919E+01  0.10147946331E+01  0.58430689227E+01  0.51100000000E-03 0. -1.
        -11    1    3    3    0    0 -0.11274784791E+02  0.87034929634E+01  0.16264326382E+02  0.21619432804E+02  0.51100000000E-03 0.  1.
         12    1    3    3    0    0 -0.10619347549E+02  0.75806336100E+01  0.13367833322E+02  0.18679815738E+02  0.00000000000E+00 0. -1.
</event>
<event>
 7    1  0.1486782E-008  0.4614232E+02  0.7816164E-02  0.1320468E+00
        -11   -1    0    0    0    0  0.00000000000E+00  0.00000000000E+00  0.45593999997E+02  0.45594000000E+02  0.51100000000E-03 0. -1.
         11   -1    0    0    0    0 -0.00000000000E+00 -0.00000000000E+00 -0.45593999997E+02  0.45594000000E+02  0.51100000000E-03 0.  1.
    9900012    2    1    2    0    0  0.36486604967E+02  0.22989453011E+02 -0.13012544930E+02  0.46142316330E+02  0.99999869480E+01 0.  0.
        -12    1    1    2    0    0 -0.36486604967E+02 -0.22989453011E+02  0.13012544930E+02  0.45045683670E+02  0.00000000000E+00 0.  1.
         11    1    3    3    0    0  0.13125918952E+02  0.53852832828E+01 -0.62373526187E+01  0.15498244814E+02  0.51100000000E-03 0.  1.
        -11    1    3    3    0    0  0.12390639748E+02  0.94526603376E+01 -0.67331547874E+01  0.16976928888E+02  0.51100000000E-03 0. -1.
        -12    1    3    3    0    0  0.10970046267E+02  0.81515093902E+01 -0.42037524121E-01  0.13667142627E+02  0.00000000000E+00 0.  1.
</event>
<event>
 7    1  0.1486782E-008  0.4614232E+02  0.7816164E-02  0.1320468E+00
        -11   -1    0    0    0    0  0.00000000000E+00  0.00000000000E+00  0.45593999997E+02  0.45594000000E+02  0.51100000000E-03 0.  1.
         11   -1    0    0    0    0 -0.00000000000E+00 -0.00000000000E+00 -0.45593999997E+02  0.45594000000E+02  0.51100000000E-03 0. -1.
    9900012    2    1    2    0    0 -0.18173743041E+02  0.10557018466E+01 -0.41203325408E+02  0.46142317996E+02  0.10000002144E+02 0.  0.
        -12    1    1    2    0    0  0.18173743041E+02 -0.10557018466E+01  0.41203325408E+02  0.45045682004E+02  0.00000000000E+00 0.  1.
         11    1    3    3    0    0 -0.93125016386E+01  0.31226943020E+01 -0.24811541043E+02  0.26684948485E+02  0.51100000000E-03 0. -1.
        -11    1    3    3    0    0 -0.19715382487E+01 -0.29384809316E+01 -0.55017903440E+01  0.65415082742E+01  0.51100000000E-03 0.  1.
        -12    1    3    3    0    0 -0.68897031539E+01  0.87148847614E+00 -0.10889994021E+02  0.12915861237E+02  0.00000000000E+00 0.  1.
</event>
<event>
 7    1  0.1486782E-008  0.4614232E+02  0.7816164E-02  0.1320468E+00
        -11   -1    0    0    0    0  0.00000000000E+00  0.00000000000E+00  0.45593999997E+02  0.45594000000E+02  0.51100000000E-03 0.  1.
         11   -1    0    0    0    0 -0.00000000000E+00 -0.00000000000E+00 -0.45593999997E+02  0.45594000000E+02  0.51100000000E-03 0. -1.
    9900012    2    1    2    0    0 -0.23103414883E+02  0.37366000922E+01 -0.38488745848E+02  0.46142317450E+02  0.99999971619E+01 0.  0.
        -12    1    1    2    0    0  0.23103414883E+02 -0.37366000922E+01  0.38488745848E+02  0.45045682550E+02  0.00000000000E+00 0.  1.
         11    1    3    3    0    0 -0.17130834253E+02  0.27097350945E+01 -0.24573400140E+02  0.30077568738E+02  0.51100000000E-03 0. -1.
        -11    1    3    3    0    0 -0.11646318554E+01 -0.65415900011E+00 -0.85996093462E+01  0.87027336236E+01  0.51100000000E-03 0.  1.
        -12    1    3    3    0    0 -0.48079487738E+01  0.16810239979E+01 -0.53157363616E+01  0.73620150882E+01  0.00000000000E+00 0.  1.
</event>
<event>
 7    1  0.1486782E-008  0.4614232E+02  0.7816164E-02  0.1320468E+00
        -11   -1    0    0    0    0  0.00000000000E+00  0.00000000000E+00  0.45593999997E+02  0.45594000000E+02  0.51100000000E-03 0.  1.
         11   -1    0    0    0    0 -0.00000000000E+00 -0.00000000000E+00 -0.45593999997E+02  0.45594000000E+02  0.51100000000E-03 0. -1.
    9900012    2    1    2    0    0  0.38799823447E+02  0.22847236993E+02 -0.13004041754E+01  0.46142316647E+02  0.99999898397E+01 0.  0.
        -12    1    1    2    0    0 -0.38799823447E+02 -0.22847236993E+02  0.13004041754E+01  0.45045683353E+02  0.00000000000E+00 0.  1.
         11    1    3    3    0    0  0.15938910739E+02  0.93057874378E+01 -0.86217731226E+00  0.18476739577E+02  0.51100000000E-03 0. -1.
        -11    1    3    3    0    0  0.30460218632E+01 -0.27975070548E+00  0.15421155521E+01  0.34255846633E+01  0.51100000000E-03 0.  1.
        -12    1    3    3    0    0  0.19814890844E+02  0.13821200261E+02 -0.19803424152E+01  0.24239992407E+02  0.00000000000E+00 0.  1.
</event>
<event>
 7    1  0.1486782E-008  0.4614232E+02  0.7816164E-02  0.1320468E+00
        -11   -1    0    0    0    0  0.00000000000E+00  0.00000000000E+00  0.45593999997E+02  0.45594000000E+02  0.51100000000E-03 0.  1.
         11   -1    0    0    0    0 -0.00000000000E+00 -0.00000000000E+00 -0.45593999997E+02  0.45594000000E+02  0.51100000000E-03 0. -1.
    9900012    2    1    2    0    0  0.42132477748E+02  0.48687874869E+01 -0.15174407928E+02  0.46142318423E+02  0.10000006032E+02 0.  0.
        -12    1    1    2    0    0 -0.42132477748E+02 -0.48687874869E+01  0.15174407928E+02  0.45045681577E+02  0.00000000000E+00 0.  1.
         11    1    3    3    0    0  0.20378182008E+02  0.35220015311E+01 -0.35488048299E+01  0.20982583557E+02  0.51100000000E-03 0. -1.
        -11    1    3    3    0    0  0.12192511745E+02 -0.63243126900E+00 -0.42674519679E+01  0.12933230784E+02  0.51100000000E-03 0.  1.
        -12    1    3    3    0    0  0.95617839949E+01  0.19792172248E+01 -0.73581511305E+01  0.12226504081E+02  0.00000000000E+00 0.  1.
</event>
<event>
 7    1  0.1486782E-008  0.4614232E+02  0.7816164E-02  0.1320468E+00
        -11   -1    0    0    0    0  0.00000000000E+00  0.00000000000E+00  0.45593999997E+02  0.45594000000E+02  0.51100000000E-03 0.  1.
         11   -1    0    0    0    0 -0.00000000000E+00 -0.00000000000E+00 -0.45593999997E+02  0.45594000000E+02  0.51100000000E-03 0. -1.
    9900012    2    1    2    0    0 -0.17092715168E+01 -0.38034119344E+02 -0.24074834082E+02  0.46142317860E+02  0.10000000903E+02 0.  0.
        -12    1    1    2    0    0  0.17092715168E+01  0.38034119344E+02  0.24074834082E+02  0.45045682140E+02  0.00000000000E+00 0.  1.
         11    1    3    3    0    0 -0.68270403668E+00 -0.73210427002E+01 -0.19417275483E+01  0.76048706204E+01  0.51100000000E-03 0. -1.
        -11    1    3    3    0    0 -0.37737662502E+00 -0.13456123681E+02 -0.54400678018E+01  0.14519091417E+02  0.51100000000E-03 0.  1.
        -12    1    3    3    0    0 -0.64919085510E+00 -0.17256952963E+02 -0.16693038732E+02  0.24018355823E+02  0.00000000000E+00 0.  1.
</event>
<event>
 7    1  0.1486782E-008  0.4614231E+02  0.7816164E-02  0.1320468E+00
        -11   -1    0    0    0    0  0.00000000000E+00  0.00000000000E+00  0.45593999997E+02  0.45594000000E+02  0.51100000000E-03 0. -1.
         11   -1    0    0    0    0 -0.00000000000E+00 -0.00000000000E+00 -0.45593999997E+02  0.45594000000E+02  0.51100000000E-03 0.  1.
    9900012    2    1    2    0    0  0.40864625594E+02 -0.12870402932E+02  0.13912192690E+02  0.46142312059E+02  0.99999480061E+01 0.  0.
        -12    1    1    2    0    0 -0.40864625594E+02  0.12870402932E+02 -0.13912192690E+02  0.45045687941E+02  0.00000000000E+00 0.  1.
         11    1    3    3    0    0  0.10438601116E+02 -0.56761579383E+01  0.18339893560E+01  0.12022756731E+02  0.51100000000E-03 0. -1.
        -11    1    3    3    0    0  0.22047067401E+02 -0.80377679821E+01  0.83215456694E+01  0.24898333633E+02  0.51100000000E-03 0.  1.
        -12    1    3    3    0    0  0.83789570778E+01  0.84352298820E+00  0.37566576650E+01  0.92212216954E+01  0.00000000000E+00 0.  1.
</event>
<event>
 7    1  0.1486782E-008  0.4614232E+02  0.7816164E-02  0.1320468E+00
        -11   -1    0    0    0    0  0.00000000000E+00  0.00000000000E+00  0.45593999997E+02  0.45594000000E+02  0.51100000000E-03 0.  1.
         11   -1    0    0    0    0 -0.00000000000E+00 -0.00000000000E+00 -0.45593999997E+02  0.45594000000E+02  0.51100000000E-03 0. -1.
    9900012    2    1    2    0    0  0.46283738774E+01  0.22528888467E+02 -0.38731647883E+02  0.46142320872E+02  0.10000028371E+02 0.  0.
        -12    1    1    2    0    0 -0.46283738774E+01 -0.22528888467E+02  0.38731647883E+02  0.45045679128E+02  0.00000000000E+00 0.  1.
         11    1    3    3    0    0  0.26586082031E+01  0.16767043893E+01 -0.80192544361E+01  0.86132442876E+01  0.51100000000E-03 0. -1.
        -11    1    3    3    0    0  0.20484900971E+01  0.26482909290E+01 -0.53086653395E+01  0.62762795086E+01  0.51100000000E-03 0.  1.
         12    1    3    3    0    0 -0.78724422826E-01  0.18203893149E+02 -0.25403728108E+02  0.31252797076E+02  0.00000000000E+00 0. -1.
</event>
<event>
 7    1  0.1486782E-008  0.4614232E+02  0.7816164E-02  0.1320468E+00
        -11   -1    0    0    0    0  0.00000000000E+00  0.00000000000E+00  0.45593999997E+02  0.45594000000E+02  0.51100000000E-03 0. -1.
         11   -1    0    0    0    0 -0.00000000000E+00 -0.00000000000E+00 -0.45593999997E+02  0.45594000000E+02  0.51100000000E-03 0.  1.
    9900012    2    1    2    0    0 -0.27315222402E+02  0.35027500789E+02  0.74877519605E+01  0.46142316346E+02  0.99999870996E+01 0.  0.
        -12    1    1    2    0    0  0.27315222402E+02 -0.35027500789E+02 -0.74877519605E+01  0.45045683654E+02  0.00000000000E+00 0.  1.
         11    1    3    3    0    0 -0.13410256193E+02  0.19802068572E+02  0.62425040071E+01  0.24716912174E+02  0.51100000000E-03 0. -1.
        -11    1    3    3    0    0 -0.19052194416E+00 -0.41307270236E-01 -0.77958337330E+00  0.80358907336E+00  0.51100000000E-03 0.  1.
        -12    1    3    3    0    0 -0.13714444265E+02  0.15266739488E+02  0.20248313267E+01  0.20621815099E+02  0.00000000000E+00 0.  1.
</event>
<event>
 7    1  0.1486782E-008  0.4614232E+02  0.7816164E-02  0.1320468E+00
        -11   -1    0    0    0    0  0.00000000000E+00  0.00000000000E+00  0.45593999997E+02  0.45594000000E+02  0.51100000000E-03 0.  1.
         11   -1    0    0    0    0 -0.00000000000E+00 -0.00000000000E+00 -0.45593999997E+02  0.45594000000E+02  0.51100000000E-03 0. -1.
    9900012    2    1    2    0    0  0.10312576099E+02 -0.32462032877E+02 -0.29478477987E+02  0.46142317979E+02  0.10000001984E+02 0.  0.
        -12    1    1    2    0    0 -0.10312576099E+02  0.32462032877E+02  0.29478477987E+02  0.45045682021E+02  0.00000000000E+00 0.  1.
         11    1    3    3    0    0 -0.12087059529E+01 -0.37138823800E+01 -0.41919212171E+01  0.57294062663E+01  0.51100000000E-03 0. -1.
        -11    1    3    3    0    0  0.10618167903E+02 -0.28647727754E+02 -0.24944687321E+02  0.39442048893E+02  0.51100000000E-03 0.  1.
        -12    1    3    3    0    0  0.90311414916E+00 -0.10042274376E+00 -0.34186944858E+00  0.97086281922E+00  0.00000000000E+00 0.  1.
</event>
<event>
 7    1  0.1486782E-008  0.4614232E+02  0.7816164E-02  0.1320468E+00
        -11   -1    0    0    0    0  0.00000000000E+00  0.00000000000E+00  0.45593999997E+02  0.45594000000E+02  0.51100000000E-03 0. -1.
         11   -1    0    0    0    0 -0.00000000000E+00 -0.00000000000E+00 -0.45593999997E+02  0.45594000000E+02  0.51100000000E-03 0.  1.
    9900012    2    1    2    0    0 -0.17914134781E+02  0.15838612172E+02  0.38175066801E+02  0.46142316680E+02  0.99999901436E+01 0.  0.
        -12    1    1    2    0    0  0.17914134781E+02 -0.15838612172E+02 -0.38175066801E+02  0.45045683320E+02  0.00000000000E+00 0.  1.
         11    1    3    3    0    0 -0.83825769874E+01  0.84545038835E+01  0.18174818914E+02  0.21727178272E+02  0.51100000000E-03 0. -1.
        -11    1    3    3    0    0 -0.10621686345E+02  0.73041411788E+01  0.18759598124E+02  0.22761661214E+02  0.51100000000E-03 0.  1.
        -12    1    3    3    0    0  0.10901285513E+01  0.79967109713E-01  0.12406497625E+01  0.16534771937E+01  0.00000000000E+00 0.  1.
</event>
<event>
 7    1  0.1486782E-008  0.4614232E+02  0.7816164E-02  0.1320468E+00
        -11   -1    0    0    0    0  0.00000000000E+00  0.00000000000E+00  0.45593999997E+02  0.45594000000E+02  0.51100000000E-03 0.  1.
         11   -1    0    0    0    0 -0.00000000000E+00 -0.00000000000E+00 -0.45593999997E+02  0.45594000000E+02  0.51100000000E-03 0. -1.
    9900012    2    1    2    0    0 -0.22881782274E+02  0.40722922108E+01 -0.38586969458E+02  0.46142315014E+02  0.99999749518E+01 0.  0.
        -12    1    1    2    0    0  0.22881782274E+02 -0.40722922108E+01  0.38586969458E+02  0.45045684986E+02  0.00000000000E+00 0.  1.
         11    1    3    3    0    0 -0.76633700838E+01  0.86370131422E+00 -0.16314693354E+02  0.18045565674E+02  0.51100000000E-03 0. -1.
        -11    1    3    3    0    0 -0.69005282568E+00 -0.15608890726E+01 -0.34245184725E+01  0.38262089107E+01  0.51100000000E-03 0.  1.
        -12    1    3    3    0    0 -0.14528359365E+02  0.47694799691E+01 -0.18847757632E+02  0.24270540430E+02  0.00000000000E+00 0.  1.
</event>
<event>
 7    1  0.1486782E-008  0.4614232E+02  0.7816164E-02  0.1320468E+00
        -11   -1    0    0    0    0  0.00000000000E+00  0.00000000000E+00  0.45593999997E+02  0.45594000000E+02  0.51100000000E-03 0.  1.
         11   -1    0    0    0    0 -0.00000000000E+00 -0.00000000000E+00 -0.45593999997E+02  0.45594000000E+02  0.51100000000E-03 0. -1.
    9900012    2    1    2    0    0 -0.38493274570E+02 -0.13492200104E+02 -0.19113919572E+02  0.46142316831E+02  0.99999915230E+01 0.  0.
        -12    1    1    2    0    0  0.38493274570E+02  0.13492200104E+02  0.19113919572E+02  0.45045683169E+02  0.00000000000E+00 0.  1.
         11    1    3    3    0    0 -0.28704259109E+01  0.74385346113E+00 -0.33267936625E+01  0.44564805863E+01  0.51100000000E-03 0. -1.
        -11    1    3    3    0    0 -0.11575518272E+02 -0.64245272968E+01 -0.43506905214E+01  0.13935411100E+02  0.51100000000E-03 0.  1.
        -12    1    3    3    0    0 -0.24047330387E+02 -0.78115262679E+01 -0.11436435388E+02  0.27750425145E+02  0.00000000000E+00 0.  1.
</event>
<event>
 7    1  0.1486782E-008  0.4614232E+02  0.7816164E-02  0.1320468E+00
        -11   -1    0    0    0    0  0.00000000000E+00  0.00000000000E+00  0.45593999997E+02  0.45594000000E+02  0.51100000000E-03 0.  1.
         11   -1    0    0    0    0 -0.00000000000E+00 -0.00000000000E+00 -0.45593999997E+02  0.45594000000E+02  0.51100000000E-03 0. -1.
    9900012    2    1    2    0    0  0.18016137345E+02  0.11207672529E+02 -0.39735631638E+02  0.46142317076E+02  0.99999937544E+01 0.  0.
        -12    1    1    2    0    0 -0.18016137345E+02 -0.11207672529E+02  0.39735631638E+02  0.45045682924E+02  0.00000000000E+00 0.  1.
         11    1    3    3    0    0  0.21787361850E+01  0.32907328317E+01 -0.11181635253E+02  0.11857688692E+02  0.51100000000E-03 0. -1.
        -11    1    3    3    0    0  0.95789250785E+01  0.82612897137E+01 -0.17788911509E+02  0.21827736628E+02  0.51100000000E-03 0.  1.
         12    1    3    3    0    0  0.62584760819E+01 -0.34435001657E+00 -0.10765084877E+02  0.12456891755E+02  0.00000000000E+00 0. -1.
</event>
<event>
 7    1  0.1486782E-008  0.4614232E+02  0.7816164E-02  0.1320468E+00
        -11   -1    0    0    0    0  0.00000000000E+00  0.00000000000E+00  0.45593999997E+02  0.45594000000E+02  0.51100000000E-03 0.  1.
         11   -1    0    0    0    0 -0.00000000000E+00 -0.00000000000E+00 -0.45593999997E+02  0.45594000000E+02  0.51100000000E-03 0. -1.
    9900012    2    1    2    0    0 -0.42631199289E+02  0.20608882593E+01 -0.14403024072E+02  0.46142317458E+02  0.99999972392E+01 0.  0.
        -12    1    1    2    0    0  0.42631199289E+02 -0.20608882593E+01  0.14403024072E+02  0.45045682542E+02  0.00000000000E+00 0.  1.
         11    1    3    3    0    0 -0.52872364903E+01 -0.23881213530E+01 -0.23285535995E+01  0.62514122746E+01  0.51100000000E-03 0. -1.
        -11    1    3    3    0    0 -0.36403080935E+02  0.41513678035E+01 -0.10645365117E+02  0.38154186598E+02  0.51100000000E-03 0.  1.
        -12    1    3    3    0    0 -0.94088186325E+00  0.29764180884E+00 -0.14291053564E+01  0.17367185859E+01  0.00000000000E+00 0.  1.
</event>
<event>
 7    1  0.1486782E-008  0.4614232E+02  0.7816164E-02  0.1320468E+00
        -11   -1    0    0    0    0  0.00000000000E+00  0.00000000000E+00  0.45593999997E+02  0.45594000000E+02  0.51100000000E-03 0. -1.
         11   -1    0    0    0    0 -0.00000000000E+00 -0.00000000000E+00 -0.45593999997E+02  0.45594000000E+02  0.51100000000E-03 0.  1.
    9900012    2    1    2    0    0 -0.42806537199E+02  0.14024063189E+02 -0.19868737543E+00  0.46142318166E+02  0.10000003689E+02 0.  0.
        -12    1    1    2    0    0  0.42806537199E+02 -0.14024063189E+02  0.19868737543E+00  0.45045681834E+02  0.00000000000E+00 0.  1.
         11    1    3    3    0    0 -0.96903002876E+01  0.68781515121E+01 -0.10277336996E+01  0.11927578325E+02  0.51100000000E-03 0. -1.
        -11    1    3    3    0    0 -0.33124805694E+02  0.67512450435E+01  0.76240864133E+00  0.33814395294E+02  0.51100000000E-03 0.  1.
        -12    1    3    3    0    0  0.85687827604E-02  0.39466663299E+00  0.66637682817E-01  0.40034454661E+00  0.00000000000E+00 0.  1.
</event>
<event>
 7    1  0.1486782E-008  0.4614232E+02  0.7816164E-02  0.1320468E+00
        -11   -1    0    0    0    0  0.00000000000E+00  0.00000000000E+00  0.45593999997E+02  0.45594000000E+02  0.51100000000E-03 0. -1.
         11   -1    0    0    0    0 -0.00000000000E+00 -0.00000000000E+00 -0.45593999997E+02  0.45594000000E+02  0.51100000000E-03 0.  1.
    9900012    2    1    2    0    0  0.38884060805E+02  0.49185508538E+01  0.22202502739E+02  0.46142318131E+02  0.10000003374E+02 0.  0.
        -12    1    1    2    0    0 -0.38884060805E+02 -0.49185508538E+01 -0.22202502739E+02  0.45045681869E+02  0.00000000000E+00 0.  1.
         11    1    3    3    0    0  0.16379077416E+02 -0.45382090106E+00  0.12900929291E+02  0.20854594392E+02  0.51100000000E-03 0. -1.
        -11    1    3    3    0    0  0.63793271418E+01  0.10345725567E+01  0.69087213060E+00  0.64994968820E+01  0.51100000000E-03 0.  1.
        -12    1    3    3    0    0  0.16125656246E+02  0.43377991981E+01  0.86107013180E+01  0.18788226857E+02  0.00000000000E+00 0.  1.
</event>
<event>
 7    1  0.1486782E-008  0.4614232E+02  0.7816164E-02  0.1320468E+00
        -11   -1    0    0    0    0  0.00000000000E+00  0.00000000000E+00  0.45593999997E+02  0.45594000000E+02  0.51100000000E-03 0.  1.
         11   -1    0    0    0    0 -0.00000000000E+00 -0.00000000000E+00 -0.45593999997E+02  0.45594000000E+02  0.51100000000E-03 0. -1.
    9900012    2    1    2    0    0 -0.11288275308E+02 -0.26221686339E+02 -0.34844104242E+02  0.46142316585E+02  0.99999892730E+01 0.  0.
        -12    1    1    2    0    0  0.11288275308E+02  0.26221686339E+02  0.34844104242E+02  0.45045683415E+02  0.00000000000E+00 0.  1.
         11    1    3    3    0    0 -0.88276632758E+01 -0.90750597788E+01 -0.11857077809E+02  0.17345738478E+02  0.51100000000E-03 0. -1.
        -11    1    3    3    0    0 -0.60287691501E+00 -0.69293633865E+01 -0.89035685585E+01  0.11298365849E+02  0.51100000000E-03 0.  1.
         12    1    3    3    0    0 -0.18577351168E+01 -0.10217263174E+02 -0.14083457874E+02  0.17498212258E+02  0.00000000000E+00 0. -1.
</event>
<event>
 7    1  0.1486782E-008  0.4614232E+02  0.7816164E-02  0.1320468E+00
        -11   -1    0    0    0    0  0.00000000000E+00  0.00000000000E+00  0.45593999997E+02  0.45594000000E+02  0.51100000000E-03 0.  1.
         11   -1    0    0    0    0 -0.00000000000E+00 -0.00000000000E+00 -0.45593999997E+02  0.45594000000E+02  0.51100000000E-03 0. -1.
    9900012    2    1    2    0    0 -0.70075460905E+01 -0.42742125760E+02 -0.12374101555E+02  0.46142318675E+02  0.10000008335E+02 0.  0.
        -12    1    1    2    0    0  0.70075460905E+01  0.42742125760E+02  0.12374101555E+02  0.45045681325E+02  0.00000000000E+00 0.  1.
         11    1    3    3    0    0  0.63337375783E-01 -0.12029402858E+02 -0.62942059791E+01  0.13576729132E+02  0.51100000000E-03 0. -1.
        -11    1    3    3    0    0 -0.19926144650E+01 -0.36042987735E+01  0.66764198338E+00  0.41721970392E+01  0.51100000000E-03 0.  1.
         12    1    3    3    0    0 -0.50782690013E+01 -0.27108424129E+02 -0.67475375593E+01  0.28393392504E+02  0.00000000000E+00 0. -1.
</event>
<event>
 7    1  0.1486782E-008  0.4614232E+02  0.7816164E-02  0.1320468E+00
        -11   -1    0    0    0    0  0.00000000000E+00  0.00000000000E+00  0.45593999997E+02  0.45594000000E+02  0.51100000000E-03 0.  1.
         11   -1    0    0    0    0 -0.00000000000E+00 -0.00000000000E+00 -0.45593999997E+02  0.45594000000E+02  0.51100000000E-03 0. -1.
    9900012    2    1    2    0    0  0.33673453697E+02  0.70516104582E+01 -0.29077254998E+02  0.46142318163E+02  0.10000003664E+02 0.  0.
        -12    1    1    2    0    0 -0.33673453697E+02 -0.70516104582E+01  0.29077254998E+02  0.45045681837E+02  0.00000000000E+00 0.  1.
         11    1    3    3    0    0  0.50655583772E+01  0.49142456176E+01 -0.46059150274E+01  0.84275824033E+01  0.51100000000E-03 0.  1.
        -11    1    3    3    0    0  0.25231875037E+02  0.19461035882E+01 -0.21892156783E+02  0.33461939065E+02  0.51100000000E-03 0. -1.
        -12    1    3    3    0    0  0.33760202826E+01  0.19126125238E+00 -0.25791831872E+01  0.42527966949E+01  0.00000000000E+00 0.  1.
</event>
<event>
 7    1  0.1486782E-008  0.4614232E+02  0.7816164E-02  0.1320468E+00
        -11   -1    0    0    0    0  0.00000000000E+00  0.00000000000E+00  0.45593999997E+02  0.45594000000E+02  0.51100000000E-03 0.  1.
         11   -1    0    0    0    0 -0.00000000000E+00 -0.00000000000E+00 -0.45593999997E+02  0.45594000000E+02  0.51100000000E-03 0. -1.
    9900012    2    1    2    0    0  0.44077322675E+02  0.52216522019E+01 -0.76835753032E+01  0.46142319237E+02  0.10000013461E+02 0.  0.
        -12    1    1    2    0    0 -0.44077322675E+02 -0.52216522019E+01  0.76835753032E+01  0.45045680763E+02  0.00000000000E+00 0.  1.
         11    1    3    3    0    0  0.20446923831E+02  0.49449392872E+01 -0.70033874845E+01  0.22171525776E+02  0.51100000000E-03 0. -1.
        -11    1    3    3    0    0  0.19881031784E+02 -0.84059625134E+00 -0.15631216875E+01  0.19960094602E+02  0.51100000000E-03 0.  1.
         12    1    3    3    0    0  0.37493670598E+01  0.11173091660E+01  0.88293386879E+00  0.40106988590E+01  0.00000000000E+00 0. -1.
</event>
<event>
 7    1  0.1486782E-008  0.4614232E+02  0.7816164E-02  0.1320468E+00
        -11   -1    0    0    0    0  0.00000000000E+00  0.00000000000E+00  0.45593999997E+02  0.45594000000E+02  0.51100000000E-03 0.  1.
         11   -1    0    0    0    0 -0.00000000000E+00 -0.00000000000E+00 -0.45593999997E+02  0.45594000000E+02  0.51100000000E-03 0. -1.
    9900012    2    1    2    0    0  0.34532681897E+02 -0.24783324769E+02  0.14912885813E+02  0.46142317978E+02  0.10000001975E+02 0.  0.
        -12    1    1    2    0    0 -0.34532681897E+02  0.24783324769E+02 -0.14912885813E+02  0.45045682022E+02  0.00000000000E+00 0.  1.
         11    1    3    3    0    0  0.78729130419E+01 -0.89193970043E+01  0.45647006168E+00  0.11905745162E+02  0.51100000000E-03 0. -1.
        -11    1    3    3    0    0  0.18557842370E+02 -0.10928757687E+02  0.10459672866E+02  0.23942347728E+02  0.51100000000E-03 0.  1.
         12    1    3    3    0    0  0.81019264846E+01 -0.49351700773E+01  0.39967428856E+01  0.10294225087E+02  0.00000000000E+00 0. -1.
</event>
<event>
 7    1  0.1486782E-008  0.4614232E+02  0.7816164E-02  0.1320468E+00
        -11   -1    0    0    0    0  0.00000000000E+00  0.00000000000E+00  0.45593999997E+02  0.45594000000E+02  0.51100000000E-03 0. -1.
         11   -1    0    0    0    0 -0.00000000000E+00 -0.00000000000E+00 -0.45593999997E+02  0.45594000000E+02  0.51100000000E-03 0.  1.
    9900012    2    1    2    0    0  0.17764469722E+02  0.38692317501E+02  0.14711955328E+02  0.46142318213E+02  0.10000004120E+02 0.  0.
        -12    1    1    2    0    0 -0.17764469722E+02 -0.38692317501E+02 -0.14711955328E+02  0.45045681787E+02  0.00000000000E+00 0.  1.
         11    1    3    3    0    0  0.84441373415E+01  0.18386939565E+02  0.81867243130E+01  0.21826714303E+02  0.51100000000E-03 0. -1.
        -11    1    3    3    0    0  0.35814130646E+01  0.49517336849E+01 -0.11467994327E+01  0.62178239944E+01  0.51100000000E-03 0.  1.
        -12    1    3    3    0    0  0.57389193157E+01  0.15353644251E+02  0.76720304477E+01  0.18097779916E+02  0.00000000000E+00 0.  1.
</event>
<event>
 7    1  0.1486782E-008  0.4614232E+02  0.7816164E-02  0.1320468E+00
        -11   -1    0    0    0    0  0.00000000000E+00  0.00000000000E+00  0.45593999997E+02  0.45594000000E+02  0.51100000000E-03 0.  1.
         11   -1    0    0    0    0 -0.00000000000E+00 -0.00000000000E+00 -0.45593999997E+02  0.45594000000E+02  0.51100000000E-03 0. -1.
    9900012    2    1    2    0    0  0.20463145119E+02 -0.37839353955E+01 -0.39950656974E+02  0.46142317989E+02  0.10000002076E+02 0.  0.
        -12    1    1    2    0    0 -0.20463145119E+02  0.37839353955E+01  0.39950656974E+02  0.45045682011E+02  0.00000000000E+00 0.  1.
         11    1    3    3    0    0  0.97815437297E+01  0.26811838660E+00 -0.27276713594E+02  0.28978778269E+02  0.51100000000E-03 0. -1.
        -11    1    3    3    0    0  0.43119982236E+01 -0.23932894799E+01 -0.63042569832E+01  0.80040501989E+01  0.51100000000E-03 0.  1.
         12    1    3    3    0    0  0.63696031655E+01 -0.16587643022E+01 -0.63696863966E+01  0.91594895211E+01  0.00000000000E+00 0. -1.
</event>
<event>
 7    1  0.1486782E-008  0.4614232E+02  0.7816164E-02  0.1320468E+00
        -11   -1    0    0    0    0  0.00000000000E+00  0.00000000000E+00  0.45593999997E+02  0.45594000000E+02  0.51100000000E-03 0.  1.
         11   -1    0    0    0    0 -0.00000000000E+00 -0.00000000000E+00 -0.45593999997E+02  0.45594000000E+02  0.51100000000E-03 0. -1.
    9900012    2    1    2    0    0  0.28382958757E+02  0.31845625203E+02 -0.14469875198E+02  0.46142317847E+02  0.10000000786E+02 0.  0.
        -12    1    1    2    0    0 -0.28382958757E+02 -0.31845625203E+02  0.14469875198E+02  0.45045682153E+02  0.00000000000E+00 0.  1.
         11    1    3    3    0    0  0.14546052062E+02  0.18108898432E+02 -0.78561920803E+01  0.24520187342E+02  0.51100000000E-03 0. -1.
        -11    1    3    3    0    0  0.28880988299E+01  0.73779719599E+01 -0.24255152958E+01  0.82860551412E+01  0.51100000000E-03 0.  1.
         12    1    3    3    0    0  0.10948807866E+02  0.63587548104E+01 -0.41881678224E+01  0.13336075364E+02  0.00000000000E+00 0. -1.
</event>
<event>
 7    1  0.1486782E-008  0.4614232E+02  0.7816164E-02  0.1320468E+00
        -11   -1    0    0    0    0  0.00000000000E+00  0.00000000000E+00  0.45593999997E+02  0.45594000000E+02  0.51100000000E-03 0.  1.
         11   -1    0    0    0    0 -0.00000000000E+00 -0.00000000000E+00 -0.45593999997E+02  0.45594000000E+02  0.51100000000E-03 0. -1.
    9900012    2    1    2    0    0 -0.37483550728E+02  0.21223435049E+02 -0.13178117378E+02  0.46142317098E+02  0.99999939527E+01 0.  0.
        -12    1    1    2    0    0  0.37483550728E+02 -0.21223435049E+02  0.13178117378E+02  0.45045682902E+02  0.00000000000E+00 0.  1.
         11    1    3    3    0    0 -0.26100722356E+02  0.15518838849E+02 -0.10348345130E+02  0.32080684436E+02  0.51100000000E-03 0. -1.
        -11    1    3    3    0    0 -0.78555812755E+01  0.63321483965E+01 -0.13278373077E+01  0.10176905849E+02  0.51100000000E-03 0.  1.
         12    1    3    3    0    0 -0.35272470969E+01 -0.62755219584E+00 -0.15019349406E+01  0.38847268124E+01  0.00000000000E+00 0. -1.
</event>
<event>
 7    1  0.1486782E-008  0.4614232E+02  0.7816164E-02  0.1320468E+00
        -11   -1    0    0    0    0  0.00000000000E+00  0.00000000000E+00  0.45593999997E+02  0.45594000000E+02  0.51100000000E-03 0. -1.
         11   -1    0    0    0    0 -0.00000000000E+00 -0.00000000000E+00 -0.45593999997E+02  0.45594000000E+02  0.51100000000E-03 0.  1.
    9900012    2    1    2    0    0 -0.29778023019E+02 -0.26885327226E+02  0.20483213890E+02  0.46142317341E+02  0.99999961715E+01 0.  0.
        -12    1    1    2    0    0  0.29778023019E+02  0.26885327226E+02 -0.20483213890E+02  0.45045682659E+02  0.00000000000E+00 0.  1.
         11    1    3    3    0    0 -0.46442695401E+01 -0.40002473245E+01  0.64600365710E+01  0.89052395239E+01  0.51100000000E-03 0.  1.
        -11    1    3    3    0    0 -0.11800956560E+02 -0.75842828363E+01  0.39132930553E+01  0.14563577331E+02  0.51100000000E-03 0. -1.
         12    1    3    3    0    0 -0.13332796919E+02 -0.15300797065E+02  0.10109884263E+02  0.22673500487E+02  0.00000000000E+00 0. -1.
</event>
<event>
 7    1  0.1486782E-008  0.4614232E+02  0.7816164E-02  0.1320468E+00
        -11   -1    0    0    0    0  0.00000000000E+00  0.00000000000E+00  0.45593999997E+02  0.45594000000E+02  0.51100000000E-03 0.  1.
         11   -1    0    0    0    0 -0.00000000000E+00 -0.00000000000E+00 -0.45593999997E+02  0.45594000000E+02  0.51100000000E-03 0. -1.
    9900012    2    1    2    0    0 -0.35096918880E+02  0.20698449535E+02 -0.19206613389E+02  0.46142317344E+02  0.99999961990E+01 0.  0.
        -12    1    1    2    0    0  0.35096918880E+02 -0.20698449535E+02  0.19206613389E+02  0.45045682656E+02  0.00000000000E+00 0.  1.
         11    1    3    3    0    0 -0.14687710610E+02  0.11333039056E+02 -0.11284564207E+02  0.21714235119E+02  0.51100000000E-03 0. -1.
        -11    1    3    3    0    0 -0.66806424374E+01  0.48730226736E+01 -0.75658342420E+00  0.83035987435E+01  0.51100000000E-03 0.  1.
        -12    1    3    3    0    0 -0.13728565833E+02  0.44923878060E+01 -0.71654657571E+01  0.16124483482E+02  0.00000000000E+00 0.  1.
</event>
<event>
 7    1  0.1486782E-008  0.4614232E+02  0.7816164E-02  0.1320468E+00
        -11   -1    0    0    0    0  0.00000000000E+00  0.00000000000E+00  0.45593999997E+02  0.45594000000E+02  0.51100000000E-03 0.  1.
         11   -1    0    0    0    0 -0.00000000000E+00 -0.00000000000E+00 -0.45593999997E+02  0.45594000000E+02  0.51100000000E-03 0. -1.
    9900012    2    1    2    0    0  0.13934181399E+02  0.79446904872E+01 -0.42093158914E+02  0.46142317126E+02  0.99999942085E+01 0.  0.
        -12    1    1    2    0    0 -0.13934181399E+02 -0.79446904872E+01  0.42093158914E+02  0.45045682874E+02  0.00000000000E+00 0.  1.
         11    1    3    3    0    0  0.44550513409E+01  0.39821857170E+01 -0.93164010860E+01  0.11067999593E+02  0.51100000000E-03 0. -1.
        -11    1    3    3    0    0  0.74843005886E+01  0.59530677079E+01 -0.23263051109E+02  0.25152004246E+02  0.51100000000E-03 0.  1.
        -12    1    3    3    0    0  0.19948294699E+01 -0.19905629378E+01 -0.95137067196E+01  0.99223132872E+01  0.00000000000E+00 0.  1.
</event>
<event>
 7    1  0.1486782E-008  0.4614232E+02  0.7816164E-02  0.1320468E+00
        -11   -1    0    0    0    0  0.00000000000E+00  0.00000000000E+00  0.45593999997E+02  0.45594000000E+02  0.51100000000E-03 0. -1.
         11   -1    0    0    0    0 -0.00000000000E+00 -0.00000000000E+00 -0.45593999997E+02  0.45594000000E+02  0.51100000000E-03 0.  1.
    9900012    2    1    2    0    0  0.35706157482E+02  0.25358633619E+02 -0.10541512978E+02  0.46142317888E+02  0.10000001153E+02 0.  0.
        -12    1    1    2    0    0 -0.35706157482E+02 -0.25358633619E+02  0.10541512978E+02  0.45045682112E+02  0.00000000000E+00 0.  1.
         11    1    3    3    0    0 -0.22539091570E+00  0.60443698103E+00 -0.90406694974E+00  0.11106225460E+01  0.51100000000E-03 0.  1.
        -11    1    3    3    0    0  0.34343072903E+02  0.24184962407E+02 -0.10249574269E+02  0.43236707044E+02  0.51100000000E-03 0. -1.
        -12    1    3    3    0    0  0.15884754941E+01  0.56923423096E+00  0.61212824085E+00  0.17949882975E+01  0.00000000000E+00 0.  1.
</event>
<event>
 7    1  0.1486782E-008  0.4614232E+02  0.7816164E-02  0.1320468E+00
        -11   -1    0    0    0    0  0.00000000000E+00  0.00000000000E+00  0.45593999997E+02  0.45594000000E+02  0.51100000000E-03 0. -1.
         11   -1    0    0    0    0 -0.00000000000E+00 -0.00000000000E+00 -0.45593999997E+02  0.45594000000E+02  0.51100000000E-03 0.  1.
    9900012    2    1    2    0    0 -0.96583886856E+01 -0.91001842842E+01  0.43046667710E+02  0.46142318443E+02  0.10000006215E+02 0.  0.
        -12    1    1    2    0    0  0.96583886856E+01  0.91001842842E+01 -0.43046667710E+02  0.45045681557E+02  0.00000000000E+00 0.  1.
         11    1    3    3    0    0 -0.58893298158E+01 -0.77674229550E+01  0.20138259653E+02  0.22373345015E+02  0.51100000000E-03 0. -1.
        -11    1    3    3    0    0  0.10825415972E+01 -0.23534780958E+00  0.73977335359E+01  0.74802237019E+01  0.51100000000E-03 0.  1.
        -12    1    3    3    0    0 -0.48516004671E+01 -0.10974135196E+01  0.15510674521E+02  0.16288749726E+02  0.00000000000E+00 0.  1.
</event>
<event>
 7    1  0.1486782E-008  0.4614232E+02  0.7816164E-02  0.1320468E+00
        -11   -1    0    0    0    0  0.00000000000E+00  0.00000000000E+00  0.45593999997E+02  0.45594000000E+02  0.51100000000E-03 0.  1.
         11   -1    0    0    0    0 -0.00000000000E+00 -0.00000000000E+00 -0.45593999997E+02  0.45594000000E+02  0.51100000000E-03 0. -1.
    9900012    2    1    2    0    0 -0.56522552268E+01  0.19850033946E+02 -0.40039251614E+02  0.46142317559E+02  0.99999981530E+01 0.  0.
        -12    1    1    2    0    0  0.56522552268E+01 -0.19850033946E+02  0.40039251614E+02  0.45045682441E+02  0.00000000000E+00 0.  1.
         11    1    3    3    0    0  0.11195766797E-01  0.41083697367E+01 -0.12147499807E+02  0.12823438660E+02  0.51100000000E-03 0. -1.
        -11    1    3    3    0    0 -0.10676620916E+01  0.76927205566E+00 -0.74587792099E+01  0.75739731581E+01  0.51100000000E-03 0.  1.
        -12    1    3    3    0    0 -0.45957889020E+01  0.14972392154E+02 -0.20432972597E+02  0.25744905740E+02  0.00000000000E+00 0.  1.
</event>
<event>
 7    1  0.1486782E-008  0.4614232E+02  0.7816164E-02  0.1320468E+00
        -11   -1    0    0    0    0  0.00000000000E+00  0.00000000000E+00  0.45593999997E+02  0.45594000000E+02  0.51100000000E-03 0.  1.
         11   -1    0    0    0    0 -0.00000000000E+00 -0.00000000000E+00 -0.45593999997E+02  0.45594000000E+02  0.51100000000E-03 0. -1.
    9900012    2    1    2    0    0  0.22410368814E+02  0.17216588735E+02 -0.35078167457E+02  0.46142318851E+02  0.10000009938E+02 0.  0.
        -12    1    1    2    0    0 -0.22410368814E+02 -0.17216588735E+02  0.35078167457E+02  0.45045681149E+02  0.00000000000E+00 0.  1.
         11    1    3    3    0    0  0.33820343090E-01 -0.60191442833E+00 -0.18537077699E+01  0.19492761610E+01  0.51100000000E-03 0.  1.
        -11    1    3    3    0    0  0.20925812634E+02  0.15763620642E+02 -0.27722711433E+02  0.38143545975E+02  0.51100000000E-03 0. -1.
         12    1    3    3    0    0  0.14507358368E+01  0.20548825221E+01 -0.55017482542E+01  0.60494967147E+01  0.00000000000E+00 0. -1.
</event>
<event>
 7    1  0.1486782E-008  0.4614232E+02  0.7816164E-02  0.1320468E+00
        -11   -1    0    0    0    0  0.00000000000E+00  0.00000000000E+00  0.45593999997E+02  0.45594000000E+02  0.51100000000E-03 0.  1.
         11   -1    0    0    0    0 -0.00000000000E+00 -0.00000000000E+00 -0.45593999997E+02  0.45594000000E+02  0.51100000000E-03 0. -1.
    9900012    2    1    2    0    0  0.78692072744E+01 -0.32506396200E+02 -0.30174879777E+02  0.46142316670E+02  0.99999900521E+01 0.  0.
        -12    1    1    2    0    0 -0.78692072744E+01  0.32506396200E+02  0.30174879777E+02  0.45045683330E+02  0.00000000000E+00 0.  1.
         11    1    3    3    0    0  0.18497237745E+00 -0.10142998525E+01 -0.89184082612E+00  0.13632311951E+01  0.51100000000E-03 0. -1.
        -11    1    3    3    0    0  0.23836138250E+01 -0.14989990746E+02 -0.20030046404E+02  0.25131338934E+02  0.51100000000E-03 0.  1.
        -12    1    3    3    0    0  0.53006210720E+01 -0.16502105602E+02 -0.92529925477E+01  0.19647746541E+02  0.00000000000E+00 0.  1.
</event>
<event>
 7    1  0.1486782E-008  0.4614232E+02  0.7816164E-02  0.1320468E+00
        -11   -1    0    0    0    0  0.00000000000E+00  0.00000000000E+00  0.45593999997E+02  0.45594000000E+02  0.51100000000E-03 0.  1.
         11   -1    0    0    0    0 -0.00000000000E+00 -0.00000000000E+00 -0.45593999997E+02  0.45594000000E+02  0.51100000000E-03 0. -1.
    9900012    2    1    2    0    0  0.22931387174E+02 -0.20320981139E+01 -0.38718666809E+02  0.46142322073E+02  0.10000039318E+02 0.  0.
        -12    1    1    2    0    0 -0.22931387174E+02  0.20320981139E+01  0.38718666809E+02  0.45045677927E+02  0.00000000000E+00 0.  1.
         11    1    3    3    0    0  0.15040929534E+02  0.49455481737E-01 -0.22338713232E+02  0.26930468177E+02  0.51100000000E-03 0. -1.
        -11    1    3    3    0    0 -0.64978941186E+00 -0.81959579691E+00 -0.55202576514E+00  0.11826648961E+01  0.51100000000E-03 0.  1.
        -12    1    3    3    0    0  0.85402470516E+01 -0.12619577987E+01 -0.15827927812E+02  0.18029189000E+02  0.00000000000E+00 0.  1.
</event>
<event>
 7    1  0.1486782E-008  0.4614232E+02  0.7816164E-02  0.1320468E+00
        -11   -1    0    0    0    0  0.00000000000E+00  0.00000000000E+00  0.45593999997E+02  0.45594000000E+02  0.51100000000E-03 0.  1.
         11   -1    0    0    0    0 -0.00000000000E+00 -0.00000000000E+00 -0.45593999997E+02  0.45594000000E+02  0.51100000000E-03 0. -1.
    9900012    2    1    2    0    0 -0.12217626723E+02 -0.41045029494E+02 -0.13969563251E+02  0.46142317117E+02  0.99999941286E+01 0.  0.
        -12    1    1    2    0    0  0.12217626723E+02  0.41045029494E+02  0.13969563251E+02  0.45045682883E+02  0.00000000000E+00 0.  1.
         11    1    3    3    0    0  0.11619092446E+01 -0.17467485991E+01 -0.28141926796E-01  0.20980838855E+01  0.51100000000E-03 0. -1.
        -11    1    3    3    0    0 -0.10059050431E+02 -0.22389744689E+02 -0.79540972542E+01  0.25802186462E+02  0.51100000000E-03 0.  1.
         12    1    3    3    0    0 -0.33204855369E+01 -0.16908536206E+02 -0.59873240704E+01  0.18242046770E+02  0.00000000000E+00 0. -1.
</event>
<event>
 7    1  0.1486782E-008  0.4614232E+02  0.7816164E-02  0.1320468E+00
        -11   -1    0    0    0    0  0.00000000000E+00  0.00000000000E+00  0.45593999997E+02  0.45594000000E+02  0.51100000000E-03 0.  1.
         11   -1    0    0    0    0 -0.00000000000E+00 -0.00000000000E+00 -0.45593999997E+02  0.45594000000E+02  0.51100000000E-03 0. -1.
    9900012    2    1    2    0    0 -0.17038420969E+02 -0.41676326695E+02 -0.13746368815E+01  0.46142316273E+02  0.99999864257E+01 0.  0.
        -12    1    1    2    0    0  0.17038420969E+02  0.41676326695E+02  0.13746368815E+01  0.45045683727E+02  0.00000000000E+00 0.  1.
         11    1    3    3    0    0 -0.18058386351E+02 -0.40421636869E+02 -0.20505050333E+01  0.44319506043E+02  0.51100000000E-03 0. -1.
        -11    1    3    3    0    0  0.23566308104E-01 -0.32825684678E+00  0.17704816272E+00  0.37370341366E+00  0.51100000000E-03 0.  1.
         12    1    3    3    0    0  0.99639907452E+00 -0.92643297995E+00  0.49881998903E+00  0.14491068158E+01  0.00000000000E+00 0. -1.
</event>
<event>
 7    1  0.1486782E-008  0.4614232E+02  0.7816164E-02  0.1320468E+00
        -11   -1    0    0    0    0  0.00000000000E+00  0.00000000000E+00  0.45593999997E+02  0.45594000000E+02  0.51100000000E-03 0.  1.
         11   -1    0    0    0    0 -0.00000000000E+00 -0.00000000000E+00 -0.45593999997E+02  0.45594000000E+02  0.51100000000E-03 0. -1.
    9900012    2    1    2    0    0 -0.39047548799E+02  0.15039099125E+02 -0.16680166441E+02  0.46142317385E+02  0.99999965745E+01 0.  0.
        -12    1    1    2    0    0  0.39047548799E+02 -0.15039099125E+02  0.16680166441E+02  0.45045682615E+02  0.00000000000E+00 0.  1.
         11    1    3    3    0    0 -0.12857307168E+02  0.84290035778E+01 -0.64168390772E+01  0.16659359920E+02  0.51100000000E-03 0. -1.
        -11    1    3    3    0    0 -0.20775710029E+02  0.71569129538E+01 -0.66788443064E+01  0.22966464503E+02  0.51100000000E-03 0.  1.
        -12    1    3    3    0    0 -0.54145316022E+01 -0.54681740673E+00 -0.35844830571E+01  0.65164929628E+01  0.00000000000E+00 0.  1.
</event>
<event>
 7    1  0.1486782E-008  0.4614232E+02  0.7816164E-02  0.1320468E+00
        -11   -1    0    0    0    0  0.00000000000E+00  0.00000000000E+00  0.45593999997E+02  0.45594000000E+02  0.51100000000E-03 0.  1.
         11   -1    0    0    0    0 -0.00000000000E+00 -0.00000000000E+00 -0.45593999997E+02  0.45594000000E+02  0.51100000000E-03 0. -1.
    9900012    2    1    2    0    0  0.20063185226E+01 -0.12732774220E+02 -0.43162073978E+02  0.46142317816E+02  0.10000000503E+02 0.  0.
        -12    1    1    2    0    0 -0.20063185226E+01  0.12732774220E+02  0.43162073978E+02  0.45045682184E+02  0.00000000000E+00 0.  1.
         11    1    3    3    0    0  0.15737870955E+01 -0.10025669638E+02 -0.32388748365E+02  0.33941447795E+02  0.51100000000E-03 0. -1.
        -11    1    3    3    0    0 -0.15166983584E+00  0.14846713985E+01 -0.26636903869E+01  0.30532768690E+01  0.51100000000E-03 0.  1.
        -12    1    3    3    0    0  0.58420126295E+00 -0.41917759803E+01 -0.81096352255E+01  0.91475931521E+01  0.00000000000E+00 0.  1.
</event>
<event>
 7    1  0.1486782E-008  0.4614232E+02  0.7816164E-02  0.1320468E+00
        -11   -1    0    0    0    0  0.00000000000E+00  0.00000000000E+00  0.45593999997E+02  0.45594000000E+02  0.51100000000E-03 0. -1.
         11   -1    0    0    0    0 -0.00000000000E+00 -0.00000000000E+00 -0.45593999997E+02  0.45594000000E+02  0.51100000000E-03 0.  1.
    9900012    2    1    2    0    0 -0.39238608642E+01  0.34179445354E+02 -0.29077176136E+02  0.46142319399E+02  0.10000014935E+02 0.  0.
        -12    1    1    2    0    0  0.39238608642E+01 -0.34179445354E+02  0.29077176136E+02  0.45045680601E+02  0.00000000000E+00 0.  1.
         11    1    3    3    0    0  0.18832494745E+01  0.14622928155E+02 -0.11489837262E+02  0.18692057591E+02  0.51100000000E-03 0.  1.
        -11    1    3    3    0    0 -0.59593305501E+01  0.12277550936E+02 -0.12980020788E+02  0.18834352060E+02  0.51100000000E-03 0. -1.
         12    1    3    3    0    0  0.15222021139E+00  0.72789662621E+01 -0.46073180858E+01  0.86159097477E+01  0.00000000000E+00 0. -1.
</event>
<event>
 7    1  0.1486782E-008  0.4614232E+02  0.7816164E-02  0.1320468E+00
        -11   -1    0    0    0    0  0.00000000000E+00  0.00000000000E+00  0.45593999997E+02  0.45594000000E+02  0.51100000000E-03 0.  1.
         11   -1    0    0    0    0 -0.00000000000E+00 -0.00000000000E+00 -0.45593999997E+02  0.45594000000E+02  0.51100000000E-03 0. -1.
    9900012    2    1    2    0    0  0.19575419965E+02  0.36603629554E+01 -0.40404432759E+02  0.46142317517E+02  0.99999977764E+01 0.  0.
        -12    1    1    2    0    0 -0.19575419965E+02 -0.36603629554E+01  0.40404432759E+02  0.45045682483E+02  0.00000000000E+00 0.  1.
         11    1    3    3    0    0  0.90043778891E+01  0.48939251241E+01 -0.14947665694E+02  0.18123521574E+02  0.51100000000E-03 0. -1.
        -11    1    3    3    0    0  0.10429387449E+02 -0.22309696357E+01 -0.22615143131E+02  0.25003880643E+02  0.51100000000E-03 0.  1.
        -12    1    3    3    0    0  0.14165462644E+00  0.99740746699E+00 -0.28416239335E+01  0.30149153003E+01  0.00000000000E+00 0.  1.
</event>
<event>
 7    1  0.1486782E-008  0.4614232E+02  0.7816164E-02  0.1320468E+00
        -11   -1    0    0    0    0  0.00000000000E+00  0.00000000000E+00  0.45593999997E+02  0.45594000000E+02  0.51100000000E-03 0. -1.
         11   -1    0    0    0    0 -0.00000000000E+00 -0.00000000000E+00 -0.45593999997E+02  0.45594000000E+02  0.51100000000E-03 0.  1.
    9900012    2    1    2    0    0  0.24606097826E+02 -0.36979440530E+02  0.74949683394E+01  0.46142316272E+02  0.99999864221E+01 0.  0.
        -12    1    1    2    0    0 -0.24606097826E+02  0.36979440530E+02 -0.74949683394E+01  0.45045683728E+02  0.00000000000E+00 0.  1.
         11    1    3    3    0    0  0.10403523281E+02 -0.11382818000E+02  0.65464821702E+01  0.16752858602E+02  0.51100000000E-03 0. -1.
        -11    1    3    3    0    0  0.13005372981E+01 -0.30776505121E+01 -0.58086596815E+00  0.33912734293E+01  0.51100000000E-03 0.  1.
         12    1    3    3    0    0  0.12902037247E+02 -0.22518972018E+02  0.15293521373E+01  0.25998184241E+02  0.00000000000E+00 0. -1.
</event>
<event>
 7    1  0.1486782E-008  0.4614232E+02  0.7816164E-02  0.1320468E+00
        -11   -1    0    0    0    0  0.00000000000E+00  0.00000000000E+00  0.45593999997E+02  0.45594000000E+02  0.51100000000E-03 0. -1.
         11   -1    0    0    0    0 -0.00000000000E+00 -0.00000000000E+00 -0.45593999997E+02  0.45594000000E+02  0.51100000000E-03 0.  1.
    9900012    2    1    2    0    0  0.28282008274E+02  0.35039833172E+02 -0.12048649080E+01  0.46142316520E+02  0.99999886804E+01 0.  0.
        -12    1    1    2    0    0 -0.28282008274E+02 -0.35039833172E+02  0.12048649080E+01  0.45045683480E+02  0.00000000000E+00 0.  1.
         11    1    3    3    0    0  0.19908361727E+02  0.28326012769E+02 -0.15183935305E+01  0.34655611165E+02  0.51100000000E-03 0. -1.
        -11    1    3    3    0    0  0.18544648232E+01  0.81357035133E+00  0.16252887439E+01  0.25966324845E+01  0.51100000000E-03 0.  1.
        -12    1    3    3    0    0  0.65191817240E+01  0.59002500521E+01 -0.13117601214E+01  0.88900728706E+01  0.00000000000E+00 0.  1.
</event>
<event>
 7    1  0.1486782E-008  0.4614232E+02  0.7816164E-02  0.1320468E+00
        -11   -1    0    0    0    0  0.00000000000E+00  0.00000000000E+00  0.45593999997E+02  0.45594000000E+02  0.51100000000E-03 0.  1.
         11   -1    0    0    0    0 -0.00000000000E+00 -0.00000000000E+00 -0.45593999997E+02  0.45594000000E+02  0.51100000000E-03 0. -1.
    9900012    2    1    2    0    0 -0.38609028744E+02 -0.20866363737E+02  0.10151412849E+02  0.46142318531E+02  0.10000007024E+02 0.  0.
        -12    1    1    2    0    0  0.38609028744E+02  0.20866363737E+02 -0.10151412849E+02  0.45045681469E+02  0.00000000000E+00 0.  1.
         11    1    3    3    0    0 -0.12861677974E+02 -0.10074615514E+02  0.33961375788E+01  0.16686952651E+02  0.51100000000E-03 0. -1.
        -11    1    3    3    0    0 -0.12928618460E+02 -0.48551768548E+01  0.31662458428E-01  0.13810246933E+02  0.51100000000E-03 0.  1.
        -12    1    3    3    0    0 -0.12818732310E+02 -0.59365713682E+01  0.67236128118E+01  0.15645118948E+02  0.00000000000E+00 0.  1.
</event>
<event>
 7    1  0.1486782E-008  0.4614232E+02  0.7816164E-02  0.1320468E+00
        -11   -1    0    0    0    0  0.00000000000E+00  0.00000000000E+00  0.45593999997E+02  0.45594000000E+02  0.51100000000E-03 0.  1.
         11   -1    0    0    0    0 -0.00000000000E+00 -0.00000000000E+00 -0.45593999997E+02  0.45594000000E+02  0.51100000000E-03 0. -1.
    9900012    2    1    2    0    0 -0.23733907299E+02 -0.14355817964E+02 -0.35492613349E+02  0.46142317993E+02  0.10000002116E+02 0.  0.
        -12    1    1    2    0    0  0.23733907299E+02  0.14355817964E+02  0.35492613349E+02  0.45045682007E+02  0.00000000000E+00 0.  1.
         11    1    3    3    0    0 -0.53616651842E+01 -0.30420043451E+01 -0.10135456815E+02  0.11862914022E+02  0.51100000000E-03 0. -1.
        -11    1    3    3    0    0 -0.17233806560E+02 -0.69928327515E+01 -0.20388721725E+02  0.27597169642E+02  0.51100000000E-03 0.  1.
        -12    1    3    3    0    0 -0.11384355555E+01 -0.43209808678E+01 -0.49684348087E+01  0.66822343286E+01  0.00000000000E+00 0.  1.
</event>
<event>
 7    1  0.1486782E-008  0.4614232E+02  0.7816164E-02  0.1320468E+00
        -11   -1    0    0    0    0  0.00000000000E+00  0.00000000000E+00  0.45593999997E+02  0.45594000000E+02  0.51100000000E-03 0.  1.
         11   -1    0    0    0    0 -0.00000000000E+00 -0.00000000000E+00 -0.45593999997E+02  0.45594000000E+02  0.51100000000E-03 0. -1.
    9900012    2    1    2    0    0 -0.79557031672E+01 -0.33071647584E+02 -0.29531109331E+02  0.46142317575E+02  0.99999983029E+01 0.  0.
        -12    1    1    2    0    0  0.79557031672E+01  0.33071647584E+02  0.29531109331E+02  0.45045682425E+02  0.00000000000E+00 0.  1.
         11    1    3    3    0    0 -0.32974518703E+01 -0.94050664737E+01 -0.10921177845E+02  0.14785147615E+02  0.51100000000E-03 0. -1.
        -11    1    3    3    0    0 -0.28080116174E+01 -0.22328600965E+02 -0.18390979664E+02  0.29063370134E+02  0.51100000000E-03 0.  1.
        -12    1    3    3    0    0 -0.18502396796E+01 -0.13379801459E+01 -0.21895182210E+00  0.22937998263E+01  0.00000000000E+00 0.  1.
</event>
<event>
 7    1  0.1486782E-008  0.4614232E+02  0.7816164E-02  0.1320468E+00
        -11   -1    0    0    0    0  0.00000000000E+00  0.00000000000E+00  0.45593999997E+02  0.45594000000E+02  0.51100000000E-03 0.  1.
         11   -1    0    0    0    0 -0.00000000000E+00 -0.00000000000E+00 -0.45593999997E+02  0.45594000000E+02  0.51100000000E-03 0. -1.
    9900012    2    1    2    0    0  0.26049869675E+02  0.10940338665E+02 -0.35083133431E+02  0.46142323498E+02  0.10000052312E+02 0.  0.
        -12    1    1    2    0    0 -0.26049869675E+02 -0.10940338665E+02  0.35083133431E+02  0.45045676502E+02  0.00000000000E+00 0.  1.
         11    1    3    3    0    0  0.15558567457E+02  0.96043603068E+01 -0.16379716512E+02  0.24548072663E+02  0.51100000000E-03 0. -1.
        -11    1    3    3    0    0  0.97620355385E+01  0.15293082690E+01 -0.16162270478E+02  0.18943471406E+02  0.51100000000E-03 0.  1.
         12    1    3    3    0    0  0.72926667979E+00 -0.19332991084E+00 -0.25411464410E+01  0.26507794287E+01  0.00000000000E+00 0. -1.
</event>
<event>
 7    1  0.1486782E-008  0.4614232E+02  0.7816164E-02  0.1320468E+00
        -11   -1    0    0    0    0  0.00000000000E+00  0.00000000000E+00  0.45593999997E+02  0.45594000000E+02  0.51100000000E-03 0.  1.
         11   -1    0    0    0    0 -0.00000000000E+00 -0.00000000000E+00 -0.45593999997E+02  0.45594000000E+02  0.51100000000E-03 0. -1.
    9900012    2    1    2    0    0  0.50155126626E+01 -0.44005958640E+02  0.82118049656E+01  0.46142317589E+02  0.99999984294E+01 0.  0.
        -12    1    1    2    0    0 -0.50155126626E+01  0.44005958640E+02 -0.82118049656E+01  0.45045682411E+02  0.00000000000E+00 0.  1.
         11    1    3    3    0    0  0.66888730130E+01 -0.31312889489E+02  0.37974690202E+01  0.32243741122E+02  0.51100000000E-03 0. -1.
        -11    1    3    3    0    0 -0.14196074591E+01 -0.11368917202E+02  0.49061050877E+01  0.12463443789E+02  0.51100000000E-03 0.  1.
         12    1    3    3    0    0 -0.25375289134E+00 -0.13241519497E+01 -0.49176914232E+00  0.14351326785E+01  0.00000000000E+00 0. -1.
</event>
<event>
 7    1  0.1486782E-008  0.4614232E+02  0.7816164E-02  0.1320468E+00
        -11   -1    0    0    0    0  0.00000000000E+00  0.00000000000E+00  0.45593999997E+02  0.45594000000E+02  0.51100000000E-03 0.  1.
         11   -1    0    0    0    0 -0.00000000000E+00 -0.00000000000E+00 -0.45593999997E+02  0.45594000000E+02  0.51100000000E-03 0. -1.
    9900012    2    1    2    0    0 -0.39615543365E+02 -0.17728062733E+02 -0.12059763970E+02  0.46142318837E+02  0.10000009814E+02 0.  0.
        -12    1    1    2    0    0  0.39615543365E+02  0.17728062733E+02  0.12059763970E+02  0.45045681163E+02  0.00000000000E+00 0.  1.
         11    1    3    3    0    0 -0.13482738090E+02 -0.42409176530E+01 -0.73381593859E+00  0.14153024237E+02  0.51100000000E-03 0. -1.
        -11    1    3    3    0    0 -0.10900025647E+02 -0.72608690101E+01 -0.75068627024E+01  0.15095819480E+02  0.51100000000E-03 0.  1.
         12    1    3    3    0    0 -0.15232779628E+02 -0.62262760703E+01 -0.38190853287E+01  0.16893475121E+02  0.00000000000E+00 0. -1.
</event>
<event>
 7    1  0.1486782E-008  0.4614232E+02  0.7816164E-02  0.1320468E+00
        -11   -1    0    0    0    0  0.00000000000E+00  0.00000000000E+00  0.45593999997E+02  0.45594000000E+02  0.51100000000E-03 0. -1.
         11   -1    0    0    0    0 -0.00000000000E+00 -0.00000000000E+00 -0.45593999997E+02  0.45594000000E+02  0.51100000000E-03 0.  1.
    9900012    2    1    2    0    0 -0.40891500069E+02  0.98155124697E+01  0.16144795923E+02  0.46142317651E+02  0.99999989921E+01 0.  0.
        -12    1    1    2    0    0  0.40891500069E+02 -0.98155124697E+01 -0.16144795923E+02  0.45045682349E+02  0.00000000000E+00 0.  1.
         11    1    3    3    0    0 -0.11090485767E+02  0.50432453140E+01  0.85876292770E+01  0.14905722885E+02  0.51100000000E-03 0. -1.
        -11    1    3    3    0    0 -0.17016498239E+02  0.14046721238E+01  0.47238746177E+01  0.17715792609E+02  0.51100000000E-03 0.  1.
         12    1    3    3    0    0 -0.12784516062E+02  0.33675950319E+01  0.28332920279E+01  0.13520802157E+02  0.00000000000E+00 0. -1.
</event>
<event>
 7    1  0.1486782E-008  0.4614232E+02  0.7816164E-02  0.1320468E+00
        -11   -1    0    0    0    0  0.00000000000E+00  0.00000000000E+00  0.45593999997E+02  0.45594000000E+02  0.51100000000E-03 0. -1.
         11   -1    0    0    0    0 -0.00000000000E+00 -0.00000000000E+00 -0.45593999997E+02  0.45594000000E+02  0.51100000000E-03 0.  1.
    9900012    2    1    2    0    0  0.24294836022E+02 -0.29440269405E+02  0.23919552972E+02  0.46142317251E+02  0.99999953463E+01 0.  0.
        -12    1    1    2    0    0 -0.24294836022E+02  0.29440269405E+02 -0.23919552972E+02  0.45045682749E+02  0.00000000000E+00 0.  1.
         11    1    3    3    0    0  0.12769197215E+02 -0.14456760761E+02  0.93358038508E+01  0.21429128844E+02  0.51100000000E-03 0. -1.
        -11    1    3    3    0    0  0.27742406620E+01 -0.65759620705E+01  0.86203022739E+01  0.11191483367E+02  0.51100000000E-03 0.  1.
        -12    1    3    3    0    0  0.87513981449E+01 -0.84075465738E+01  0.59634468471E+01  0.13521705040E+02  0.00000000000E+00 0.  1.
</event>
<event>
 7    1  0.1486782E-008  0.4614232E+02  0.7816164E-02  0.1320468E+00
        -11   -1    0    0    0    0  0.00000000000E+00  0.00000000000E+00  0.45593999997E+02  0.45594000000E+02  0.51100000000E-03 0. -1.
         11   -1    0    0    0    0 -0.00000000000E+00 -0.00000000000E+00 -0.45593999997E+02  0.45594000000E+02  0.51100000000E-03 0.  1.
    9900012    2    1    2    0    0 -0.98741095886E+01  0.22640366823E+02  0.37670003441E+02  0.46142318639E+02  0.10000008005E+02 0.  0.
        -12    1    1    2    0    0  0.98741095886E+01 -0.22640366823E+02 -0.37670003441E+02  0.45045681361E+02  0.00000000000E+00 0.  1.
         11    1    3    3    0    0 -0.24468775107E+01  0.47446777442E+00  0.35243036296E+01  0.43166011579E+01  0.51100000000E-03 0. -1.
        -11    1    3    3    0    0 -0.74992351314E+01  0.21790642144E+02  0.34371407270E+02  0.41381931450E+02  0.51100000000E-03 0.  1.
        -12    1    3    3    0    0  0.72003053505E-01  0.37525690460E+00 -0.22570745855E+00  0.44378603066E+00  0.00000000000E+00 0.  1.
</event>
<event>
 7    1  0.1486782E-008  0.4614232E+02  0.7816164E-02  0.1320468E+00
        -11   -1    0    0    0    0  0.00000000000E+00  0.00000000000E+00  0.45593999997E+02  0.45594000000E+02  0.51100000000E-03 0.  1.
         11   -1    0    0    0    0 -0.00000000000E+00 -0.00000000000E+00 -0.45593999997E+02  0.45594000000E+02  0.51100000000E-03 0. -1.
    9900012    2    1    2    0    0  0.98166735305E+01  0.41933911905E+02 -0.13202024374E+02  0.46142317694E+02  0.99999993849E+01 0.  0.
        -12    1    1    2    0    0 -0.98166735305E+01 -0.41933911905E+02  0.13202024374E+02  0.45045682306E+02  0.00000000000E+00 0.  1.
         11    1    3    3    0    0  0.50738168958E+00  0.18541489398E+02 -0.54293823151E+01  0.19326729104E+02  0.51100000000E-03 0. -1.
        -11    1    3    3    0    0  0.19621702824E+01  0.37774449327E+01  0.51922099060E+00  0.42882156120E+01  0.51100000000E-03 0.  1.
         12    1    3    3    0    0  0.73471215585E+01  0.19614977574E+02 -0.82918630498E+01  0.22527372978E+02  0.00000000000E+00 0. -1.
</event>
<event>
 7    1  0.1486782E-008  0.4614232E+02  0.7816164E-02  0.1320468E+00
        -11   -1    0    0    0    0  0.00000000000E+00  0.00000000000E+00  0.45593999997E+02  0.45594000000E+02  0.51100000000E-03 0.  1.
         11   -1    0    0    0    0 -0.00000000000E+00 -0.00000000000E+00 -0.45593999997E+02  0.45594000000E+02  0.51100000000E-03 0. -1.
    9900012    2    1    2    0    0  0.23250489330E+02  0.13988321367E+01 -0.38556081056E+02  0.46142319055E+02  0.10000011800E+02 0.  0.
        -12    1    1    2    0    0 -0.23250489330E+02 -0.13988321367E+01  0.38556081056E+02  0.45045680945E+02  0.00000000000E+00 0.  1.
         11    1    3    3    0    0  0.95440496380E+01 -0.28549324831E+01 -0.10166999998E+02  0.14234023050E+02  0.51100000000E-03 0. -1.
        -11    1    3    3    0    0  0.42636536934E+01  0.21522905169E+01 -0.75585729095E+01  0.89410917664E+01  0.51100000000E-03 0.  1.
         12    1    3    3    0    0  0.94427859984E+01  0.21014741029E+01 -0.20830508148E+02  0.22967204239E+02  0.00000000000E+00 0. -1.
</event>
<event>
 7    1  0.1486782E-008  0.4614232E+02  0.7816164E-02  0.1320468E+00
        -11   -1    0    0    0    0  0.00000000000E+00  0.00000000000E+00  0.45593999997E+02  0.45594000000E+02  0.51100000000E-03 0.  1.
         11   -1    0    0    0    0 -0.00000000000E+00 -0.00000000000E+00 -0.45593999997E+02  0.45594000000E+02  0.51100000000E-03 0. -1.
    9900012    2    1    2    0    0  0.20087452367E+02  0.29567568256E+02 -0.27411068270E+02  0.46142317644E+02  0.99999989342E+01 0.  0.
        -12    1    1    2    0    0 -0.20087452367E+02 -0.29567568256E+02  0.27411068270E+02  0.45045682356E+02  0.00000000000E+00 0.  1.
         11    1    3    3    0    0  0.12225780319E+02  0.18235553019E+02 -0.19769953317E+02  0.29544139059E+02  0.51100000000E-03 0. -1.
        -11    1    3    3    0    0  0.81439548311E+01  0.82914719769E+01 -0.54294459605E+01  0.12827758633E+02  0.51100000000E-03 0.  1.
        -12    1    3    3    0    0 -0.28228278286E+00  0.30405432604E+01 -0.22116689920E+01  0.37704199525E+01  0.00000000000E+00 0.  1.
</event>
<event>
 7    1  0.1486782E-008  0.4614232E+02  0.7816164E-02  0.1320468E+00
        -11   -1    0    0    0    0  0.00000000000E+00  0.00000000000E+00  0.45593999997E+02  0.45594000000E+02  0.51100000000E-03 0.  1.
         11   -1    0    0    0    0 -0.00000000000E+00 -0.00000000000E+00 -0.45593999997E+02  0.45594000000E+02  0.51100000000E-03 0. -1.
    9900012    2    1    2    0    0 -0.51582154939E+01 -0.43548549504E+02 -0.10297091299E+02  0.46142318296E+02  0.10000004874E+02 0.  0.
        -12    1    1    2    0    0  0.51582154939E+01  0.43548549504E+02  0.10297091299E+02  0.45045681704E+02  0.00000000000E+00 0.  1.
         11    1    3    3    0    0 -0.25506794852E+01 -0.11073871033E+02 -0.63718710885E+01  0.13028327864E+02  0.51100000000E-03 0. -1.
        -11    1    3    3    0    0  0.48617304862E+00 -0.99470278848E+01 -0.28092237050E+01  0.10347534299E+02  0.51100000000E-03 0.  1.
         12    1    3    3    0    0 -0.30937090573E+01 -0.22527650587E+02 -0.11159965051E+01  0.22766456134E+02  0.00000000000E+00 0. -1.
</event>
<event>
 7    1  0.1486782E-008  0.4614232E+02  0.7816164E-02  0.1320468E+00
        -11   -1    0    0    0    0  0.00000000000E+00  0.00000000000E+00  0.45593999997E+02  0.45594000000E+02  0.51100000000E-03 0. -1.
         11   -1    0    0    0    0 -0.00000000000E+00 -0.00000000000E+00 -0.45593999997E+02  0.45594000000E+02  0.51100000000E-03 0.  1.
    9900012    2    1    2    0    0 -0.44975988478E+02  0.69781829083E+00 -0.24055702394E+01  0.46142320317E+02  0.10000023306E+02 0.  0.
        -12    1    1    2    0    0  0.44975988478E+02 -0.69781829083E+00  0.24055702394E+01  0.45045679683E+02  0.00000000000E+00 0.  1.
         11    1    3    3    0    0 -0.14227098546E+01  0.32801820665E-01  0.67059418081E+00  0.15731738957E+01  0.51100000000E-03 0. -1.
        -11    1    3    3    0    0 -0.40395903661E+02 -0.83376647220E+00 -0.82707011696E+00  0.40412971239E+02  0.51100000000E-03 0.  1.
        -12    1    3    3    0    0 -0.31573749623E+01  0.14987829424E+01 -0.22490943033E+01  0.41561751823E+01  0.00000000000E+00 0.  1.
</event>
<event>
 7    1  0.1486782E-008  0.4614232E+02  0.7816164E-02  0.1320468E+00
        -11   -1    0    0    0    0  0.00000000000E+00  0.00000000000E+00  0.45593999997E+02  0.45594000000E+02  0.51100000000E-03 0.  1.
         11   -1    0    0    0    0 -0.00000000000E+00 -0.00000000000E+00 -0.45593999997E+02  0.45594000000E+02  0.51100000000E-03 0. -1.
    9900012    2    1    2    0    0 -0.29958325713E+01  0.41480246746E+02 -0.17306855147E+02  0.46142321873E+02  0.10000037493E+02 0.  0.
        -12    1    1    2    0    0  0.29958325713E+01 -0.41480246746E+02  0.17306855147E+02  0.45045678127E+02  0.00000000000E+00 0.  1.
         11    1    3    3    0    0 -0.21143934896E+01  0.27273804860E+02 -0.95946200559E+01  0.28989443349E+02  0.51100000000E-03 0. -1.
        -11    1    3    3    0    0 -0.23080222705E+01  0.13533941594E+02 -0.71414510188E+01  0.15475621629E+02  0.51100000000E-03 0.  1.
        -12    1    3    3    0    0  0.14265831888E+01  0.67250029091E+00 -0.57078407232E+00  0.16772568954E+01  0.00000000000E+00 0.  1.
</event>
<event>
 7    1  0.1486782E-008  0.4614232E+02  0.7816164E-02  0.1320468E+00
        -11   -1    0    0    0    0  0.00000000000E+00  0.00000000000E+00  0.45593999997E+02  0.45594000000E+02  0.51100000000E-03 0.  1.
         11   -1    0    0    0    0 -0.00000000000E+00 -0.00000000000E+00 -0.45593999997E+02  0.45594000000E+02  0.51100000000E-03 0. -1.
    9900012    2    1    2    0    0 -0.10270974904E+02 -0.39170357382E+02 -0.19730774692E+02  0.46142319931E+02  0.10000019787E+02 0.  0.
        -12    1    1    2    0    0  0.10270974904E+02  0.39170357382E+02  0.19730774692E+02  0.45045680069E+02  0.00000000000E+00 0.  1.
         11    1    3    3    0    0 -0.13523109948E+01 -0.22585149313E+02 -0.84169290679E+01  0.24140472441E+02  0.51100000000E-03 0. -1.
        -11    1    3    3    0    0 -0.36906603709E+01 -0.56919637394E+01 -0.38669923303E+01  0.78085245167E+01  0.51100000000E-03 0.  1.
         12    1    3    3    0    0 -0.52280035381E+01 -0.10893244330E+02 -0.74468532935E+01  0.14193322973E+02  0.00000000000E+00 0. -1.
</event>
<event>
 7    1  0.1486782E-008  0.4614232E+02  0.7816164E-02  0.1320468E+00
        -11   -1    0    0    0    0  0.00000000000E+00  0.00000000000E+00  0.45593999997E+02  0.45594000000E+02  0.51100000000E-03 0.  1.
         11   -1    0    0    0    0 -0.00000000000E+00 -0.00000000000E+00 -0.45593999997E+02  0.45594000000E+02  0.51100000000E-03 0. -1.
    9900012    2    1    2    0    0 -0.96067537035E+01 -0.36682772749E+01 -0.43856213190E+02  0.46142318629E+02  0.10000007911E+02 0.  0.
        -12    1    1    2    0    0  0.96067537035E+01  0.36682772749E+01  0.43856213190E+02  0.45045681371E+02  0.00000000000E+00 0.  1.
         11    1    3    3    0    0 -0.40820424614E+01  0.13851179300E+01 -0.29973719450E+02  0.30282098346E+02  0.51100000000E-03 0. -1.
        -11    1    3    3    0    0 -0.32838752933E+01 -0.33995357822E+01 -0.71132356266E+01  0.85404216416E+01  0.51100000000E-03 0.  1.
         12    1    3    3    0    0 -0.22408359488E+01 -0.16538594227E+01 -0.67692581130E+01  0.73197986407E+01  0.00000000000E+00 0. -1.
</event>
<event>
 7    1  0.1683381E-008  0.4614231E+02  0.7816164E-02  0.1320468E+00
        -11   -1    0    0    0    0  0.00000000000E+00  0.00000000000E+00  0.45593999997E+02  0.45594000000E+02  0.51100000000E-03 0. -1.
         11   -1    0    0    0    0 -0.00000000000E+00 -0.00000000000E+00 -0.45593999997E+02  0.45594000000E+02  0.51100000000E-03 0.  1.
    9900012    2    1    2    0    0 -0.27574119435E+01 -0.34611250748E+02  0.28697940372E+02  0.46142314518E+02  0.99999704285E+01 0.  0.
        -12    1    1    2    0    0  0.27574119435E+01  0.34611250748E+02 -0.28697940372E+02  0.45045685482E+02  0.00000000000E+00 0.  1.
         11    1    3    3    0    0 -0.30523756225E+01 -0.34642569692E+02  0.28419738566E+02  0.44912205159E+02  0.51100000000E-03 0. -1.
        -11    1    3    3    0    0  0.56848183349E+00  0.13571046173E+00  0.57026646042E+00  0.81657395344E+00  0.51100000000E-03 0.  1.
         12    1    3    3    0    0 -0.27351815453E+00 -0.10439151710E+00 -0.29206465428E+00  0.41353540596E+00  0.00000000000E+00 0. -1.
</event>
<event>
 7    1  0.1486782E-008  0.4614232E+02  0.7816164E-02  0.1320468E+00
        -11   -1    0    0    0    0  0.00000000000E+00  0.00000000000E+00  0.45593999997E+02  0.45594000000E+02  0.51100000000E-03 0.  1.
         11   -1    0    0    0    0 -0.00000000000E+00 -0.00000000000E+00 -0.45593999997E+02  0.45594000000E+02  0.51100000000E-03 0. -1.
    9900012    2    1    2    0    0 -0.87304209721E+01  0.33155762610E+02 -0.29216233636E+02  0.46142321489E+02  0.10000033996E+02 0.  0.
        -12    1    1    2    0    0  0.87304209721E+01 -0.33155762610E+02  0.29216233636E+02  0.45045678511E+02  0.00000000000E+00 0.  1.
         11    1    3    3    0    0 -0.15992777422E+01  0.86615361617E+01 -0.28811969038E+01  0.92672106827E+01  0.51100000000E-03 0.  1.
        -11    1    3    3    0    0 -0.66572801125E+01  0.22749417637E+02 -0.25691941507E+02  0.34956133081E+02  0.51100000000E-03 0. -1.
         12    1    3    3    0    0 -0.47386311744E+00  0.17448088115E+01 -0.64309522544E+00  0.19189777257E+01  0.00000000000E+00 0. -1.
</event>
<event>
 7    1  0.1486782E-008  0.4614232E+02  0.7816164E-02  0.1320468E+00
        -11   -1    0    0    0    0  0.00000000000E+00  0.00000000000E+00  0.45593999997E+02  0.45594000000E+02  0.51100000000E-03 0. -1.
         11   -1    0    0    0    0 -0.00000000000E+00 -0.00000000000E+00 -0.45593999997E+02  0.45594000000E+02  0.51100000000E-03 0.  1.
    9900012    2    1    2    0    0  0.26541347307E+02  0.36336460525E+02  0.20813314263E+01  0.46142318510E+02  0.10000006830E+02 0.  0.
        -12    1    1    2    0    0 -0.26541347307E+02 -0.36336460525E+02 -0.20813314263E+01  0.45045681490E+02  0.00000000000E+00 0.  1.
         11    1    3    3    0    0  0.10156614045E+02  0.78993355044E+01  0.25985861648E+01  0.13126650776E+02  0.51100000000E-03 0. -1.
        -11    1    3    3    0    0  0.66615833301E+01  0.14894412883E+02 -0.88103249291E+00  0.16340025891E+02  0.51100000000E-03 0.  1.
         12    1    3    3    0    0  0.97231499325E+01  0.13542712137E+02  0.36377775438E+00  0.16675641844E+02  0.00000000000E+00 0. -1.
</event>
<event>
 7    1  0.1486782E-008  0.4614232E+02  0.7816164E-02  0.1320468E+00
        -11   -1    0    0    0    0  0.00000000000E+00  0.00000000000E+00  0.45593999997E+02  0.45594000000E+02  0.51100000000E-03 0.  1.
         11   -1    0    0    0    0 -0.00000000000E+00 -0.00000000000E+00 -0.45593999997E+02  0.45594000000E+02  0.51100000000E-03 0. -1.
    9900012    2    1    2    0    0 -0.39984836197E+02  0.80290047786E+01 -0.19127502400E+02  0.46142318836E+02  0.10000009802E+02 0.  0.
        -12    1    1    2    0    0  0.39984836197E+02 -0.80290047786E+01  0.19127502400E+02  0.45045681164E+02  0.00000000000E+00 0.  1.
         11    1    3    3    0    0 -0.19067138761E+02  0.51259471925E+01 -0.93240645341E+01  0.21835047397E+02  0.51100000000E-03 0. -1.
        -11    1    3    3    0    0 -0.11866087703E+01  0.14275327293E+01  0.60243369135E+00  0.19516189896E+01  0.51100000000E-03 0.  1.
        -12    1    3    3    0    0 -0.19731088666E+02  0.14755248568E+01 -0.10405871558E+02  0.22355652449E+02  0.00000000000E+00 0.  1.
</event>
<event>
 7    1  0.1486782E-008  0.4614232E+02  0.7816164E-02  0.1320468E+00
        -11   -1    0    0    0    0  0.00000000000E+00  0.00000000000E+00  0.45593999997E+02  0.45594000000E+02  0.51100000000E-03 0. -1.
         11   -1    0    0    0    0 -0.00000000000E+00 -0.00000000000E+00 -0.45593999997E+02  0.45594000000E+02  0.51100000000E-03 0.  1.
    9900012    2    1    2    0    0 -0.36656303572E+02 -0.39525665118E+01  0.25880614057E+02  0.46142316993E+02  0.99999929926E+01 0.  0.
        -12    1    1    2    0    0  0.36656303572E+02  0.39525665118E+01 -0.25880614057E+02  0.45045683007E+02  0.00000000000E+00 0.  1.
         11    1    3    3    0    0 -0.10971341787E+02 -0.13730768235E+01  0.52303299101E+01  0.12231599724E+02  0.51100000000E-03 0.  1.
        -11    1    3    3    0    0 -0.98911670227E+01  0.25380707737E+01  0.91817127825E+01  0.13732473856E+02  0.51100000000E-03 0. -1.
        -12    1    3    3    0    0 -0.15793794762E+02 -0.51175604620E+01  0.11468571365E+02  0.20178243413E+02  0.00000000000E+00 0.  1.
</event>
<event>
 7    1  0.1486782E-008  0.4614232E+02  0.7816164E-02  0.1320468E+00
        -11   -1    0    0    0    0  0.00000000000E+00  0.00000000000E+00  0.45593999997E+02  0.45594000000E+02  0.51100000000E-03 0.  1.
         11   -1    0    0    0    0 -0.00000000000E+00 -0.00000000000E+00 -0.45593999997E+02  0.45594000000E+02  0.51100000000E-03 0. -1.
    9900012    2    1    2    0    0  0.28182401804E+02 -0.29079860542E+02 -0.19728846643E+02  0.46142318181E+02  0.10000003833E+02 0.  0.
        -12    1    1    2    0    0 -0.28182401804E+02  0.29079860542E+02  0.19728846643E+02  0.45045681819E+02  0.00000000000E+00 0.  1.
         11    1    3    3    0    0  0.19744960025E+02 -0.15821048588E+02 -0.96839940409E+01  0.27091488805E+02  0.51100000000E-03 0. -1.
        -11    1    3    3    0    0  0.55243875335E+01 -0.10345931792E+02 -0.56209346185E+01  0.13005847474E+02  0.51100000000E-03 0.  1.
         12    1    3    3    0    0  0.29130542460E+01 -0.29128801625E+01 -0.44239179840E+01  0.60449819033E+01  0.00000000000E+00 0. -1.
</event>
<event>
 7    1  0.1486782E-008  0.4614232E+02  0.7816164E-02  0.1320468E+00
        -11   -1    0    0    0    0  0.00000000000E+00  0.00000000000E+00  0.45593999997E+02  0.45594000000E+02  0.51100000000E-03 0.  1.
         11   -1    0    0    0    0 -0.00000000000E+00 -0.00000000000E+00 -0.45593999997E+02  0.45594000000E+02  0.51100000000E-03 0. -1.
    9900012    2    1    2    0    0  0.27051307512E+02  0.31969048118E+02 -0.16592774919E+02  0.46142318129E+02  0.10000003357E+02 0.  0.
        -12    1    1    2    0    0 -0.27051307512E+02 -0.31969048118E+02  0.16592774919E+02  0.45045681871E+02  0.00000000000E+00 0.  1.
         11    1    3    3    0    0  0.18692203185E+02  0.26957299681E+02 -0.14252062118E+02  0.35766125606E+02  0.51100000000E-03 0. -1.
        -11    1    3    3    0    0  0.26281709500E+01  0.23246111577E+01  0.29204388070E+00  0.35208506737E+01  0.51100000000E-03 0.  1.
         12    1    3    3    0    0  0.57309333767E+01  0.26871372796E+01 -0.26327566811E+01  0.68553418492E+01  0.00000000000E+00 0. -1.
</event>
<event>
 7    1  0.1486782E-008  0.4614232E+02  0.7816164E-02  0.1320468E+00
        -11   -1    0    0    0    0  0.00000000000E+00  0.00000000000E+00  0.45593999997E+02  0.45594000000E+02  0.51100000000E-03 0.  1.
         11   -1    0    0    0    0 -0.00000000000E+00 -0.00000000000E+00 -0.45593999997E+02  0.45594000000E+02  0.51100000000E-03 0. -1.
    9900012    2    1    2    0    0 -0.25875330557E+02  0.94793703221E+01 -0.35633162434E+02  0.46142318096E+02  0.10000003053E+02 0.  0.
        -12    1    1    2    0    0  0.25875330557E+02 -0.94793703221E+01  0.35633162434E+02  0.45045681904E+02  0.00000000000E+00 0.  1.
         11    1    3    3    0    0 -0.13206693463E+02  0.38210560045E+01 -0.10692365835E+02  0.17416770902E+02  0.51100000000E-03 0. -1.
        -11    1    3    3    0    0 -0.64432832237E+01  0.18281012236E+01 -0.14593204351E+02  0.16056757652E+02  0.51100000000E-03 0.  1.
         12    1    3    3    0    0 -0.62253538698E+01  0.38302130940E+01 -0.10347592248E+02  0.12668789543E+02  0.00000000000E+00 0. -1.
</event>
<event>
 7    1  0.1486782E-008  0.4614232E+02  0.7816164E-02  0.1320468E+00
        -11   -1    0    0    0    0  0.00000000000E+00  0.00000000000E+00  0.45593999997E+02  0.45594000000E+02  0.51100000000E-03 0.  1.
         11   -1    0    0    0    0 -0.00000000000E+00 -0.00000000000E+00 -0.45593999997E+02  0.45594000000E+02  0.51100000000E-03 0. -1.
    9900012    2    1    2    0    0 -0.42275929808E+02  0.12183924343E+02 -0.96649564487E+01  0.46142316115E+02  0.99999849864E+01 0.  0.
        -12    1    1    2    0    0  0.42275929808E+02 -0.12183924343E+02  0.96649564487E+01  0.45045683885E+02  0.00000000000E+00 0.  1.
         11    1    3    3    0    0 -0.18126061143E+02  0.73009244769E+01 -0.55748386247E+01  0.20320837009E+02  0.51100000000E-03 0. -1.
        -11    1    3    3    0    0 -0.10281230199E+02 -0.98742762409E+00 -0.28283751572E+01  0.10708800774E+02  0.51100000000E-03 0.  1.
        -12    1    3    3    0    0 -0.13868638466E+02  0.58704274905E+01 -0.12617426668E+01  0.15112678332E+02  0.00000000000E+00 0.  1.
</event>
<event>
 7    1  0.1486782E-008  0.4614232E+02  0.7816164E-02  0.1320468E+00
        -11   -1    0    0    0    0  0.00000000000E+00  0.00000000000E+00  0.45593999997E+02  0.45594000000E+02  0.51100000000E-03 0.  1.
         11   -1    0    0    0    0 -0.00000000000E+00 -0.00000000000E+00 -0.45593999997E+02  0.45594000000E+02  0.51100000000E-03 0. -1.
    9900012    2    1    2    0    0 -0.92034857775E+01 -0.24903903180E+02 -0.36389628700E+02  0.46142316289E+02  0.99999865721E+01 0.  0.
        -12    1    1    2    0    0  0.92034857775E+01  0.24903903180E+02  0.36389628700E+02  0.45045683711E+02  0.00000000000E+00 0.  1.
         11    1    3    3    0    0  0.11931264237E+01 -0.68622060319E+01 -0.81283810572E+01  0.10704391676E+02  0.51100000000E-03 0.  1.
        -11    1    3    3    0    0 -0.70813235880E+01 -0.96832896733E+01 -0.12732324820E+02  0.17493522751E+02  0.51100000000E-03 0. -1.
        -12    1    3    3    0    0 -0.33152886132E+01 -0.83584074753E+01 -0.15528922823E+02  0.17944401861E+02  0.00000000000E+00 0.  1.
</event>
<event>
 7    1  0.1486782E-008  0.4614232E+02  0.7816164E-02  0.1320468E+00
        -11   -1    0    0    0    0  0.00000000000E+00  0.00000000000E+00  0.45593999997E+02  0.45594000000E+02  0.51100000000E-03 0.  1.
         11   -1    0    0    0    0 -0.00000000000E+00 -0.00000000000E+00 -0.45593999997E+02  0.45594000000E+02  0.51100000000E-03 0. -1.
    9900012    2    1    2    0    0 -0.42022156646E+02  0.13122213452E+01 -0.16171884788E+02  0.46142318391E+02  0.10000005742E+02 0.  0.
        -12    1    1    2    0    0  0.42022156646E+02 -0.13122213452E+01  0.16171884788E+02  0.45045681609E+02  0.00000000000E+00 0.  1.
         11    1    3    3    0    0 -0.31104873199E+02  0.24825562760E+01 -0.15514432083E+02  0.34847866871E+02  0.51100000000E-03 0. -1.
        -11    1    3    3    0    0 -0.35733212652E+01 -0.15848670635E+01 -0.46175149792E+00  0.39361965373E+01  0.51100000000E-03 0.  1.
         12    1    3    3    0    0 -0.73439621822E+01  0.41453213270E+00 -0.19570120782E+00  0.73582549824E+01  0.00000000000E+00 0. -1.
</event>
<event>
 7    1  0.1486782E-008  0.4614232E+02  0.7816164E-02  0.1320468E+00
        -11   -1    0    0    0    0  0.00000000000E+00  0.00000000000E+00  0.45593999997E+02  0.45594000000E+02  0.51100000000E-03 0. -1.
         11   -1    0    0    0    0 -0.00000000000E+00 -0.00000000000E+00 -0.45593999997E+02  0.45594000000E+02  0.51100000000E-03 0.  1.
    9900012    2    1    2    0    0  0.73813492790E+01  0.29920791995E+01  0.44335951443E+02  0.46142318237E+02  0.10000004341E+02 0.  0.
        -12    1    1    2    0    0 -0.73813492790E+01 -0.29920791995E+01 -0.44335951443E+02  0.45045681763E+02  0.00000000000E+00 0.  1.
         11    1    3    3    0    0  0.57064454507E+01 -0.18478201222E+01  0.24661057857E+02  0.25380026276E+02  0.51100000000E-03 0. -1.
        -11    1    3    3    0    0  0.87943549738E+00 -0.55160284443E+00  0.50351520008E+01  0.51410532407E+01  0.51100000000E-03 0.  1.
         12    1    3    3    0    0  0.79546833089E+00  0.53915021662E+01  0.14639741585E+02  0.15621238720E+02  0.00000000000E+00 0. -1.
</event>
<event>
 7    1  0.1486782E-008  0.4614232E+02  0.7816164E-02  0.1320468E+00
        -11   -1    0    0    0    0  0.00000000000E+00  0.00000000000E+00  0.45593999997E+02  0.45594000000E+02  0.51100000000E-03 0.  1.
         11   -1    0    0    0    0 -0.00000000000E+00 -0.00000000000E+00 -0.45593999997E+02  0.45594000000E+02  0.51100000000E-03 0. -1.
    9900012    2    1    2    0    0 -0.22563963366E+02  0.30174200820E+02 -0.24688028140E+02  0.46142316841E+02  0.99999916059E+01 0.  0.
        -12    1    1    2    0    0  0.22563963366E+02 -0.30174200820E+02  0.24688028140E+02  0.45045683159E+02  0.00000000000E+00 0.  1.
         11    1    3    3    0    0 -0.26103157860E+01  0.44848042642E+01 -0.23885047558E+01  0.57124577040E+01  0.51100000000E-03 0. -1.
        -11    1    3    3    0    0  0.34977045941E+00  0.38680216197E+01 -0.20068207475E+01  0.43716427574E+01  0.51100000000E-03 0.  1.
        -12    1    3    3    0    0 -0.20303418039E+02  0.21821374936E+02 -0.20292702637E+02  0.36058216379E+02  0.00000000000E+00 0.  1.
</event>
<event>
 7    1  0.1486782E-008  0.4614232E+02  0.7816164E-02  0.1320468E+00
        -11   -1    0    0    0    0  0.00000000000E+00  0.00000000000E+00  0.45593999997E+02  0.45594000000E+02  0.51100000000E-03 0.  1.
         11   -1    0    0    0    0 -0.00000000000E+00 -0.00000000000E+00 -0.45593999997E+02  0.45594000000E+02  0.51100000000E-03 0. -1.
    9900012    2    1    2    0    0 -0.16656089905E+02  0.21667469325E+02 -0.35807946343E+02  0.46142316753E+02  0.99999908097E+01 0.  0.
        -12    1    1    2    0    0  0.16656089905E+02 -0.21667469325E+02  0.35807946343E+02  0.45045683247E+02  0.00000000000E+00 0.  1.
         11    1    3    3    0    0 -0.65419964296E+00 -0.35413371088E+00 -0.30245893659E+00  0.80303768746E+00  0.51100000000E-03 0. -1.
        -11    1    3    3    0    0 -0.10611581042E+01  0.79939651413E+00  0.37291717624E-01  0.13290907577E+01  0.51100000000E-03 0.  1.
         12    1    3    3    0    0 -0.14940732158E+02  0.21222206522E+02 -0.35542779124E+02  0.44010188308E+02  0.00000000000E+00 0. -1.
</event>
<event>
 7    1  0.1486782E-008  0.4614232E+02  0.7816164E-02  0.1320468E+00
        -11   -1    0    0    0    0  0.00000000000E+00  0.00000000000E+00  0.45593999997E+02  0.45594000000E+02  0.51100000000E-03 0.  1.
         11   -1    0    0    0    0 -0.00000000000E+00 -0.00000000000E+00 -0.45593999997E+02  0.45594000000E+02  0.51100000000E-03 0. -1.
    9900012    2    1    2    0    0  0.80634921535E+01  0.18266070976E+02 -0.40378760191E+02  0.46142317308E+02  0.99999958726E+01 0.  0.
        -12    1    1    2    0    0 -0.80634921535E+01 -0.18266070976E+02  0.40378760191E+02  0.45045682692E+02  0.00000000000E+00 0.  1.
         11    1    3    3    0    0  0.50203201744E+01  0.43238506965E+01 -0.10521533773E+02  0.12433904162E+02  0.51100000000E-03 0. -1.
        -11    1    3    3    0    0  0.11272534953E+01 -0.33100789052E-01 -0.72486128265E+00  0.13406044327E+01  0.51100000000E-03 0.  1.
        -12    1    3    3    0    0  0.19159184839E+01  0.13975321069E+02 -0.29132365135E+02  0.32367808714E+02  0.00000000000E+00 0.  1.
</event>
<event>
 7    1  0.1486782E-008  0.4614232E+02  0.7816164E-02  0.1320468E+00
        -11   -1    0    0    0    0  0.00000000000E+00  0.00000000000E+00  0.45593999997E+02  0.45594000000E+02  0.51100000000E-03 0.  1.
         11   -1    0    0    0    0 -0.00000000000E+00 -0.00000000000E+00 -0.45593999997E+02  0.45594000000E+02  0.51100000000E-03 0. -1.
    9900012    2    1    2    0    0 -0.74795292821E+01  0.32270831919E+02 -0.30524798761E+02  0.46142319958E+02  0.10000020035E+02 0.  0.
        -12    1    1    2    0    0  0.74795292821E+01 -0.32270831919E+02  0.30524798761E+02  0.45045680042E+02  0.00000000000E+00 0.  1.
         11    1    3    3    0    0 -0.55128251855E+00  0.13846969691E+02 -0.16320695907E+02  0.21410455324E+02  0.51100000000E-03 0. -1.
        -11    1    3    3    0    0 -0.32313399012E+01  0.51273783253E+01 -0.22216293263E+01  0.64550138011E+01  0.51100000000E-03 0.  1.
        -12    1    3    3    0    0 -0.36969068624E+01  0.13296483902E+02 -0.11982473528E+02  0.18276850833E+02  0.00000000000E+00 0.  1.
</event>
<event>
 7    1  0.1486782E-008  0.4614232E+02  0.7816164E-02  0.1320468E+00
        -11   -1    0    0    0    0  0.00000000000E+00  0.00000000000E+00  0.45593999997E+02  0.45594000000E+02  0.51100000000E-03 0. -1.
         11   -1    0    0    0    0 -0.00000000000E+00 -0.00000000000E+00 -0.45593999997E+02  0.45594000000E+02  0.51100000000E-03 0.  1.
    9900012    2    1    2    0    0 -0.34044191535E+02 -0.25912375004E+02 -0.14094514071E+02  0.46142317826E+02  0.10000000593E+02 0.  0.
        -12    1    1    2    0    0  0.34044191535E+02  0.25912375004E+02  0.14094514071E+02  0.45045682174E+02  0.00000000000E+00 0.  1.
         11    1    3    3    0    0 -0.13579261486E+02 -0.68033728137E+01 -0.71406203348E+01  0.16783047494E+02  0.51100000000E-03 0. -1.
        -11    1    3    3    0    0 -0.23645119613E+00 -0.12567956774E+01 -0.12401111663E+01  0.17813816291E+01  0.51100000000E-03 0.  1.
         12    1    3    3    0    0 -0.20228478853E+02 -0.17852206513E+02 -0.57137825698E+01  0.27577888704E+02  0.00000000000E+00 0. -1.
</event>
<event>
 7    1  0.1486782E-008  0.4614232E+02  0.7816164E-02  0.1320468E+00
        -11   -1    0    0    0    0  0.00000000000E+00  0.00000000000E+00  0.45593999997E+02  0.45594000000E+02  0.51100000000E-03 0.  1.
         11   -1    0    0    0    0 -0.00000000000E+00 -0.00000000000E+00 -0.45593999997E+02  0.45594000000E+02  0.51100000000E-03 0. -1.
    9900012    2    1    2    0    0  0.10747286043E+02 -0.33227946076E+02 -0.28451940094E+02  0.46142318156E+02  0.10000003598E+02 0.  0.
        -12    1    1    2    0    0 -0.10747286043E+02  0.33227946076E+02  0.28451940094E+02  0.45045681844E+02  0.00000000000E+00 0.  1.
         11    1    3    3    0    0  0.49397150190E+01 -0.21223330207E+02 -0.21317401686E+02  0.30483801346E+02  0.51100000000E-03 0. -1.
        -11    1    3    3    0    0  0.43001323525E+01 -0.48396064805E+01 -0.44683357120E+01  0.78663176539E+01  0.51100000000E-03 0.  1.
         12    1    3    3    0    0  0.15074386715E+01 -0.71650093877E+01 -0.26662026960E+01  0.77921991562E+01  0.00000000000E+00 0. -1.
</event>
<event>
 7    1  0.1486782E-008  0.4614232E+02  0.7816164E-02  0.1320468E+00
        -11   -1    0    0    0    0  0.00000000000E+00  0.00000000000E+00  0.45593999997E+02  0.45594000000E+02  0.51100000000E-03 0. -1.
         11   -1    0    0    0    0 -0.00000000000E+00 -0.00000000000E+00 -0.45593999997E+02  0.45594000000E+02  0.51100000000E-03 0.  1.
    9900012    2    1    2    0    0 -0.27166208585E+02  0.35779592429E+02  0.33062818343E+01  0.46142316268E+02  0.99999863883E+01 0.  0.
        -12    1    1    2    0    0  0.27166208585E+02 -0.35779592429E+02 -0.33062818343E+01  0.45045683732E+02  0.00000000000E+00 0.  1.
         11    1    3    3    0    0 -0.16549136364E+02  0.17481853953E+02  0.76457505686E+00  0.24084719374E+02  0.51100000000E-03 0. -1.
        -11    1    3    3    0    0 -0.53748564161E+01  0.89222311052E+01 -0.16135508819E+01  0.10540343263E+02  0.51100000000E-03 0.  1.
         12    1    3    3    0    0 -0.52422158053E+01  0.93755073707E+01  0.41552576594E+01  0.11517253632E+02  0.00000000000E+00 0. -1.
</event>
<event>
 7    1  0.1486782E-008  0.4614232E+02  0.7816164E-02  0.1320468E+00
        -11   -1    0    0    0    0  0.00000000000E+00  0.00000000000E+00  0.45593999997E+02  0.45594000000E+02  0.51100000000E-03 0.  1.
         11   -1    0    0    0    0 -0.00000000000E+00 -0.00000000000E+00 -0.45593999997E+02  0.45594000000E+02  0.51100000000E-03 0. -1.
    9900012    2    1    2    0    0  0.19667320561E+02 -0.25218276014E+02 -0.31722997107E+02  0.46142317758E+02  0.99999999730E+01 0.  0.
        -12    1    1    2    0    0 -0.19667320561E+02  0.25218276014E+02  0.31722997107E+02  0.45045682242E+02  0.00000000000E+00 0.  1.
         11    1    3    3    0    0  0.62248709496E+01 -0.37433029665E+01 -0.60501246923E+01  0.94533245206E+01  0.51100000000E-03 0. -1.
        -11    1    3    3    0    0  0.87344595877E+01 -0.18754157047E+02 -0.21477590291E+02  0.29821067650E+02  0.51100000000E-03 0.  1.
        -12    1    3    3    0    0  0.47079900238E+01 -0.27208160002E+01 -0.41952821241E+01  0.68679255872E+01  0.00000000000E+00 0.  1.
</event>
<event>
 7    1  0.1486782E-008  0.4614232E+02  0.7816164E-02  0.1320468E+00
        -11   -1    0    0    0    0  0.00000000000E+00  0.00000000000E+00  0.45593999997E+02  0.45594000000E+02  0.51100000000E-03 0.  1.
         11   -1    0    0    0    0 -0.00000000000E+00 -0.00000000000E+00 -0.45593999997E+02  0.45594000000E+02  0.51100000000E-03 0. -1.
    9900012    2    1    2    0    0 -0.12940893134E+02 -0.35048659380E+02 -0.25164224389E+02  0.46142318426E+02  0.10000006061E+02 0.  0.
        -12    1    1    2    0    0  0.12940893134E+02  0.35048659380E+02  0.25164224389E+02  0.45045681574E+02  0.00000000000E+00 0.  1.
         11    1    3    3    0    0 -0.10148547401E+02 -0.29188164617E+02 -0.17997148304E+02  0.35760862901E+02  0.51100000000E-03 0. -1.
        -11    1    3    3    0    0 -0.31641047889E+00  0.22459008566E+00 -0.19615797837E+01  0.19995879092E+01  0.51100000000E-03 0.  1.
         12    1    3    3    0    0 -0.24759352535E+01 -0.60850848481E+01 -0.52054963007E+01  0.83818676155E+01  0.00000000000E+00 0. -1.
</event>
<event>
 7    1  0.1486782E-008  0.4614232E+02  0.7816164E-02  0.1320468E+00
        -11   -1    0    0    0    0  0.00000000000E+00  0.00000000000E+00  0.45593999997E+02  0.45594000000E+02  0.51100000000E-03 0.  1.
         11   -1    0    0    0    0 -0.00000000000E+00 -0.00000000000E+00 -0.45593999997E+02  0.45594000000E+02  0.51100000000E-03 0. -1.
    9900012    2    1    2    0    0 -0.25382716658E+02 -0.34272540044E+02  0.14499111277E+02  0.46142317256E+02  0.99999953966E+01 0.  0.
        -12    1    1    2    0    0  0.25382716658E+02  0.34272540044E+02 -0.14499111277E+02  0.45045682744E+02  0.00000000000E+00 0.  1.
         11    1    3    3    0    0 -0.21993072438E+01 -0.66612517945E+01  0.36434743035E+01  0.79046905748E+01  0.51100000000E-03 0. -1.
        -11    1    3    3    0    0 -0.23549103594E+02 -0.26386411379E+02  0.10700081882E+02  0.36949894967E+02  0.51100000000E-03 0.  1.
        -12    1    3    3    0    0  0.36569417973E+00 -0.12248768706E+01  0.15555509158E+00  0.12877317142E+01  0.00000000000E+00 0.  1.
</event>
<event>
 7    1  0.1486782E-008  0.4614232E+02  0.7816164E-02  0.1320468E+00
        -11   -1    0    0    0    0  0.00000000000E+00  0.00000000000E+00  0.45593999997E+02  0.45594000000E+02  0.51100000000E-03 0.  1.
         11   -1    0    0    0    0 -0.00000000000E+00 -0.00000000000E+00 -0.45593999997E+02  0.45594000000E+02  0.51100000000E-03 0. -1.
    9900012    2    1    2    0    0  0.43933362522E+02  0.72243806740E+01 -0.68396960437E+01  0.46142318070E+02  0.10000002815E+02 0.  0.
        -12    1    1    2    0    0 -0.43933362522E+02 -0.72243806740E+01  0.68396960437E+01  0.45045681930E+02  0.00000000000E+00 0.  1.
         11    1    3    3    0    0  0.18725194235E+02  0.63109458258E+01 -0.62877145247E+01  0.20736351910E+02  0.51100000000E-03 0. -1.
        -11    1    3    3    0    0  0.22824449151E+02  0.14903303977E+01  0.80478220641E-01  0.22873194809E+02  0.51100000000E-03 0.  1.
         12    1    3    3    0    0  0.23837191357E+01 -0.57689554950E+00 -0.63245973962E+00  0.25327713508E+01  0.00000000000E+00 0. -1.
</event>
<event>
 7    1  0.1486782E-008  0.4614232E+02  0.7816164E-02  0.1320468E+00
        -11   -1    0    0    0    0  0.00000000000E+00  0.00000000000E+00  0.45593999997E+02  0.45594000000E+02  0.51100000000E-03 0.  1.
         11   -1    0    0    0    0 -0.00000000000E+00 -0.00000000000E+00 -0.45593999997E+02  0.45594000000E+02  0.51100000000E-03 0. -1.
    9900012    2    1    2    0    0 -0.32181840554E+02  0.23705847187E+02 -0.20771987146E+02  0.46142317606E+02  0.99999985901E+01 0.  0.
        -12    1    1    2    0    0  0.32181840554E+02 -0.23705847187E+02  0.20771987146E+02  0.45045682394E+02  0.00000000000E+00 0.  1.
         11    1    3    3    0    0 -0.77521117940E+01  0.27588915933E+01 -0.56020299112E+01  0.99543688638E+01  0.51100000000E-03 0. -1.
        -11    1    3    3    0    0 -0.52380065749E+01  0.55515973081E+01 -0.74853323382E+00  0.76692403674E+01  0.51100000000E-03 0.  1.
        -12    1    3    3    0    0 -0.19191722185E+02  0.15395358286E+02 -0.14421424001E+02  0.28518708375E+02  0.00000000000E+00 0.  1.
</event>
<event>
 7    1  0.1486782E-008  0.4614232E+02  0.7816164E-02  0.1320468E+00
        -11   -1    0    0    0    0  0.00000000000E+00  0.00000000000E+00  0.45593999997E+02  0.45594000000E+02  0.51100000000E-03 0. -1.
         11   -1    0    0    0    0 -0.00000000000E+00 -0.00000000000E+00 -0.45593999997E+02  0.45594000000E+02  0.51100000000E-03 0.  1.
    9900012    2    1    2    0    0 -0.14180683066E+02  0.37035139465E+02  0.21363992180E+02  0.46142317751E+02  0.99999999109E+01 0.  0.
        -12    1    1    2    0    0  0.14180683066E+02 -0.37035139465E+02 -0.21363992180E+02  0.45045682249E+02  0.00000000000E+00 0.  1.
         11    1    3    3    0    0 -0.80133669865E+01  0.19051447564E+02  0.13091522280E+02  0.24465478958E+02  0.51100000000E-03 0. -1.
        -11    1    3    3    0    0 -0.51893016134E+01  0.18186739983E+02  0.72702656420E+01  0.20261863814E+02  0.51100000000E-03 0.  1.
         12    1    3    3    0    0 -0.97801446647E+00 -0.20304808237E+00  0.10022042574E+01  0.14149749800E+01  0.00000000000E+00 0. -1.
</event>
<event>
 7    1  0.1486782E-008  0.4614232E+02  0.7816164E-02  0.1320468E+00
        -11   -1    0    0    0    0  0.00000000000E+00  0.00000000000E+00  0.45593999997E+02  0.45594000000E+02  0.51100000000E-03 0. -1.
         11   -1    0    0    0    0 -0.00000000000E+00 -0.00000000000E+00 -0.45593999997E+02  0.45594000000E+02  0.51100000000E-03 0.  1.
    9900012    2    1    2    0    0 -0.17644754446E+02  0.28707245917E+02  0.29894316976E+02  0.46142317465E+02  0.99999972965E+01 0.  0.
        -12    1    1    2    0    0  0.17644754446E+02 -0.28707245917E+02 -0.29894316976E+02  0.45045682535E+02  0.00000000000E+00 0.  1.
         11    1    3    3    0    0 -0.70488666251E+01  0.15010031734E+02  0.17009805188E+02  0.23755442453E+02  0.51100000000E-03 0. -1.
        -11    1    3    3    0    0 -0.16363664701E+01  0.37593904571E+01  0.61913439391E+01  0.74258637118E+01  0.51100000000E-03 0.  1.
         12    1    3    3    0    0 -0.89595213510E+01  0.99378237265E+01  0.66931678485E+01  0.14961011300E+02  0.00000000000E+00 0. -1.
</event>
<event>
 7    1  0.1910675E-008  0.4614232E+02  0.7816164E-02  0.1320468E+00
        -11   -1    0    0    0    0  0.00000000000E+00  0.00000000000E+00  0.45593999997E+02  0.45594000000E+02  0.51100000000E-03 0. -1.
         11   -1    0    0    0    0 -0.00000000000E+00 -0.00000000000E+00 -0.45593999997E+02  0.45594000000E+02  0.51100000000E-03 0.  1.
    9900012    2    1    2    0    0  0.32939025937E+02 -0.30726712106E+02  0.56359439838E-01  0.46142318266E+02  0.10000004603E+02 0.  0.
        -12    1    1    2    0    0 -0.32939025937E+02  0.30726712106E+02 -0.56359439838E-01  0.45045681734E+02  0.00000000000E+00 0.  1.
         11    1    3    3    0    0  0.24932442529E+02 -0.25867435730E+02  0.31881870238E+01  0.36068205645E+02  0.51100000000E-03 0. -1.
        -11    1    3    3    0    0  0.34829991733E+01 -0.18607884350E+01 -0.23382976939E+01  0.45892758914E+01  0.51100000000E-03 0.  1.
         12    1    3    3    0    0  0.45235842350E+01 -0.29984879408E+01 -0.79352989006E+00  0.54848367295E+01  0.00000000000E+00 0. -1.
</event>
<event>
 7    1  0.1486782E-008  0.4614232E+02  0.7816164E-02  0.1320468E+00
        -11   -1    0    0    0    0  0.00000000000E+00  0.00000000000E+00  0.45593999997E+02  0.45594000000E+02  0.51100000000E-03 0.  1.
         11   -1    0    0    0    0 -0.00000000000E+00 -0.00000000000E+00 -0.45593999997E+02  0.45594000000E+02  0.51100000000E-03 0. -1.
    9900012    2    1    2    0    0  0.16919721509E+02  0.22534128446E+02 -0.35143272658E+02  0.46142317256E+02  0.99999953952E+01 0.  0.
        -12    1    1    2    0    0 -0.16919721509E+02 -0.22534128446E+02  0.35143272658E+02  0.45045682744E+02  0.00000000000E+00 0.  1.
         11    1    3    3    0    0  0.60634121387E+01  0.97311220764E+01 -0.16075758534E+02  0.19745625245E+02  0.51100000000E-03 0. -1.
        -11    1    3    3    0    0  0.11754757994E+02  0.11499176314E+02 -0.18403097567E+02  0.24679533863E+02  0.51100000000E-03 0.  1.
        -12    1    3    3    0    0 -0.89844862313E+00  0.13038300556E+01 -0.66441655679E+00  0.17171581474E+01  0.00000000000E+00 0.  1.
</event>
<event>
 7    1  0.1486782E-008  0.4614232E+02  0.7816164E-02  0.1320468E+00
        -11   -1    0    0    0    0  0.00000000000E+00  0.00000000000E+00  0.45593999997E+02  0.45594000000E+02  0.51100000000E-03 0.  1.
         11   -1    0    0    0    0 -0.00000000000E+00 -0.00000000000E+00 -0.45593999997E+02  0.45594000000E+02  0.51100000000E-03 0. -1.
    9900012    2    1    2    0    0 -0.26215919728E+02  0.36440920595E+02  0.37280507349E+01  0.46142317595E+02  0.99999984884E+01 0.  0.
        -12    1    1    2    0    0  0.26215919728E+02 -0.36440920595E+02 -0.37280507349E+01  0.45045682405E+02  0.00000000000E+00 0.  1.
         11    1    3    3    0    0 -0.48620900562E+01  0.89692726433E+01 -0.10559570848E+01  0.10256842452E+02  0.51100000000E-03 0. -1.
        -11    1    3    3    0    0 -0.57926723893E+01  0.12345185434E+02 -0.11776743556E+00  0.13637174423E+02  0.51100000000E-03 0.  1.
        -12    1    3    3    0    0 -0.15561157283E+02  0.15126462518E+02  0.49017752553E+01  0.22248300720E+02  0.00000000000E+00 0.  1.
</event>
<event>
 7    1  0.1486782E-008  0.4614232E+02  0.7816164E-02  0.1320468E+00
        -11   -1    0    0    0    0  0.00000000000E+00  0.00000000000E+00  0.45593999997E+02  0.45594000000E+02  0.51100000000E-03 0.  1.
         11   -1    0    0    0    0 -0.00000000000E+00 -0.00000000000E+00 -0.45593999997E+02  0.45594000000E+02  0.51100000000E-03 0. -1.
    9900012    2    1    2    0    0  0.43070295618E+01  0.27581254889E+02 -0.35353038932E+02  0.46142317781E+02  0.10000000179E+02 0.  0.
        -12    1    1    2    0    0 -0.43070295618E+01 -0.27581254889E+02  0.35353038932E+02  0.45045682219E+02  0.00000000000E+00 0.  1.
         11    1    3    3    0    0 -0.41438498242E+00  0.23399247890E+01 -0.61571456774E+01  0.65998034884E+01  0.51100000000E-03 0. -1.
        -11    1    3    3    0    0  0.35533241859E+01  0.20111917133E+02 -0.18213162523E+02  0.27364842643E+02  0.51100000000E-03 0.  1.
        -12    1    3    3    0    0  0.11680903583E+01  0.51294129662E+01 -0.10982730732E+02  0.12177671649E+02  0.00000000000E+00 0.  1.
</event>
<event>
 7    1  0.1486782E-008  0.4614232E+02  0.7816164E-02  0.1320468E+00
        -11   -1    0    0    0    0  0.00000000000E+00  0.00000000000E+00  0.45593999997E+02  0.45594000000E+02  0.51100000000E-03 0.  1.
         11   -1    0    0    0    0 -0.00000000000E+00 -0.00000000000E+00 -0.45593999997E+02  0.45594000000E+02  0.51100000000E-03 0. -1.
    9900012    2    1    2    0    0 -0.96568083807E+01  0.21110293716E+02 -0.38603303494E+02  0.46142317749E+02  0.99999998859E+01 0.  0.
        -12    1    1    2    0    0  0.96568083807E+01 -0.21110293716E+02  0.38603303494E+02  0.45045682251E+02  0.00000000000E+00 0.  1.
         11    1    3    3    0    0 -0.53013280029E+01  0.16873410313E+02 -0.33245290009E+02  0.37657208636E+02  0.51100000000E-03 0. -1.
        -11    1    3    3    0    0 -0.18841071403E+01  0.68816435036E+00 -0.28527988223E+01  0.34873903239E+01  0.51100000000E-03 0.  1.
         12    1    3    3    0    0 -0.24713732375E+01  0.35487190520E+01 -0.25052146626E+01  0.49977187891E+01  0.00000000000E+00 0. -1.
</event>
<event>
 7    1  0.1486782E-008  0.4614232E+02  0.7816164E-02  0.1320468E+00
        -11   -1    0    0    0    0  0.00000000000E+00  0.00000000000E+00  0.45593999997E+02  0.45594000000E+02  0.51100000000E-03 0.  1.
         11   -1    0    0    0    0 -0.00000000000E+00 -0.00000000000E+00 -0.45593999997E+02  0.45594000000E+02  0.51100000000E-03 0. -1.
    9900012    2    1    2    0    0 -0.28344536460E+02 -0.28737443874E+02 -0.19996499969E+02  0.46142318314E+02  0.10000005039E+02 0.  0.
        -12    1    1    2    0    0  0.28344536460E+02  0.28737443874E+02  0.19996499969E+02  0.45045681686E+02  0.00000000000E+00 0.  1.
         11    1    3    3    0    0 -0.14461900755E+02 -0.15581485097E+02 -0.82530280207E+01  0.22804423322E+02  0.51100000000E-03 0. -1.
        -11    1    3    3    0    0 -0.65099969766E+01 -0.10204660364E+02 -0.83316138826E+01  0.14694588934E+02  0.51100000000E-03 0.  1.
        -12    1    3    3    0    0 -0.73726387292E+01 -0.29512984124E+01 -0.34118580661E+01  0.86433060581E+01  0.00000000000E+00 0.  1.
</event>
<event>
 7    1  0.1486782E-008  0.4614232E+02  0.7816164E-02  0.1320468E+00
        -11   -1    0    0    0    0  0.00000000000E+00  0.00000000000E+00  0.45593999997E+02  0.45594000000E+02  0.51100000000E-03 0. -1.
         11   -1    0    0    0    0 -0.00000000000E+00 -0.00000000000E+00 -0.45593999997E+02  0.45594000000E+02  0.51100000000E-03 0.  1.
    9900012    2    1    2    0    0 -0.29870233305E+02  0.22307502598E+02  0.25283549457E+02  0.46142318931E+02  0.10000010664E+02 0.  0.
        -12    1    1    2    0    0  0.29870233305E+02 -0.22307502598E+02 -0.25283549457E+02  0.45045681069E+02  0.00000000000E+00 0.  1.
         11    1    3    3    0    0 -0.10249915547E+02  0.58643706976E+01  0.87296652836E+01  0.14685321536E+02  0.51100000000E-03 0. -1.
        -11    1    3    3    0    0 -0.66892422468E+01  0.10193842000E+02  0.94973126555E+01  0.15455074393E+02  0.51100000000E-03 0.  1.
        -12    1    3    3    0    0 -0.12931075512E+02  0.62492898997E+01  0.70565715177E+01  0.16001923001E+02  0.00000000000E+00 0.  1.
</event>
<event>
 7    1  0.1486782E-008  0.4614232E+02  0.7816164E-02  0.1320468E+00
        -11   -1    0    0    0    0  0.00000000000E+00  0.00000000000E+00  0.45593999997E+02  0.45594000000E+02  0.51100000000E-03 0.  1.
         11   -1    0    0    0    0 -0.00000000000E+00 -0.00000000000E+00 -0.45593999997E+02  0.45594000000E+02  0.51100000000E-03 0. -1.
    9900012    2    1    2    0    0  0.43676754883E+01  0.21412392647E+02 -0.39389672942E+02  0.46142317826E+02  0.10000000591E+02 0.  0.
        -12    1    1    2    0    0 -0.43676754883E+01 -0.21412392647E+02  0.39389672942E+02  0.45045682174E+02  0.00000000000E+00 0.  1.
         11    1    3    3    0    0  0.10238866619E+01  0.16446187529E+02 -0.26348296848E+02  0.31076650000E+02  0.51100000000E-03 0. -1.
        -11    1    3    3    0    0  0.37245218825E+01  0.19767530655E+01 -0.96368393959E+01  0.10518949080E+02  0.51100000000E-03 0.  1.
        -12    1    3    3    0    0 -0.38073305610E+00  0.29894520524E+01 -0.34045366980E+01  0.45467187467E+01  0.00000000000E+00 0.  1.
</event>
<event>
 7    1  0.1486782E-008  0.4614232E+02  0.7816164E-02  0.1320468E+00
        -11   -1    0    0    0    0  0.00000000000E+00  0.00000000000E+00  0.45593999997E+02  0.45594000000E+02  0.51100000000E-03 0.  1.
         11   -1    0    0    0    0 -0.00000000000E+00 -0.00000000000E+00 -0.45593999997E+02  0.45594000000E+02  0.51100000000E-03 0. -1.
    9900012    2    1    2    0    0 -0.39241070154E+02  0.20326032827E+02 -0.87237774272E+01  0.46142317744E+02  0.99999998415E+01 0.  0.
        -12    1    1    2    0    0  0.39241070154E+02 -0.20326032827E+02  0.87237774272E+01  0.45045682256E+02  0.00000000000E+00 0.  1.
         11    1    3    3    0    0 -0.41388372870E+01  0.20931073383E+01  0.17636054911E+01  0.49619932494E+01  0.51100000000E-03 0. -1.
        -11    1    3    3    0    0 -0.13036551630E+02  0.93104253269E+01 -0.40555823167E+01  0.16525236651E+02  0.51100000000E-03 0.  1.
         12    1    3    3    0    0 -0.22065681237E+02  0.89225001613E+01 -0.64318006017E+01  0.24655087844E+02  0.00000000000E+00 0. -1.
</event>
<event>
 7    1  0.1486782E-008  0.4614232E+02  0.7816164E-02  0.1320468E+00
        -11   -1    0    0    0    0  0.00000000000E+00  0.00000000000E+00  0.45593999997E+02  0.45594000000E+02  0.51100000000E-03 0.  1.
         11   -1    0    0    0    0 -0.00000000000E+00 -0.00000000000E+00 -0.45593999997E+02  0.45594000000E+02  0.51100000000E-03 0. -1.
    9900012    2    1    2    0    0 -0.15791417246E+02 -0.77024772813E+01 -0.41477904919E+02  0.46142316396E+02  0.99999875484E+01 0.  0.
        -12    1    1    2    0    0  0.15791417246E+02  0.77024772813E+01  0.41477904919E+02  0.45045683604E+02  0.00000000000E+00 0.  1.
         11    1    3    3    0    0 -0.12218131480E+02 -0.37554486537E+01 -0.33186616280E+02  0.35563149914E+02  0.51100000000E-03 0. -1.
        -11    1    3    3    0    0 -0.23127922671E+01 -0.44488891075E+01 -0.74584191831E+01  0.89871930731E+01  0.51100000000E-03 0.  1.
         12    1    3    3    0    0 -0.12604934988E+01  0.50186047990E+00 -0.83286945638E+00  0.15919734085E+01  0.00000000000E+00 0. -1.
</event>
<event>
 7    1  0.1486782E-008  0.4614232E+02  0.7816164E-02  0.1320468E+00
        -11   -1    0    0    0    0  0.00000000000E+00  0.00000000000E+00  0.45593999997E+02  0.45594000000E+02  0.51100000000E-03 0. -1.
         11   -1    0    0    0    0 -0.00000000000E+00 -0.00000000000E+00 -0.45593999997E+02  0.45594000000E+02  0.51100000000E-03 0.  1.
    9900012    2    1    2    0    0  0.31554719826E+02  0.27189522080E+02 -0.17150598141E+02  0.46142317956E+02  0.10000001774E+02 0.  0.
        -12    1    1    2    0    0 -0.31554719826E+02 -0.27189522080E+02  0.17150598141E+02  0.45045682044E+02  0.00000000000E+00 0.  1.
         11    1    3    3    0    0  0.10507990714E+02  0.61454560316E+01 -0.54737212768E+01  0.13347139153E+02  0.51100000000E-03 0.  1.
        -11    1    3    3    0    0  0.82343683242E+01  0.81085942061E+01 -0.79387734916E+00  0.11583797443E+02  0.51100000000E-03 0. -1.
        -12    1    3    3    0    0  0.12812360788E+02  0.12935471842E+02 -0.10882999515E+02  0.21211381360E+02  0.00000000000E+00 0.  1.
</event>
<event>
 7    1  0.1486782E-008  0.4614232E+02  0.7816164E-02  0.1320468E+00
        -11   -1    0    0    0    0  0.00000000000E+00  0.00000000000E+00  0.45593999997E+02  0.45594000000E+02  0.51100000000E-03 0.  1.
         11   -1    0    0    0    0 -0.00000000000E+00 -0.00000000000E+00 -0.45593999997E+02  0.45594000000E+02  0.51100000000E-03 0. -1.
    9900012    2    1    2    0    0  0.22217123784E+02  0.55700574847E+01 -0.38787718225E+02  0.46142320798E+02  0.10000027696E+02 0.  0.
        -12    1    1    2    0    0 -0.22217123784E+02 -0.55700574847E+01  0.38787718225E+02  0.45045679202E+02  0.00000000000E+00 0.  1.
         11    1    3    3    0    0  0.97237132429E+01  0.54898705231E+01 -0.15660529730E+02  0.19233862567E+02  0.51100000000E-03 0. -1.
        -11    1    3    3    0    0  0.87480414475E+01 -0.15487147743E+01 -0.19570695469E+02  0.21492763154E+02  0.51100000000E-03 0.  1.
        -12    1    3    3    0    0  0.37453690937E+01  0.16289017358E+01 -0.35564930270E+01  0.54156950767E+01  0.00000000000E+00 0.  1.
</event>
<event>
 7    1  0.1486782E-008  0.4614232E+02  0.7816164E-02  0.1320468E+00
        -11   -1    0    0    0    0  0.00000000000E+00  0.00000000000E+00  0.45593999997E+02  0.45594000000E+02  0.51100000000E-03 0. -1.
         11   -1    0    0    0    0 -0.00000000000E+00 -0.00000000000E+00 -0.45593999997E+02  0.45594000000E+02  0.51100000000E-03 0.  1.
    9900012    2    1    2    0    0 -0.44015211090E+02 -0.32508511534E+01  0.90114835292E+01  0.46142315679E+02  0.99999810176E+01 0.  0.
        -12    1    1    2    0    0  0.44015211090E+02  0.32508511534E+01 -0.90114835292E+01  0.45045684321E+02  0.00000000000E+00 0.  1.
         11    1    3    3    0    0 -0.93365355891E+01  0.90530858612E+00  0.24093339513E+01  0.96848010198E+01  0.51100000000E-03 0. -1.
        -11    1    3    3    0    0 -0.33586549581E+00  0.75670987532E+00  0.10283266350E+01  0.13201785470E+01  0.51100000000E-03 0.  1.
        -12    1    3    3    0    0 -0.34342810005E+02 -0.49128696148E+01  0.55738229429E+01  0.35137336113E+02  0.00000000000E+00 0.  1.
</event>
<event>
 7    1  0.1486782E-008  0.4614232E+02  0.7816164E-02  0.1320468E+00
        -11   -1    0    0    0    0  0.00000000000E+00  0.00000000000E+00  0.45593999997E+02  0.45594000000E+02  0.51100000000E-03 0. -1.
         11   -1    0    0    0    0 -0.00000000000E+00 -0.00000000000E+00 -0.45593999997E+02  0.45594000000E+02  0.51100000000E-03 0.  1.
    9900012    2    1    2    0    0  0.41324389283E+02 -0.74891892797E-01  0.17927713122E+02  0.46142315898E+02  0.99999830130E+01 0.  0.
        -12    1    1    2    0    0 -0.41324389283E+02  0.74891892797E-01 -0.17927713122E+02  0.45045684102E+02  0.00000000000E+00 0.  1.
         11    1    3    3    0    0  0.37283605858E+02  0.13774073919E+01  0.13445047722E+02  0.39657708272E+02  0.51100000000E-03 0. -1.
        -11    1    3    3    0    0  0.35465809338E+01 -0.18819301678E+01  0.40291688846E+01  0.56880664235E+01  0.51100000000E-03 0.  1.
         12    1    3    3    0    0  0.49420249122E+00  0.42963088311E+00  0.45349651486E+00  0.79654120235E+00  0.00000000000E+00 0. -1.
</event>
<event>
 7    1  0.1486782E-008  0.4614232E+02  0.7816164E-02  0.1320468E+00
        -11   -1    0    0    0    0  0.00000000000E+00  0.00000000000E+00  0.45593999997E+02  0.45594000000E+02  0.51100000000E-03 0.  1.
         11   -1    0    0    0    0 -0.00000000000E+00 -0.00000000000E+00 -0.45593999997E+02  0.45594000000E+02  0.51100000000E-03 0. -1.
    9900012    2    1    2    0    0 -0.19010833480E+02  0.22784253800E+02 -0.33890701480E+02  0.46142315882E+02  0.99999828677E+01 0.  0.
        -12    1    1    2    0    0  0.19010833480E+02 -0.22784253800E+02  0.33890701480E+02  0.45045684118E+02  0.00000000000E+00 0.  1.
         11    1    3    3    0    0 -0.13239581466E+01  0.25056879216E+01 -0.43510651710E+01  0.51926010359E+01  0.51100000000E-03 0. -1.
        -11    1    3    3    0    0 -0.13906156774E+02  0.19012693237E+02 -0.21134852296E+02  0.31647206546E+02  0.51100000000E-03 0.  1.
        -12    1    3    3    0    0 -0.37807185589E+01  0.12658726415E+01 -0.84047840132E+01  0.93025083002E+01  0.00000000000E+00 0.  1.
</event>
<event>
 7    1  0.1486782E-008  0.4614232E+02  0.7816164E-02  0.1320468E+00
        -11   -1    0    0    0    0  0.00000000000E+00  0.00000000000E+00  0.45593999997E+02  0.45594000000E+02  0.51100000000E-03 0.  1.
         11   -1    0    0    0    0 -0.00000000000E+00 -0.00000000000E+00 -0.45593999997E+02  0.45594000000E+02  0.51100000000E-03 0. -1.
    9900012    2    1    2    0    0  0.29398436545E+02  0.81923799307E+01 -0.33132013826E+02  0.46142317628E+02  0.99999987818E+01 0.  0.
        -12    1    1    2    0    0 -0.29398436545E+02 -0.81923799307E+01  0.33132013826E+02  0.45045682372E+02  0.00000000000E+00 0.  1.
         11    1    3    3    0    0  0.86335857637E+01  0.62360841095E+01 -0.12151236280E+02  0.16157973002E+02  0.51100000000E-03 0. -1.
        -11    1    3    3    0    0  0.83160865260E+01 -0.14616102350E+01 -0.71411937510E+01  0.11058492123E+02  0.51100000000E-03 0.  1.
        -12    1    3    3    0    0  0.12448764255E+02  0.34179060562E+01 -0.13839583796E+02  0.18925852502E+02  0.00000000000E+00 0.  1.
</event>
<event>
 7    1  0.1486782E-008  0.4614232E+02  0.7816164E-02  0.1320468E+00
        -11   -1    0    0    0    0  0.00000000000E+00  0.00000000000E+00  0.45593999997E+02  0.45594000000E+02  0.51100000000E-03 0.  1.
         11   -1    0    0    0    0 -0.00000000000E+00 -0.00000000000E+00 -0.45593999997E+02  0.45594000000E+02  0.51100000000E-03 0. -1.
    9900012    2    1    2    0    0  0.31490995072E+02  0.20448673760E+02 -0.24885385613E+02  0.46142318229E+02  0.10000004263E+02 0.  0.
        -12    1    1    2    0    0 -0.31490995072E+02 -0.20448673760E+02  0.24885385613E+02  0.45045681771E+02  0.00000000000E+00 0.  1.
         11    1    3    3    0    0  0.38859574353E+01  0.22810129255E+01 -0.70094335780E+00  0.45601542745E+01  0.51100000000E-03 0. -1.
        -11    1    3    3    0    0 -0.46162612211E+00  0.36233511653E+00 -0.37888427120E+00  0.69852628109E+00  0.51100000000E-03 0.  1.
         12    1    3    3    0    0  0.28066663759E+02  0.17805325718E+02 -0.23805557984E+02  0.40883637673E+02  0.00000000000E+00 0. -1.
</event>
<event>
 7    1  0.1486782E-008  0.4614232E+02  0.7816164E-02  0.1320468E+00
        -11   -1    0    0    0    0  0.00000000000E+00  0.00000000000E+00  0.45593999997E+02  0.45594000000E+02  0.51100000000E-03 0.  1.
         11   -1    0    0    0    0 -0.00000000000E+00 -0.00000000000E+00 -0.45593999997E+02  0.45594000000E+02  0.51100000000E-03 0. -1.
    9900012    2    1    2    0    0 -0.33984415449E+02 -0.75760310708E+01 -0.28579303780E+02  0.46142319355E+02  0.10000014537E+02 0.  0.
        -12    1    1    2    0    0  0.33984415449E+02  0.75760310708E+01  0.28579303780E+02  0.45045680645E+02  0.00000000000E+00 0.  1.
         11    1    3    3    0    0 -0.21184403504E+02 -0.74164798349E+01 -0.21048483662E+02  0.30770469443E+02  0.51100000000E-03 0. -1.
        -11    1    3    3    0    0 -0.93253984754E+00  0.97054517855E+00 -0.15851135339E+00  0.13552544488E+01  0.51100000000E-03 0.  1.
         12    1    3    3    0    0 -0.11867472097E+02 -0.11300964145E+01 -0.73723087648E+01  0.14016595464E+02  0.00000000000E+00 0. -1.
</event>
<event>
 7    1  0.1486782E-008  0.4614232E+02  0.7816164E-02  0.1320468E+00
        -11   -1    0    0    0    0  0.00000000000E+00  0.00000000000E+00  0.45593999997E+02  0.45594000000E+02  0.51100000000E-03 0. -1.
         11   -1    0    0    0    0 -0.00000000000E+00 -0.00000000000E+00 -0.45593999997E+02  0.45594000000E+02  0.51100000000E-03 0.  1.
    9900012    2    1    2    0    0  0.33663399500E+02 -0.29926106295E+02 -0.56326853854E+00  0.46142316796E+02  0.99999912018E+01 0.  0.
        -12    1    1    2    0    0 -0.33663399500E+02  0.29926106295E+02  0.56326853854E+00  0.45045683204E+02  0.00000000000E+00 0.  1.
         11    1    3    3    0    0  0.18187655401E+02 -0.18162907286E+02 -0.36967934501E+01  0.25968216962E+02  0.51100000000E-03 0. -1.
        -11    1    3    3    0    0  0.12385979535E+02 -0.99509948380E+01  0.81880011644E+00  0.15909280977E+02  0.51100000000E-03 0.  1.
        -12    1    3    3    0    0  0.30897645633E+01 -0.18122041702E+01  0.23147247952E+01  0.42648188577E+01  0.00000000000E+00 0.  1.
</event>
<event>
 7    1  0.1486782E-008  0.4614232E+02  0.7816164E-02  0.1320468E+00
        -11   -1    0    0    0    0  0.00000000000E+00  0.00000000000E+00  0.45593999997E+02  0.45594000000E+02  0.51100000000E-03 0.  1.
         11   -1    0    0    0    0 -0.00000000000E+00 -0.00000000000E+00 -0.45593999997E+02  0.45594000000E+02  0.51100000000E-03 0. -1.
    9900012    2    1    2    0    0 -0.38617183412E+01  0.42254874008E+02 -0.15123700765E+02  0.46142316846E+02  0.99999916560E+01 0.  0.
        -12    1    1    2    0    0  0.38617183412E+01 -0.42254874008E+02  0.15123700765E+02  0.45045683154E+02  0.00000000000E+00 0.  1.
         11    1    3    3    0    0 -0.25653825504E+01  0.34020668021E+02 -0.14272950746E+02  0.36982484550E+02  0.51100000000E-03 0. -1.
        -11    1    3    3    0    0 -0.11872449244E+00  0.67074293658E-02 -0.84010341755E+00  0.84847775930E+00  0.51100000000E-03 0.  1.
         12    1    3    3    0    0 -0.11776112984E+01  0.82274985575E+01 -0.10646601082E-01  0.83113545366E+01  0.00000000000E+00 0. -1.
</event>
<event>
 7    1  0.1486782E-008  0.4614232E+02  0.7816164E-02  0.1320468E+00
        -11   -1    0    0    0    0  0.00000000000E+00  0.00000000000E+00  0.45593999997E+02  0.45594000000E+02  0.51100000000E-03 0.  1.
         11   -1    0    0    0    0 -0.00000000000E+00 -0.00000000000E+00 -0.45593999997E+02  0.45594000000E+02  0.51100000000E-03 0. -1.
    9900012    2    1    2    0    0  0.82059294457E+01  0.43872287682E+02  0.60826459008E+01  0.46142317791E+02  0.10000000273E+02 0.  0.
        -12    1    1    2    0    0 -0.82059294457E+01 -0.43872287682E+02 -0.60826459008E+01  0.45045682209E+02  0.00000000000E+00 0.  1.
         11    1    3    3    0    0  0.80741179535E+01  0.26313031495E+02  0.30544041187E+01  0.27692894250E+02  0.51100000000E-03 0. -1.
        -11    1    3    3    0    0 -0.16006439221E+01  0.30156308534E+01  0.14809736550E+01  0.37214746590E+01  0.51100000000E-03 0.  1.
         12    1    3    3    0    0  0.17324554143E+01  0.14543625334E+02  0.15472681270E+01  0.14727948882E+02  0.00000000000E+00 0. -1.
</event>
<event>
 7    1  0.1486782E-008  0.4614232E+02  0.7816164E-02  0.1320468E+00
        -11   -1    0    0    0    0  0.00000000000E+00  0.00000000000E+00  0.45593999997E+02  0.45594000000E+02  0.51100000000E-03 0. -1.
         11   -1    0    0    0    0 -0.00000000000E+00 -0.00000000000E+00 -0.45593999997E+02  0.45594000000E+02  0.51100000000E-03 0.  1.
    9900012    2    1    2    0    0  0.77889594813E+01  0.34335444340E+02  0.28098452088E+02  0.46142316105E+02  0.99999848948E+01 0.  0.
        -12    1    1    2    0    0 -0.77889594813E+01 -0.34335444340E+02 -0.28098452088E+02  0.45045683895E+02  0.00000000000E+00 0.  1.
         11    1    3    3    0    0  0.43881986207E+01  0.25057147386E+02  0.15737648034E+02  0.29913048794E+02  0.51100000000E-03 0. -1.
        -11    1    3    3    0    0  0.87093649110E+00  0.47975588686E+01  0.84890401790E+01  0.97897346691E+01  0.51100000000E-03 0.  1.
         12    1    3    3    0    0  0.25298243695E+01  0.44807380856E+01  0.38717638757E+01  0.64395326415E+01  0.00000000000E+00 0. -1.
</event>
<event>
 7    1  0.1486782E-008  0.4614232E+02  0.7816164E-02  0.1320468E+00
        -11   -1    0    0    0    0  0.00000000000E+00  0.00000000000E+00  0.45593999997E+02  0.45594000000E+02  0.51100000000E-03 0. -1.
         11   -1    0    0    0    0 -0.00000000000E+00 -0.00000000000E+00 -0.45593999997E+02  0.45594000000E+02  0.51100000000E-03 0.  1.
    9900012    2    1    2    0    0  0.36161774411E+02 -0.26248096186E+02 -0.56988637705E+01  0.46142317297E+02  0.99999957649E+01 0.  0.
        -12    1    1    2    0    0 -0.36161774411E+02  0.26248096186E+02  0.56988637705E+01  0.45045682703E+02  0.00000000000E+00 0.  1.
         11    1    3    3    0    0  0.23348162461E+02 -0.22168559171E+02 -0.28121598455E+01  0.32318569728E+02  0.51100000000E-03 0. -1.
        -11    1    3    3    0    0  0.53246969466E+01 -0.13357496327E+01 -0.57473379191E+00  0.55196869338E+01  0.51100000000E-03 0.  1.
         12    1    3    3    0    0  0.74889150033E+01 -0.27437873820E+01 -0.23119701332E+01  0.83040606345E+01  0.00000000000E+00 0. -1.
</event>
<event>
 7    1  0.1486782E-008  0.4614232E+02  0.7816164E-02  0.1320468E+00
        -11   -1    0    0    0    0  0.00000000000E+00  0.00000000000E+00  0.45593999997E+02  0.45594000000E+02  0.51100000000E-03 0.  1.
         11   -1    0    0    0    0 -0.00000000000E+00 -0.00000000000E+00 -0.45593999997E+02  0.45594000000E+02  0.51100000000E-03 0. -1.
    9900012    2    1    2    0    0  0.28775246283E+02  0.34618061344E+02 -0.16396632752E+01  0.46142318015E+02  0.10000002314E+02 0.  0.
        -12    1    1    2    0    0 -0.28775246283E+02 -0.34618061344E+02  0.16396632752E+01  0.45045681985E+02  0.00000000000E+00 0.  1.
         11    1    3    3    0    0  0.17982800125E+02  0.22333949566E+02 -0.11493842297E+01  0.28696820171E+02  0.51100000000E-03 0. -1.
        -11    1    3    3    0    0  0.78080484819E+00  0.43799766662E+01 -0.13817782322E+01  0.46586653831E+01  0.51100000000E-03 0.  1.
        -12    1    3    3    0    0  0.10011641310E+02  0.79041351110E+01  0.89149918668E+00  0.12786832460E+02  0.00000000000E+00 0.  1.
</event>
<event>
 7    1  0.1486782E-008  0.4614232E+02  0.7816164E-02  0.1320468E+00
        -11   -1    0    0    0    0  0.00000000000E+00  0.00000000000E+00  0.45593999997E+02  0.45594000000E+02  0.51100000000E-03 0.  1.
         11   -1    0    0    0    0 -0.00000000000E+00 -0.00000000000E+00 -0.45593999997E+02  0.45594000000E+02  0.51100000000E-03 0. -1.
    9900012    2    1    2    0    0  0.42629630388E+02 -0.96850359699E+01 -0.10864078619E+02  0.46142317487E+02  0.99999975048E+01 0.  0.
        -12    1    1    2    0    0 -0.42629630388E+02  0.96850359699E+01  0.10864078619E+02  0.45045682513E+02  0.00000000000E+00 0.  1.
         11    1    3    3    0    0  0.23568330866E+02 -0.66989607995E+01 -0.53143773368E+01  0.25071595529E+02  0.51100000000E-03 0. -1.
        -11    1    3    3    0    0  0.13515444554E+02 -0.29777939800E+01 -0.67476937423E+01  0.15396943515E+02  0.51100000000E-03 0.  1.
         12    1    3    3    0    0  0.55458549678E+01 -0.82811904915E-02  0.11979924600E+01  0.56737784444E+01  0.00000000000E+00 0. -1.
</event>
<event>
 7    1  0.1486782E-008  0.4614232E+02  0.7816164E-02  0.1320468E+00
        -11   -1    0    0    0    0  0.00000000000E+00  0.00000000000E+00  0.45593999997E+02  0.45594000000E+02  0.51100000000E-03 0. -1.
         11   -1    0    0    0    0 -0.00000000000E+00 -0.00000000000E+00 -0.45593999997E+02  0.45594000000E+02  0.51100000000E-03 0.  1.
    9900012    2    1    2    0    0  0.23961443378E+02  0.25504506917E+02 -0.28363407112E+02  0.46142317578E+02  0.99999983333E+01 0.  0.
        -12    1    1    2    0    0 -0.23961443378E+02 -0.25504506917E+02  0.28363407112E+02  0.45045682422E+02  0.00000000000E+00 0.  1.
         11    1    3    3    0    0  0.20480103263E+02  0.21208881155E+02 -0.25700635641E+02  0.39112324683E+02  0.51100000000E-03 0. -1.
        -11    1    3    3    0    0 -0.22019865078E+00  0.20453470212E+01 -0.14963867244E+01  0.25438367426E+01  0.51100000000E-03 0.  1.
         12    1    3    3    0    0  0.37015387662E+01  0.22502787409E+01 -0.11663847463E+01  0.44861561527E+01  0.00000000000E+00 0. -1.
</event>
<event>
 7    1  0.1486782E-008  0.4614232E+02  0.7816164E-02  0.1320468E+00
        -11   -1    0    0    0    0  0.00000000000E+00  0.00000000000E+00  0.45593999997E+02  0.45594000000E+02  0.51100000000E-03 0. -1.
         11   -1    0    0    0    0 -0.00000000000E+00 -0.00000000000E+00 -0.45593999997E+02  0.45594000000E+02  0.51100000000E-03 0.  1.
    9900012    2    1    2    0    0 -0.14856226803E+02 -0.33847177011E+02  0.25744407477E+02  0.46142318933E+02  0.10000010689E+02 0.  0.
        -12    1    1    2    0    0  0.14856226803E+02  0.33847177011E+02 -0.25744407477E+02  0.45045681067E+02  0.00000000000E+00 0.  1.
         11    1    3    3    0    0 -0.29633745998E+01 -0.78794271926E+01  0.62063426471E+01  0.10458759545E+02  0.51100000000E-03 0. -1.
        -11    1    3    3    0    0 -0.73411644664E+01 -0.72658683822E+01  0.45413061587E+01  0.11283129041E+02  0.51100000000E-03 0.  1.
        -12    1    3    3    0    0 -0.45516877372E+01 -0.18701881436E+02  0.14996758671E+02  0.24400430347E+02  0.00000000000E+00 0.  1.
</event>
<event>
 7    1  0.1486782E-008  0.4614232E+02  0.7816164E-02  0.1320468E+00
        -11   -1    0    0    0    0  0.00000000000E+00  0.00000000000E+00  0.45593999997E+02  0.45594000000E+02  0.51100000000E-03 0.  1.
         11   -1    0    0    0    0 -0.00000000000E+00 -0.00000000000E+00 -0.45593999997E+02  0.45594000000E+02  0.51100000000E-03 0. -1.
    9900012    2    1    2    0    0 -0.43206192984E+01  0.25576552200E+02 -0.36827784319E+02  0.46142317949E+02  0.10000001714E+02 0.  0.
        -12    1    1    2    0    0  0.43206192984E+01 -0.25576552200E+02  0.36827784319E+02  0.45045682051E+02  0.00000000000E+00 0.  1.
         11    1    3    3    0    0 -0.27466354554E+01  0.13253645555E+02 -0.12655594516E+02  0.18530169984E+02  0.51100000000E-03 0. -1.
        -11    1    3    3    0    0 -0.66788216775E+00  0.79161742085E-01 -0.23915578563E+00  0.71381294632E+00  0.51100000000E-03 0.  1.
        -12    1    3    3    0    0 -0.90610167523E+00  0.12243744904E+02 -0.23933034017E+02  0.26898335019E+02  0.00000000000E+00 0.  1.
</event>
<event>
 7    1  0.1486782E-008  0.4614232E+02  0.7816164E-02  0.1320468E+00
        -11   -1    0    0    0    0  0.00000000000E+00  0.00000000000E+00  0.45593999997E+02  0.45594000000E+02  0.51100000000E-03 0. -1.
         11   -1    0    0    0    0 -0.00000000000E+00 -0.00000000000E+00 -0.45593999997E+02  0.45594000000E+02  0.51100000000E-03 0.  1.
    9900012    2    1    2    0    0  0.41525851833E+02 -0.16715664112E+02  0.50302870883E+01  0.46142316685E+02  0.99999901855E+01 0.  0.
        -12    1    1    2    0    0 -0.41525851833E+02  0.16715664112E+02 -0.50302870883E+01  0.45045683315E+02  0.00000000000E+00 0.  1.
         11    1    3    3    0    0  0.92521895671E+01 -0.66384647064E+01  0.16059339801E+01  0.11500054333E+02  0.51100000000E-03 0.  1.
        -11    1    3    3    0    0  0.11210243103E+02 -0.43036229989E+00  0.22716756221E+01  0.11446190307E+02  0.51100000000E-03 0. -1.
         12    1    3    3    0    0  0.21063419163E+02 -0.96468371054E+01  0.11526774861E+01  0.23196072046E+02  0.00000000000E+00 0. -1.
</event>
<event>
 7    1  0.1486782E-008  0.4614232E+02  0.7816164E-02  0.1320468E+00
        -11   -1    0    0    0    0  0.00000000000E+00  0.00000000000E+00  0.45593999997E+02  0.45594000000E+02  0.51100000000E-03 0. -1.
         11   -1    0    0    0    0 -0.00000000000E+00 -0.00000000000E+00 -0.45593999997E+02  0.45594000000E+02  0.51100000000E-03 0.  1.
    9900012    2    1    2    0    0  0.43537654270E+02  0.11499418607E+02 -0.11617169395E+01  0.46142317034E+02  0.99999933718E+01 0.  0.
        -12    1    1    2    0    0 -0.43537654270E+02 -0.11499418607E+02  0.11617169395E+01  0.45045682966E+02  0.00000000000E+00 0.  1.
         11    1    3    3    0    0  0.18456972187E+02  0.88226361883E+01  0.23382792657E+01  0.20590441516E+02  0.51100000000E-03 0. -1.
        -11    1    3    3    0    0  0.13605166021E+02  0.96119773791E+00 -0.28294196846E+01  0.13929467311E+02  0.51100000000E-03 0.  1.
         12    1    3    3    0    0  0.11475516061E+02  0.17155846806E+01 -0.67057652060E+00  0.11622408207E+02  0.00000000000E+00 0. -1.
</event>
<event>
 7    1  0.1486782E-008  0.4614232E+02  0.7816164E-02  0.1320468E+00
        -11   -1    0    0    0    0  0.00000000000E+00  0.00000000000E+00  0.45593999997E+02  0.45594000000E+02  0.51100000000E-03 0. -1.
         11   -1    0    0    0    0 -0.00000000000E+00 -0.00000000000E+00 -0.45593999997E+02  0.45594000000E+02  0.51100000000E-03 0.  1.
    9900012    2    1    2    0    0 -0.44799461607E+02 -0.20046465635E+00  0.46990980539E+01  0.46142317978E+02  0.10000001975E+02 0.  0.
        -12    1    1    2    0    0  0.44799461607E+02  0.20046465635E+00 -0.46990980539E+01  0.45045682022E+02  0.00000000000E+00 0.  1.
         11    1    3    3    0    0 -0.87409945762E+01 -0.25446457674E+01  0.17271907470E+00  0.91054950663E+01  0.51100000000E-03 0. -1.
        -11    1    3    3    0    0 -0.24646403428E+02  0.24536872256E+01  0.61209763685E+01  0.25513371688E+02  0.51100000000E-03 0.  1.
        -12    1    3    3    0    0 -0.11412063603E+02 -0.10950611453E+00 -0.15945973893E+01  0.11523451223E+02  0.00000000000E+00 0.  1.
</event>
<event>
 7    1  0.1486782E-008  0.4614232E+02  0.7816164E-02  0.1320468E+00
        -11   -1    0    0    0    0  0.00000000000E+00  0.00000000000E+00  0.45593999997E+02  0.45594000000E+02  0.51100000000E-03 0.  1.
         11   -1    0    0    0    0 -0.00000000000E+00 -0.00000000000E+00 -0.45593999997E+02  0.45594000000E+02  0.51100000000E-03 0. -1.
    9900012    2    1    2    0    0  0.43650986404E+02 -0.10898265710E+02  0.22209540912E+01  0.46142318225E+02  0.10000004227E+02 0.  0.
        -12    1    1    2    0    0 -0.43650986404E+02  0.10898265710E+02 -0.22209540912E+01  0.45045681775E+02  0.00000000000E+00 0.  1.
         11    1    3    3    0    0  0.10584546475E+02 -0.49973019379E+01  0.43120066132E+01  0.12473934906E+02  0.51100000000E-03 0. -1.
        -11    1    3    3    0    0  0.31083666817E+02 -0.53475220756E+01 -0.20952455335E+01  0.31609814762E+02  0.51100000000E-03 0.  1.
         12    1    3    3    0    0  0.19827731112E+01 -0.55344169640E+00  0.41930115047E-02  0.20585685569E+01  0.00000000000E+00 0. -1.
</event>
<event>
 7    1  0.1486782E-008  0.4614232E+02  0.7816164E-02  0.1320468E+00
        -11   -1    0    0    0    0  0.00000000000E+00  0.00000000000E+00  0.45593999997E+02  0.45594000000E+02  0.51100000000E-03 0. -1.
         11   -1    0    0    0    0 -0.00000000000E+00 -0.00000000000E+00 -0.45593999997E+02  0.45594000000E+02  0.51100000000E-03 0.  1.
    9900012    2    1    2    0    0 -0.32231824562E+02 -0.12576262876E+02  0.28845461506E+02  0.46142317055E+02  0.99999935570E+01 0.  0.
        -12    1    1    2    0    0  0.32231824562E+02  0.12576262876E+02 -0.28845461506E+02  0.45045682945E+02  0.00000000000E+00 0.  1.
         11    1    3    3    0    0 -0.58367817447E+01 -0.39573309191E+01  0.56534151765E+01  0.90382295035E+01  0.51100000000E-03 0. -1.
        -11    1    3    3    0    0 -0.78627163662E+01  0.12434526896E+01  0.67962757980E+01  0.10466988499E+02  0.51100000000E-03 0.  1.
        -12    1    3    3    0    0 -0.18532326451E+02 -0.98623846465E+01  0.16395770532E+02  0.26637099052E+02  0.00000000000E+00 0.  1.
</event>
<event>
 7    1  0.1486782E-008  0.4614232E+02  0.7816164E-02  0.1320468E+00
        -11   -1    0    0    0    0  0.00000000000E+00  0.00000000000E+00  0.45593999997E+02  0.45594000000E+02  0.51100000000E-03 0.  1.
         11   -1    0    0    0    0 -0.00000000000E+00 -0.00000000000E+00 -0.45593999997E+02  0.45594000000E+02  0.51100000000E-03 0. -1.
    9900012    2    1    2    0    0 -0.97189219584E+01 -0.41550536830E+02 -0.14429450193E+02  0.46142316658E+02  0.99999899427E+01 0.  0.
        -12    1    1    2    0    0  0.97189219584E+01  0.41550536830E+02  0.14429450193E+02  0.45045683342E+02  0.00000000000E+00 0.  1.
         11    1    3    3    0    0 -0.66547234355E+01 -0.14034361523E+02 -0.22464776570E+01  0.15693798441E+02  0.51100000000E-03 0. -1.
        -11    1    3    3    0    0 -0.27967146439E+01 -0.99185654387E+01 -0.45129482906E+01  0.11250166919E+02  0.51100000000E-03 0.  1.
         12    1    3    3    0    0 -0.26748387901E+00 -0.17597609868E+02 -0.76700242451E+01  0.19198351299E+02  0.00000000000E+00 0. -1.
</event>
<event>
 7    1  0.1486782E-008  0.4614232E+02  0.7816164E-02  0.1320468E+00
        -11   -1    0    0    0    0  0.00000000000E+00  0.00000000000E+00  0.45593999997E+02  0.45594000000E+02  0.51100000000E-03 0. -1.
         11   -1    0    0    0    0 -0.00000000000E+00 -0.00000000000E+00 -0.45593999997E+02  0.45594000000E+02  0.51100000000E-03 0.  1.
    9900012    2    1    2    0    0 -0.17696527384E+02 -0.37451109809E+02  0.17701997392E+02  0.46142318530E+02  0.10000007013E+02 0.  0.
        -12    1    1    2    0    0  0.17696527384E+02  0.37451109809E+02 -0.17701997392E+02  0.45045681470E+02  0.00000000000E+00 0.  1.
         11    1    3    3    0    0 -0.12240425992E+02 -0.26552482650E+02  0.10444346602E+02  0.31047491679E+02  0.51100000000E-03 0. -1.
        -11    1    3    3    0    0 -0.55784277397E+01 -0.76979721948E+01  0.34363950236E+01  0.10108731027E+02  0.51100000000E-03 0.  1.
         12    1    3    3    0    0  0.12232634712E+00 -0.32006549641E+01  0.38212557660E+01  0.49860958237E+01  0.00000000000E+00 0. -1.
</event>
<event>
 7    1  0.1486782E-008  0.4614232E+02  0.7816164E-02  0.1320468E+00
        -11   -1    0    0    0    0  0.00000000000E+00  0.00000000000E+00  0.45593999997E+02  0.45594000000E+02  0.51100000000E-03 0.  1.
         11   -1    0    0    0    0 -0.00000000000E+00 -0.00000000000E+00 -0.45593999997E+02  0.45594000000E+02  0.51100000000E-03 0. -1.
    9900012    2    1    2    0    0  0.50641704103E+00 -0.27548446435E+00 -0.45041993096E+02  0.46142317721E+02  0.99999996313E+01 0.  0.
        -12    1    1    2    0    0 -0.50641704103E+00  0.27548446435E+00  0.45041993096E+02  0.45045682279E+02  0.00000000000E+00 0.  1.
         11    1    3    3    0    0 -0.11894948948E+01  0.35293576716E+01 -0.23640133026E+02  0.23931718564E+02  0.51100000000E-03 0. -1.
        -11    1    3    3    0    0  0.78088336585E-01 -0.54053365568E-01  0.20239311741E+00  0.22356831111E+00  0.51100000000E-03 0.  1.
         12    1    3    3    0    0  0.16178235992E+01 -0.37507887704E+01 -0.21604253187E+02  0.21987030845E+02  0.00000000000E+00 0. -1.
</event>
<event>
 7    1  0.1486782E-008  0.4614232E+02  0.7816164E-02  0.1320468E+00
        -11   -1    0    0    0    0  0.00000000000E+00  0.00000000000E+00  0.45593999997E+02  0.45594000000E+02  0.51100000000E-03 0.  1.
         11   -1    0    0    0    0 -0.00000000000E+00 -0.00000000000E+00 -0.45593999997E+02  0.45594000000E+02  0.51100000000E-03 0. -1.
    9900012    2    1    2    0    0 -0.47520641455E+00  0.10181645743E+02 -0.43877349432E+02  0.46142317361E+02  0.99999963544E+01 0.  0.
        -12    1    1    2    0    0  0.47520641455E+00 -0.10181645743E+02  0.43877349432E+02  0.45045682639E+02  0.00000000000E+00 0.  1.
         11    1    3    3    0    0 -0.19137411984E+01 -0.12256941118E+01 -0.82023926279E+01  0.85114027348E+01  0.51100000000E-03 0. -1.
        -11    1    3    3    0    0  0.15416341256E+01  0.18199821808E+01 -0.73220874843E+01  0.77007750457E+01  0.51100000000E-03 0.  1.
         12    1    3    3    0    0 -0.10309934180E+00  0.95873576736E+01 -0.28352869320E+02  0.29930139581E+02  0.00000000000E+00 0. -1.
</event>
<event>
 7    1  0.1486782E-008  0.4614232E+02  0.7816164E-02  0.1320468E+00
        -11   -1    0    0    0    0  0.00000000000E+00  0.00000000000E+00  0.45593999997E+02  0.45594000000E+02  0.51100000000E-03 0.  1.
         11   -1    0    0    0    0 -0.00000000000E+00 -0.00000000000E+00 -0.45593999997E+02  0.45594000000E+02  0.51100000000E-03 0. -1.
    9900012    2    1    2    0    0 -0.94989366000E+01 -0.44027301825E+02 -0.69305686098E+00  0.46142318405E+02  0.10000005873E+02 0.  0.
        -12    1    1    2    0    0  0.94989366000E+01  0.44027301825E+02  0.69305686098E+00  0.45045681595E+02  0.00000000000E+00 0.  1.
         11    1    3    3    0    0 -0.67929472689E+01 -0.17171643130E+02 -0.93051242580E+00  0.18489870579E+02  0.51100000000E-03 0. -1.
        -11    1    3    3    0    0  0.16282714973E+01 -0.36225109079E+01 -0.52495702562E+00  0.40061744204E+01  0.51100000000E-03 0.  1.
        -12    1    3    3    0    0 -0.43342608285E+01 -0.23233147787E+02  0.76241259045E+00  0.23646273406E+02  0.00000000000E+00 0.  1.
</event>
<event>
 7    1  0.1486782E-008  0.4614232E+02  0.7816164E-02  0.1320468E+00
        -11   -1    0    0    0    0  0.00000000000E+00  0.00000000000E+00  0.45593999997E+02  0.45594000000E+02  0.51100000000E-03 0.  1.
         11   -1    0    0    0    0 -0.00000000000E+00 -0.00000000000E+00 -0.45593999997E+02  0.45594000000E+02  0.51100000000E-03 0. -1.
    9900012    2    1    2    0    0  0.43484569564E+02 -0.89610196738E+01 -0.76095887789E+01  0.46142317575E+02  0.99999983052E+01 0.  0.
        -12    1    1    2    0    0 -0.43484569564E+02  0.89610196738E+01  0.76095887789E+01  0.45045682425E+02  0.00000000000E+00 0.  1.
         11    1    3    3    0    0  0.34608816576E+02 -0.56773075259E+01 -0.91159932709E+01  0.36236767780E+02  0.51100000000E-03 0. -1.
        -11    1    3    3    0    0  0.51798178679E+01 -0.26167185235E+01 -0.13986690614E+00  0.58049368634E+01  0.51100000000E-03 0.  1.
         12    1    3    3    0    0  0.36959351196E+01 -0.66699362441E+00  0.16462713981E+01  0.41006129322E+01  0.00000000000E+00 0. -1.
</event>
<event>
 7    1  0.1486782E-008  0.4614232E+02  0.7816164E-02  0.1320468E+00
        -11   -1    0    0    0    0  0.00000000000E+00  0.00000000000E+00  0.45593999997E+02  0.45594000000E+02  0.51100000000E-03 0.  1.
         11   -1    0    0    0    0 -0.00000000000E+00 -0.00000000000E+00 -0.45593999997E+02  0.45594000000E+02  0.51100000000E-03 0. -1.
    9900012    2    1    2    0    0  0.39499398216E+02 -0.21135022280E+02  0.47140041297E+01  0.46142318063E+02  0.10000002755E+02 0.  0.
        -12    1    1    2    0    0 -0.39499398216E+02  0.21135022280E+02 -0.47140041297E+01  0.45045681937E+02  0.00000000000E+00 0.  1.
         11    1    3    3    0    0  0.73076909550E+01 -0.61896641083E+01 -0.59668974304E+00  0.95953284351E+01  0.51100000000E-03 0. -1.
        -11    1    3    3    0    0  0.61374212128E+01 -0.27376058691E+01 -0.17015266662E+01  0.69323602254E+01  0.51100000000E-03 0.  1.
        -12    1    3    3    0    0  0.26054286048E+02 -0.12207752303E+02  0.70122205389E+01  0.29614629403E+02  0.00000000000E+00 0.  1.
</event>
<event>
 7    1  0.1486782E-008  0.4614232E+02  0.7816164E-02  0.1320468E+00
        -11   -1    0    0    0    0  0.00000000000E+00  0.00000000000E+00  0.45593999997E+02  0.45594000000E+02  0.51100000000E-03 0. -1.
         11   -1    0    0    0    0 -0.00000000000E+00 -0.00000000000E+00 -0.45593999997E+02  0.45594000000E+02  0.51100000000E-03 0.  1.
    9900012    2    1    2    0    0  0.44396873259E+01 -0.42483123518E+02  0.14303386552E+02  0.46142317917E+02  0.10000001426E+02 0.  0.
        -12    1    1    2    0    0 -0.44396873259E+01  0.42483123518E+02 -0.14303386552E+02  0.45045682083E+02  0.00000000000E+00 0.  1.
         11    1    3    3    0    0  0.70206023938E+01 -0.24330452642E+02  0.74180419472E+01  0.26387253179E+02  0.51100000000E-03 0. -1.
        -11    1    3    3    0    0 -0.28932134160E+01 -0.16578606051E+02  0.57308257152E+01  0.17778167119E+02  0.51100000000E-03 0.  1.
         12    1    3    3    0    0  0.31229834812E+00 -0.15740648247E+01  0.11545188892E+01  0.19768976190E+01  0.00000000000E+00 0. -1.
</event>
<event>
 7    1  0.1486782E-008  0.4614232E+02  0.7816164E-02  0.1320468E+00
        -11   -1    0    0    0    0  0.00000000000E+00  0.00000000000E+00  0.45593999997E+02  0.45594000000E+02  0.51100000000E-03 0.  1.
         11   -1    0    0    0    0 -0.00000000000E+00 -0.00000000000E+00 -0.45593999997E+02  0.45594000000E+02  0.51100000000E-03 0. -1.
    9900012    2    1    2    0    0 -0.17993435530E+02 -0.28973219450E+02 -0.29426219130E+02  0.46142317190E+02  0.99999947941E+01 0.  0.
        -12    1    1    2    0    0  0.17993435530E+02  0.28973219450E+02  0.29426219130E+02  0.45045682810E+02  0.00000000000E+00 0.  1.
         11    1    3    3    0    0 -0.20475769768E+01 -0.18143829930E+01 -0.36337067200E+01  0.45484482969E+01  0.51100000000E-03 0. -1.
        -11    1    3    3    0    0 -0.12472317636E+02 -0.15226041989E+02 -0.12108956793E+02  0.23108827247E+02  0.51100000000E-03 0.  1.
        -12    1    3    3    0    0 -0.34735409175E+01 -0.11932794468E+02 -0.13683555618E+02  0.18485041646E+02  0.00000000000E+00 0.  1.
</event>
<event>
 7    1  0.1486782E-008  0.4614232E+02  0.7816164E-02  0.1320468E+00
        -11   -1    0    0    0    0  0.00000000000E+00  0.00000000000E+00  0.45593999997E+02  0.45594000000E+02  0.51100000000E-03 0.  1.
         11   -1    0    0    0    0 -0.00000000000E+00 -0.00000000000E+00 -0.45593999997E+02  0.45594000000E+02  0.51100000000E-03 0. -1.
    9900012    2    1    2    0    0  0.87512558786E+01  0.74725080255E+01 -0.43551012412E+02  0.46142317213E+02  0.99999950046E+01 0.  0.
        -12    1    1    2    0    0 -0.87512558786E+01 -0.74725080255E+01  0.43551012412E+02  0.45045682787E+02  0.00000000000E+00 0.  1.
         11    1    3    3    0    0 -0.36080920953E+00  0.56692061526E+00 -0.12730838794E+02  0.12748562230E+02  0.51100000000E-03 0. -1.
        -11    1    3    3    0    0  0.33919220660E+01  0.32390942320E+01 -0.57551891905E+01  0.74242218195E+01  0.51100000000E-03 0.  1.
        -12    1    3    3    0    0  0.57201430222E+01  0.36664931782E+01 -0.25064984427E+02  0.25969533164E+02  0.00000000000E+00 0.  1.
</event>
<event>
 7    1  0.1486782E-008  0.4614232E+02  0.7816164E-02  0.1320468E+00
        -11   -1    0    0    0    0  0.00000000000E+00  0.00000000000E+00  0.45593999997E+02  0.45594000000E+02  0.51100000000E-03 0.  1.
         11   -1    0    0    0    0 -0.00000000000E+00 -0.00000000000E+00 -0.45593999997E+02  0.45594000000E+02  0.51100000000E-03 0. -1.
    9900012    2    1    2    0    0 -0.29171799942E+02  0.28020220364E+02 -0.19823893627E+02  0.46142318525E+02  0.10000006963E+02 0.  0.
        -12    1    1    2    0    0  0.29171799942E+02 -0.28020220364E+02  0.19823893627E+02  0.45045681475E+02  0.00000000000E+00 0.  1.
         11    1    3    3    0    0 -0.53959683247E+01  0.93436753321E+01 -0.81807587530E+01  0.13540515386E+02  0.51100000000E-03 0.  1.
        -11    1    3    3    0    0 -0.19691714994E+02  0.16942123532E+02 -0.93602623527E+01  0.27611839865E+02  0.51100000000E-03 0. -1.
        -12    1    3    3    0    0 -0.40841166230E+01  0.17344214997E+01 -0.22828725209E+01  0.49899632740E+01  0.00000000000E+00 0.  1.
</event>
<event>
 7    1  0.1486782E-008  0.4614232E+02  0.7816164E-02  0.1320468E+00
        -11   -1    0    0    0    0  0.00000000000E+00  0.00000000000E+00  0.45593999997E+02  0.45594000000E+02  0.51100000000E-03 0. -1.
         11   -1    0    0    0    0 -0.00000000000E+00 -0.00000000000E+00 -0.45593999997E+02  0.45594000000E+02  0.51100000000E-03 0.  1.
    9900012    2    1    2    0    0  0.16654064254E+02 -0.35221359705E+02  0.22609984106E+02  0.46142318554E+02  0.10000007234E+02 0.  0.
        -12    1    1    2    0    0 -0.16654064254E+02  0.35221359705E+02 -0.22609984106E+02  0.45045681446E+02  0.00000000000E+00 0.  1.
         11    1    3    3    0    0  0.10154782000E+02 -0.11202643079E+02  0.74587434867E+01  0.16859764651E+02  0.51100000000E-03 0. -1.
        -11    1    3    3    0    0  0.16468096783E+01 -0.36469372490E+01  0.14459453851E+01  0.42547493149E+01  0.51100000000E-03 0.  1.
         12    1    3    3    0    0  0.48524725758E+01 -0.20371779376E+02  0.13705295234E+02  0.25027804588E+02  0.00000000000E+00 0. -1.
</event>
<event>
 7    1  0.1486782E-008  0.4614232E+02  0.7816164E-02  0.1320468E+00
        -11   -1    0    0    0    0  0.00000000000E+00  0.00000000000E+00  0.45593999997E+02  0.45594000000E+02  0.51100000000E-03 0.  1.
         11   -1    0    0    0    0 -0.00000000000E+00 -0.00000000000E+00 -0.45593999997E+02  0.45594000000E+02  0.51100000000E-03 0. -1.
    9900012    2    1    2    0    0 -0.24024662962E+01 -0.38437826700E+02 -0.23363970622E+02  0.46142317755E+02  0.99999999403E+01 0.  0.
        -12    1    1    2    0    0  0.24024662962E+01  0.38437826700E+02  0.23363970622E+02  0.45045682245E+02  0.00000000000E+00 0.  1.
         11    1    3    3    0    0  0.23209209129E+01 -0.95685053549E+01 -0.41067859754E+01  0.10668114169E+02  0.51100000000E-03 0. -1.
        -11    1    3    3    0    0 -0.43253080159E+00  0.14804304869E+00 -0.24364949487E+00  0.51803955067E+00  0.51100000000E-03 0.  1.
         12    1    3    3    0    0 -0.42908564075E+01 -0.29017364394E+02 -0.19013535152E+02  0.34956164035E+02  0.00000000000E+00 0. -1.
</event>
<event>
 7    1  0.1486782E-008  0.4614232E+02  0.7816164E-02  0.1320468E+00
        -11   -1    0    0    0    0  0.00000000000E+00  0.00000000000E+00  0.45593999997E+02  0.45594000000E+02  0.51100000000E-03 0.  1.
         11   -1    0    0    0    0 -0.00000000000E+00 -0.00000000000E+00 -0.45593999997E+02  0.45594000000E+02  0.51100000000E-03 0. -1.
    9900012    2    1    2    0    0 -0.78010663288E+01  0.12150276953E+02 -0.42668812523E+02  0.46142318431E+02  0.10000006106E+02 0.  0.
        -12    1    1    2    0    0  0.78010663288E+01 -0.12150276953E+02  0.42668812523E+02  0.45045681569E+02  0.00000000000E+00 0.  1.
         11    1    3    3    0    0 -0.87428236645E+01  0.11388503647E+02 -0.29983208083E+02  0.33243461735E+02  0.51100000000E-03 0. -1.
        -11    1    3    3    0    0  0.35571736861E+00 -0.62125099918E+00 -0.62203442792E+01  0.62614032663E+01  0.51100000000E-03 0.  1.
         12    1    3    3    0    0  0.58603996704E+00  0.13830243054E+01 -0.64652601614E+01  0.66374534294E+01  0.00000000000E+00 0. -1.
</event>
<event>
 7    1  0.1486782E-008  0.4614232E+02  0.7816164E-02  0.1320468E+00
        -11   -1    0    0    0    0  0.00000000000E+00  0.00000000000E+00  0.45593999997E+02  0.45594000000E+02  0.51100000000E-03 0.  1.
         11   -1    0    0    0    0 -0.00000000000E+00 -0.00000000000E+00 -0.45593999997E+02  0.45594000000E+02  0.51100000000E-03 0. -1.
    9900012    2    1    2    0    0  0.18923539392E+01  0.12686908980E+02 -0.43180724541E+02  0.46142316136E+02  0.99999851836E+01 0.  0.
        -12    1    1    2    0    0 -0.18923539392E+01 -0.12686908980E+02  0.43180724541E+02  0.45045683864E+02  0.00000000000E+00 0.  1.
         11    1    3    3    0    0  0.17672650162E+01  0.11994110200E+02 -0.29746800462E+02  0.32122485009E+02  0.51100000000E-03 0. -1.
        -11    1    3    3    0    0  0.31573565230E+00 -0.90045460109E+00 -0.11348378817E+02  0.11388424365E+02  0.51100000000E-03 0.  1.
        -12    1    3    3    0    0 -0.19064672936E+00  0.15932533811E+01 -0.20855452615E+01  0.26314067625E+01  0.00000000000E+00 0.  1.
</event>
<event>
 7    1  0.1486782E-008  0.4614232E+02  0.7816164E-02  0.1320468E+00
        -11   -1    0    0    0    0  0.00000000000E+00  0.00000000000E+00  0.45593999997E+02  0.45594000000E+02  0.51100000000E-03 0.  1.
         11   -1    0    0    0    0 -0.00000000000E+00 -0.00000000000E+00 -0.45593999997E+02  0.45594000000E+02  0.51100000000E-03 0. -1.
    9900012    2    1    2    0    0 -0.11475547760E+02 -0.11402237895E+02 -0.42040627273E+02  0.46142316889E+02  0.99999920494E+01 0.  0.
        -12    1    1    2    0    0  0.11475547760E+02  0.11402237895E+02  0.42040627273E+02  0.45045683111E+02  0.00000000000E+00 0.  1.
         11    1    3    3    0    0 -0.48670277560E+00 -0.14859138281E+01 -0.11689262436E+02  0.11793374244E+02  0.51100000000E-03 0. -1.
        -11    1    3    3    0    0 -0.92245815047E+01 -0.10511191921E+02 -0.24522794147E+02  0.28230223034E+02  0.51100000000E-03 0.  1.
        -12    1    3    3    0    0 -0.17642634798E+01  0.59486785387E+00 -0.58285706902E+01  0.61187196112E+01  0.00000000000E+00 0.  1.
</event>
<event>
 7    1  0.1486782E-008  0.4614232E+02  0.7816164E-02  0.1320468E+00
        -11   -1    0    0    0    0  0.00000000000E+00  0.00000000000E+00  0.45593999997E+02  0.45594000000E+02  0.51100000000E-03 0.  1.
         11   -1    0    0    0    0 -0.00000000000E+00 -0.00000000000E+00 -0.45593999997E+02  0.45594000000E+02  0.51100000000E-03 0. -1.
    9900012    2    1    2    0    0 -0.31692387987E+02 -0.10556024200E+02 -0.30220463440E+02  0.46142317479E+02  0.99999974316E+01 0.  0.
        -12    1    1    2    0    0  0.31692387987E+02  0.10556024200E+02  0.30220463440E+02  0.45045682521E+02  0.00000000000E+00 0.  1.
         11    1    3    3    0    0 -0.22595833382E+02 -0.35067213837E+01 -0.19971073964E+02  0.30359719640E+02  0.51100000000E-03 0. -1.
        -11    1    3    3    0    0 -0.88647226542E+01 -0.69838214020E+01 -0.10514496103E+02  0.15424386460E+02  0.51100000000E-03 0.  1.
         12    1    3    3    0    0 -0.23183195021E+00 -0.65481414351E-01  0.26510662656E+00  0.35821137923E+00  0.00000000000E+00 0. -1.
</event>
<event>
 7    1  0.1486782E-008  0.4614232E+02  0.7816164E-02  0.1320468E+00
        -11   -1    0    0    0    0  0.00000000000E+00  0.00000000000E+00  0.45593999997E+02  0.45594000000E+02  0.51100000000E-03 0.  1.
         11   -1    0    0    0    0 -0.00000000000E+00 -0.00000000000E+00 -0.45593999997E+02  0.45594000000E+02  0.51100000000E-03 0. -1.
    9900012    2    1    2    0    0 -0.10205744337E+02 -0.32340439901E+02 -0.29648817397E+02  0.46142316039E+02  0.99999843009E+01 0.  0.
        -12    1    1    2    0    0  0.10205744337E+02  0.32340439901E+02  0.29648817397E+02  0.45045683961E+02  0.00000000000E+00 0.  1.
         11    1    3    3    0    0 -0.42355399461E+01 -0.26267707347E+02 -0.23666685316E+02  0.35609608844E+02  0.51100000000E-03 0. -1.
        -11    1    3    3    0    0 -0.47399551505E+01 -0.53882141173E+01 -0.44133399389E+01  0.84248202283E+01  0.51100000000E-03 0.  1.
         12    1    3    3    0    0 -0.12302492400E+01 -0.68451843644E+00 -0.15687921416E+01  0.21078869670E+01  0.00000000000E+00 0. -1.
</event>
<event>
 7    1  0.1486782E-008  0.4614232E+02  0.7816164E-02  0.1320468E+00
        -11   -1    0    0    0    0  0.00000000000E+00  0.00000000000E+00  0.45593999997E+02  0.45594000000E+02  0.51100000000E-03 0.  1.
         11   -1    0    0    0    0 -0.00000000000E+00 -0.00000000000E+00 -0.45593999997E+02  0.45594000000E+02  0.51100000000E-03 0. -1.
    9900012    2    1    2    0    0  0.39443239221E+02  0.60911507328E+01 -0.20886412079E+02  0.46142318220E+02  0.10000004187E+02 0.  0.
        -12    1    1    2    0    0 -0.39443239221E+02 -0.60911507328E+01  0.20886412079E+02  0.45045681780E+02  0.00000000000E+00 0.  1.
         11    1    3    3    0    0  0.27114736943E+02  0.44267199583E+00 -0.13205611113E+02  0.30162776449E+02  0.51100000000E-03 0. -1.
        -11    1    3    3    0    0  0.56596345857E+01  0.43922344909E+01 -0.31908747739E+01  0.78425040358E+01  0.51100000000E-03 0.  1.
         12    1    3    3    0    0  0.66688676921E+01  0.12562442461E+01 -0.44899261918E+01  0.81370377355E+01  0.00000000000E+00 0. -1.
</event>
<event>
 7    1  0.1486782E-008  0.4614232E+02  0.7816164E-02  0.1320468E+00
        -11   -1    0    0    0    0  0.00000000000E+00  0.00000000000E+00  0.45593999997E+02  0.45594000000E+02  0.51100000000E-03 0. -1.
         11   -1    0    0    0    0 -0.00000000000E+00 -0.00000000000E+00 -0.45593999997E+02  0.45594000000E+02  0.51100000000E-03 0.  1.
    9900012    2    1    2    0    0  0.36312447305E+02  0.18167952191E+02  0.19505002942E+02  0.46142318121E+02  0.10000003285E+02 0.  0.
        -12    1    1    2    0    0 -0.36312447305E+02 -0.18167952191E+02 -0.19505002942E+02  0.45045681879E+02  0.00000000000E+00 0.  1.
         11    1    3    3    0    0  0.79153950274E+01  0.99867656270E+00  0.62440424673E+01  0.10131085821E+02  0.51100000000E-03 0. -1.
        -11    1    3    3    0    0  0.27538739825E+02  0.16327455124E+02  0.13566260276E+02  0.34770841234E+02  0.51100000000E-03 0.  1.
        -12    1    3    3    0    0  0.85831245265E+00  0.84182050474E+00 -0.30529980106E+00  0.12403910662E+01  0.00000000000E+00 0.  1.
</event>
<event>
 7    1  0.1486782E-008  0.4614232E+02  0.7816164E-02  0.1320468E+00
        -11   -1    0    0    0    0  0.00000000000E+00  0.00000000000E+00  0.45593999997E+02  0.45594000000E+02  0.51100000000E-03 0.  1.
         11   -1    0    0    0    0 -0.00000000000E+00 -0.00000000000E+00 -0.45593999997E+02  0.45594000000E+02  0.51100000000E-03 0. -1.
    9900012    2    1    2    0    0  0.64394451420E+01 -0.30465747716E+02 -0.32549734979E+02  0.46142317800E+02  0.10000000359E+02 0.  0.
        -12    1    1    2    0    0 -0.64394451420E+01  0.30465747716E+02  0.32549734979E+02  0.45045682200E+02  0.00000000000E+00 0.  1.
         11    1    3    3    0    0  0.17941302147E+01 -0.84685460008E+01 -0.10351245186E+02  0.13493830137E+02  0.51100000000E-03 0. -1.
        -11    1    3    3    0    0 -0.82725777030E+00 -0.97139700471E+00 -0.43425388546E+01  0.45261033488E+01  0.51100000000E-03 0.  1.
        -12    1    3    3    0    0  0.54725726976E+01 -0.21025804710E+02 -0.17855950938E+02  0.28122384315E+02  0.00000000000E+00 0.  1.
</event>
<event>
 7    1  0.1486782E-008  0.4614232E+02  0.7816164E-02  0.1320468E+00
        -11   -1    0    0    0    0  0.00000000000E+00  0.00000000000E+00  0.45593999997E+02  0.45594000000E+02  0.51100000000E-03 0.  1.
         11   -1    0    0    0    0 -0.00000000000E+00 -0.00000000000E+00 -0.45593999997E+02  0.45594000000E+02  0.51100000000E-03 0. -1.
    9900012    2    1    2    0    0 -0.35701806279E+02  0.33356938089E+01 -0.27264770345E+02  0.46142317335E+02  0.99999961160E+01 0.  0.
        -12    1    1    2    0    0  0.35701806279E+02 -0.33356938089E+01  0.27264770345E+02  0.45045682665E+02  0.00000000000E+00 0.  1.
         11    1    3    3    0    0 -0.92535119137E+01  0.26977329852E+01 -0.47088973544E+01  0.10727486218E+02  0.51100000000E-03 0. -1.
        -11    1    3    3    0    0 -0.87082526037E+01  0.23704473396E+01 -0.46618927146E+01  0.10158047447E+02  0.51100000000E-03 0.  1.
        -12    1    3    3    0    0 -0.17740041761E+02 -0.17324865159E+01 -0.17893980276E+02  0.25256783670E+02  0.00000000000E+00 0.  1.
</event>
<event>
 7    1  0.1486782E-008  0.4614232E+02  0.7816164E-02  0.1320468E+00
        -11   -1    0    0    0    0  0.00000000000E+00  0.00000000000E+00  0.45593999997E+02  0.45594000000E+02  0.51100000000E-03 0.  1.
         11   -1    0    0    0    0 -0.00000000000E+00 -0.00000000000E+00 -0.45593999997E+02  0.45594000000E+02  0.51100000000E-03 0. -1.
    9900012    2    1    2    0    0 -0.44634955646E+01 -0.26337831441E+02 -0.36269950387E+02  0.46142318090E+02  0.10000002999E+02 0.  0.
        -12    1    1    2    0    0  0.44634955646E+01  0.26337831441E+02  0.36269950387E+02  0.45045681910E+02  0.00000000000E+00 0.  1.
         11    1    3    3    0    0 -0.91338532613E+00  0.14688257390E+00 -0.14661205039E+01  0.17335965037E+01  0.51100000000E-03 0. -1.
        -11    1    3    3    0    0 -0.18743002779E+00 -0.88649840642E+01 -0.68942684960E+01  0.11231830253E+02  0.51100000000E-03 0.  1.
         12    1    3    3    0    0 -0.33626802106E+01 -0.17619729951E+02 -0.27909561387E+02  0.33176891333E+02  0.00000000000E+00 0. -1.
</event>
<event>
 7    1  0.1486782E-008  0.4614232E+02  0.7816164E-02  0.1320468E+00
        -11   -1    0    0    0    0  0.00000000000E+00  0.00000000000E+00  0.45593999997E+02  0.45594000000E+02  0.51100000000E-03 0.  1.
         11   -1    0    0    0    0 -0.00000000000E+00 -0.00000000000E+00 -0.45593999997E+02  0.45594000000E+02  0.51100000000E-03 0. -1.
    9900012    2    1    2    0    0 -0.24260401743E+02  0.36512525737E+02 -0.10362523415E+02  0.46142317411E+02  0.99999968044E+01 0.  0.
        -12    1    1    2    0    0  0.24260401743E+02 -0.36512525737E+02  0.10362523415E+02  0.45045682589E+02  0.00000000000E+00 0.  1.
         11    1    3    3    0    0 -0.84227406450E+01  0.10235302316E+02 -0.62344720618E+01  0.14648297363E+02  0.51100000000E-03 0. -1.
        -11    1    3    3    0    0  0.74231552043E-01  0.24163482400E+01  0.42657218819E+00  0.24548346651E+01  0.51100000000E-03 0.  1.
         12    1    3    3    0    0 -0.15911892650E+02  0.23860875181E+02 -0.45546235414E+01  0.29039185383E+02  0.00000000000E+00 0. -1.
</event>
<event>
 7    1  0.1486782E-008  0.4614232E+02  0.7816164E-02  0.1320468E+00
        -11   -1    0    0    0    0  0.00000000000E+00  0.00000000000E+00  0.45593999997E+02  0.45594000000E+02  0.51100000000E-03 0.  1.
         11   -1    0    0    0    0 -0.00000000000E+00 -0.00000000000E+00 -0.45593999997E+02  0.45594000000E+02  0.51100000000E-03 0. -1.
    9900012    2    1    2    0    0  0.61904422403E+01  0.36042285001E+02 -0.26301057955E+02  0.46142317268E+02  0.99999955040E+01 0.  0.
        -12    1    1    2    0    0 -0.61904422403E+01 -0.36042285001E+02  0.26301057955E+02  0.45045682732E+02  0.00000000000E+00 0.  1.
         11    1    3    3    0    0  0.18219401877E+01  0.16424320295E+02 -0.10476594435E+02  0.19566215639E+02  0.51100000000E-03 0. -1.
        -11    1    3    3    0    0 -0.20217065450E+01  0.43842665922E+01 -0.37844068439E+01  0.61343969815E+01  0.51100000000E-03 0.  1.
         12    1    3    3    0    0  0.63902085975E+01  0.15233698114E+02 -0.12040056676E+02  0.20441704648E+02  0.00000000000E+00 0. -1.
</event>
<event>
 7    1  0.1486782E-008  0.4614232E+02  0.7816164E-02  0.1320468E+00
        -11   -1    0    0    0    0  0.00000000000E+00  0.00000000000E+00  0.45593999997E+02  0.45594000000E+02  0.51100000000E-03 0.  1.
         11   -1    0    0    0    0 -0.00000000000E+00 -0.00000000000E+00 -0.45593999997E+02  0.45594000000E+02  0.51100000000E-03 0. -1.
    9900012    2    1    2    0    0  0.28451028572E+02 -0.13871900433E+02 -0.32050317466E+02  0.46142317654E+02  0.99999990197E+01 0.  0.
        -12    1    1    2    0    0 -0.28451028572E+02  0.13871900433E+02  0.32050317466E+02  0.45045682346E+02  0.00000000000E+00 0.  1.
         11    1    3    3    0    0  0.17017192371E+02 -0.94415685260E+01 -0.21479700719E+02  0.28984575133E+02  0.51100000000E-03 0. -1.
        -11    1    3    3    0    0  0.41094229459E+01 -0.12485633907E+01 -0.52818711356E+00  0.43272681194E+01  0.51100000000E-03 0.  1.
        -12    1    3    3    0    0  0.73244132551E+01 -0.31817685166E+01 -0.10042429633E+02  0.12830474401E+02  0.00000000000E+00 0.  1.
</event>
<event>
 7    1  0.1486782E-008  0.4614232E+02  0.7816164E-02  0.1320468E+00
        -11   -1    0    0    0    0  0.00000000000E+00  0.00000000000E+00  0.45593999997E+02  0.45594000000E+02  0.51100000000E-03 0. -1.
         11   -1    0    0    0    0 -0.00000000000E+00 -0.00000000000E+00 -0.45593999997E+02  0.45594000000E+02  0.51100000000E-03 0.  1.
    9900012    2    1    2    0    0 -0.12616263579E+02  0.16116880595E+02  0.40127167602E+02  0.46142317337E+02  0.99999961299E+01 0.  0.
        -12    1    1    2    0    0  0.12616263579E+02 -0.16116880595E+02 -0.40127167602E+02  0.45045682663E+02  0.00000000000E+00 0.  1.
         11    1    3    3    0    0 -0.64698328105E+00  0.21941954614E+01  0.59303494136E+01  0.63562666335E+01  0.51100000000E-03 0. -1.
        -11    1    3    3    0    0 -0.81596892030E+01  0.48957452081E+01  0.23097535751E+02  0.24980892839E+02  0.51100000000E-03 0.  1.
        -12    1    3    3    0    0 -0.38095910948E+01  0.90269399258E+01  0.11099282438E+02  0.14805157864E+02  0.00000000000E+00 0.  1.
</event>
<event>
 7    1  0.1486782E-008  0.4614232E+02  0.7816164E-02  0.1320468E+00
        -11   -1    0    0    0    0  0.00000000000E+00  0.00000000000E+00  0.45593999997E+02  0.45594000000E+02  0.51100000000E-03 0. -1.
         11   -1    0    0    0    0 -0.00000000000E+00 -0.00000000000E+00 -0.45593999997E+02  0.45594000000E+02  0.51100000000E-03 0.  1.
    9900012    2    1    2    0    0  0.86865373153E+01 -0.43100172662E+02  0.97996237961E+01  0.46142318291E+02  0.10000004834E+02 0.  0.
        -12    1    1    2    0    0 -0.86865373153E+01  0.43100172662E+02 -0.97996237961E+01  0.45045681709E+02  0.00000000000E+00 0.  1.
         11    1    3    3    0    0  0.55856713353E+01 -0.32062171950E+02  0.38172317686E+01  0.32768183548E+02  0.51100000000E-03 0. -1.
        -11    1    3    3    0    0 -0.61708782028E+00 -0.26020016550E+01  0.19616655315E+01  0.33165255779E+01  0.51100000000E-03 0.  1.
         12    1    3    3    0    0  0.37179538003E+01 -0.84359990574E+01  0.40207264960E+01  0.10057609165E+02  0.00000000000E+00 0. -1.
</event>
<event>
 7    1  0.1486782E-008  0.4614232E+02  0.7816164E-02  0.1320468E+00
        -11   -1    0    0    0    0  0.00000000000E+00  0.00000000000E+00  0.45593999997E+02  0.45594000000E+02  0.51100000000E-03 0. -1.
         11   -1    0    0    0    0 -0.00000000000E+00 -0.00000000000E+00 -0.45593999997E+02  0.45594000000E+02  0.51100000000E-03 0.  1.
    9900012    2    1    2    0    0 -0.10933206210E+02 -0.31983562173E+02  0.29776332320E+02  0.46142320809E+02  0.10000027792E+02 0.  0.
        -12    1    1    2    0    0  0.10933206210E+02  0.31983562173E+02 -0.29776332320E+02  0.45045679191E+02  0.00000000000E+00 0.  1.
         11    1    3    3    0    0 -0.11909779097E+01 -0.15900881609E+02  0.13919369568E+02  0.21166136013E+02  0.51100000000E-03 0. -1.
        -11    1    3    3    0    0 -0.15834510966E+00  0.10570388407E+00 -0.17531696041E+00  0.25881032164E+00  0.51100000000E-03 0.  1.
         12    1    3    3    0    0 -0.95838831909E+01 -0.16188384449E+02  0.16032279713E+02  0.24717374474E+02  0.00000000000E+00 0. -1.
</event>
<event>
 7    1  0.1486782E-008  0.4614232E+02  0.7816164E-02  0.1320468E+00
        -11   -1    0    0    0    0  0.00000000000E+00  0.00000000000E+00  0.45593999997E+02  0.45594000000E+02  0.51100000000E-03 0. -1.
         11   -1    0    0    0    0 -0.00000000000E+00 -0.00000000000E+00 -0.45593999997E+02  0.45594000000E+02  0.51100000000E-03 0.  1.
    9900012    2    1    2    0    0 -0.39881985269E+02 -0.11369995950E+02 -0.17585901139E+02  0.46142317901E+02  0.10000001275E+02 0.  0.
        -12    1    1    2    0    0  0.39881985269E+02  0.11369995950E+02  0.17585901139E+02  0.45045682099E+02  0.00000000000E+00 0.  1.
         11    1    3    3    0    0 -0.10724883326E+02 -0.70560693480E+01 -0.44279954925E+01  0.13580072950E+02  0.51100000000E-03 0. -1.
        -11    1    3    3    0    0 -0.28367670987E+02 -0.35792401778E+01 -0.12086905399E+02  0.31042374263E+02  0.51100000000E-03 0.  1.
         12    1    3    3    0    0 -0.78943095580E+00 -0.73468642450E+00 -0.10710002478E+01  0.15198706876E+01  0.00000000000E+00 0. -1.
</event>
<event>
 7    1  0.1486782E-008  0.4614232E+02  0.7816164E-02  0.1320468E+00
        -11   -1    0    0    0    0  0.00000000000E+00  0.00000000000E+00  0.45593999997E+02  0.45594000000E+02  0.51100000000E-03 0.  1.
         11   -1    0    0    0    0 -0.00000000000E+00 -0.00000000000E+00 -0.45593999997E+02  0.45594000000E+02  0.51100000000E-03 0. -1.
    9900012    2    1    2    0    0 -0.30693741232E+02  0.27865952946E+02 -0.17620907627E+02  0.46142317965E+02  0.10000001855E+02 0.  0.
        -12    1    1    2    0    0  0.30693741232E+02 -0.27865952946E+02  0.17620907627E+02  0.45045682035E+02  0.00000000000E+00 0.  1.
         11    1    3    3    0    0 -0.79985135688E+00  0.65130052882E+00 -0.20114135238E+01  0.22604732241E+01  0.51100000000E-03 0. -1.
        -11    1    3    3    0    0 -0.63718029306E+01  0.47217807449E+01 -0.60081035422E+01  0.99494921692E+01  0.51100000000E-03 0.  1.
        -12    1    3    3    0    0 -0.23522086945E+02  0.22492871672E+02 -0.96013905614E+01  0.33932352571E+02  0.00000000000E+00 0.  1.
</event>
<event>
 7    1  0.1486782E-008  0.4614232E+02  0.7816164E-02  0.1320468E+00
        -11   -1    0    0    0    0  0.00000000000E+00  0.00000000000E+00  0.45593999997E+02  0.45594000000E+02  0.51100000000E-03 0. -1.
         11   -1    0    0    0    0 -0.00000000000E+00 -0.00000000000E+00 -0.45593999997E+02  0.45594000000E+02  0.51100000000E-03 0.  1.
    9900012    2    1    2    0    0 -0.12531336511E+02 -0.41684703672E+02 -0.11595886283E+02  0.46142317702E+02  0.99999994620E+01 0.  0.
        -12    1    1    2    0    0  0.12531336511E+02  0.41684703672E+02  0.11595886283E+02  0.45045682298E+02  0.00000000000E+00 0.  1.
         11    1    3    3    0    0 -0.63689055414E+01 -0.31198137948E+02 -0.67718135296E+01  0.32553712967E+02  0.51100000000E-03 0. -1.
        -11    1    3    3    0    0 -0.39943658211E+01 -0.95280232530E+01 -0.40063253583E+01  0.11081012073E+02  0.51100000000E-03 0.  1.
         12    1    3    3    0    0 -0.21680651483E+01 -0.95854247163E+00 -0.81774739507E+00  0.25075926622E+01  0.00000000000E+00 0. -1.
</event>
<event>
 7    1  0.1486782E-008  0.4614232E+02  0.7816164E-02  0.1320468E+00
        -11   -1    0    0    0    0  0.00000000000E+00  0.00000000000E+00  0.45593999997E+02  0.45594000000E+02  0.51100000000E-03 0.  1.
         11   -1    0    0    0    0 -0.00000000000E+00 -0.00000000000E+00 -0.45593999997E+02  0.45594000000E+02  0.51100000000E-03 0. -1.
    9900012    2    1    2    0    0  0.32875101141E+02 -0.30376127086E+02 -0.50628182512E+01  0.46142317628E+02  0.99999987827E+01 0.  0.
        -12    1    1    2    0    0 -0.32875101141E+02  0.30376127086E+02  0.50628182512E+01  0.45045682372E+02  0.00000000000E+00 0.  1.
         11    1    3    3    0    0  0.18725380927E+02 -0.16973584024E+02  0.83611785696E+00  0.25287181314E+02  0.51100000000E-03 0. -1.
        -11    1    3    3    0    0  0.13398997535E+02 -0.12119968873E+02 -0.41089558626E+01  0.18528634569E+02  0.51100000000E-03 0.  1.
         12    1    3    3    0    0  0.75072267860E+00 -0.12825741887E+01 -0.17899802456E+01  0.23265017450E+01  0.00000000000E+00 0. -1.
</event>
<event>
 7    1  0.1486782E-008  0.4614232E+02  0.7816164E-02  0.1320468E+00
        -11   -1    0    0    0    0  0.00000000000E+00  0.00000000000E+00  0.45593999997E+02  0.45594000000E+02  0.51100000000E-03 0.  1.
         11   -1    0    0    0    0 -0.00000000000E+00 -0.00000000000E+00 -0.45593999997E+02  0.45594000000E+02  0.51100000000E-03 0. -1.
    9900012    2    1    2    0    0  0.43394563390E+02 -0.64820872712E+00 -0.12066699297E+02  0.46142317207E+02  0.99999949497E+01 0.  0.
        -12    1    1    2    0    0 -0.43394563390E+02  0.64820872712E+00  0.12066699297E+02  0.45045682793E+02  0.00000000000E+00 0.  1.
         11    1    3    3    0    0  0.12462190311E+02 -0.23948611003E+01 -0.36196893391E+01  0.13196351701E+02  0.51100000000E-03 0. -1.
        -11    1    3    3    0    0  0.70433430784E+01  0.34818714063E+01 -0.14179140990E+01  0.79838957197E+01  0.51100000000E-03 0.  1.
        -12    1    3    3    0    0  0.23889030000E+02 -0.17352190331E+01 -0.70290958589E+01  0.24962069787E+02  0.00000000000E+00 0.  1.
</event>
<event>
 7    1  0.1486782E-008  0.4614232E+02  0.7816164E-02  0.1320468E+00
        -11   -1    0    0    0    0  0.00000000000E+00  0.00000000000E+00  0.45593999997E+02  0.45594000000E+02  0.51100000000E-03 0.  1.
         11   -1    0    0    0    0 -0.00000000000E+00 -0.00000000000E+00 -0.45593999997E+02  0.45594000000E+02  0.51100000000E-03 0. -1.
    9900012    2    1    2    0    0  0.45037908190E+02 -0.15275268993E+00 -0.82275057231E+00  0.46142318453E+02  0.10000006307E+02 0.  0.
        -12    1    1    2    0    0 -0.45037908190E+02  0.15275268993E+00  0.82275057231E+00  0.45045681547E+02  0.00000000000E+00 0.  1.
         11    1    3    3    0    0  0.30365942401E+01  0.15943123428E+01 -0.15277466815E+01  0.37545634379E+01  0.51100000000E-03 0. -1.
        -11    1    3    3    0    0  0.21039469220E+02 -0.22801950856E+01  0.26554276617E+01  0.21328615779E+02  0.51100000000E-03 0.  1.
        -12    1    3    3    0    0  0.20961844730E+02  0.53313005288E+00 -0.19504315525E+01  0.21059139236E+02  0.00000000000E+00 0.  1.
</event>
<event>
 7    1  0.1486782E-008  0.4614232E+02  0.7816164E-02  0.1320468E+00
        -11   -1    0    0    0    0  0.00000000000E+00  0.00000000000E+00  0.45593999997E+02  0.45594000000E+02  0.51100000000E-03 0.  1.
         11   -1    0    0    0    0 -0.00000000000E+00 -0.00000000000E+00 -0.45593999997E+02  0.45594000000E+02  0.51100000000E-03 0. -1.
    9900012    2    1    2    0    0  0.34497930535E+02 -0.18196262420E+02 -0.22536691945E+02  0.46142315844E+02  0.99999825167E+01 0.  0.
        -12    1    1    2    0    0 -0.34497930535E+02  0.18196262420E+02  0.22536691945E+02  0.45045684156E+02  0.00000000000E+00 0.  1.
         11    1    3    3    0    0  0.71446429814E+01 -0.25359204132E+01 -0.66573993897E+01  0.10089488717E+02  0.51100000000E-03 0. -1.
        -11    1    3    3    0    0  0.24270602017E+01 -0.35424801948E+01 -0.41342975450E+00  0.43140133955E+01  0.51100000000E-03 0.  1.
        -12    1    3    3    0    0  0.24926227352E+02 -0.12117861812E+02 -0.15465862801E+02  0.31738813731E+02  0.00000000000E+00 0.  1.
</event>
<event>
 7    1  0.1486782E-008  0.4614232E+02  0.7816164E-02  0.1320468E+00
        -11   -1    0    0    0    0  0.00000000000E+00  0.00000000000E+00  0.45593999997E+02  0.45594000000E+02  0.51100000000E-03 0. -1.
         11   -1    0    0    0    0 -0.00000000000E+00 -0.00000000000E+00 -0.45593999997E+02  0.45594000000E+02  0.51100000000E-03 0.  1.
    9900012    2    1    2    0    0  0.59523169145E+00  0.43346031400E+02 -0.12242561973E+02  0.46142322488E+02  0.10000043103E+02 0.  0.
        -12    1    1    2    0    0 -0.59523169145E+00 -0.43346031400E+02  0.12242561973E+02  0.45045677512E+02  0.00000000000E+00 0.  1.
         11    1    3    3    0    0  0.17795584118E+01  0.22360692827E+02 -0.28559792398E+01  0.22612475087E+02  0.51100000000E-03 0. -1.
        -11    1    3    3    0    0 -0.19694434944E+01  0.34737617514E+01 -0.11077828612E+01  0.41440211765E+01  0.51100000000E-03 0.  1.
         12    1    3    3    0    0  0.78511677404E+00  0.17511576821E+02 -0.82787998717E+01  0.19385826225E+02  0.00000000000E+00 0. -1.
</event>
<event>
 7    1  0.1486782E-008  0.4614232E+02  0.7816164E-02  0.1320468E+00
        -11   -1    0    0    0    0  0.00000000000E+00  0.00000000000E+00  0.45593999997E+02  0.45594000000E+02  0.51100000000E-03 0.  1.
         11   -1    0    0    0    0 -0.00000000000E+00 -0.00000000000E+00 -0.45593999997E+02  0.45594000000E+02  0.51100000000E-03 0. -1.
    9900012    2    1    2    0    0  0.19443012270E+02  0.70826012773E+01 -0.40011492187E+02  0.46142317920E+02  0.10000001449E+02 0.  0.
        -12    1    1    2    0    0 -0.19443012270E+02 -0.70826012773E+01  0.40011492187E+02  0.45045682080E+02  0.00000000000E+00 0.  1.
         11    1    3    3    0    0  0.10809116654E+02  0.33659797345E+01 -0.25551852786E+02  0.27947522314E+02  0.51100000000E-03 0. -1.
        -11    1    3    3    0    0  0.72826189045E+01  0.37996787438E+01 -0.75602923911E+01  0.11163875580E+02  0.51100000000E-03 0.  1.
        -12    1    3    3    0    0  0.13512767111E+01 -0.83057200952E-01 -0.68993470098E+01  0.70309200259E+01  0.00000000000E+00 0.  1.
</event>
<event>
 7    1  0.1486782E-008  0.4614232E+02  0.7816164E-02  0.1320468E+00
        -11   -1    0    0    0    0  0.00000000000E+00  0.00000000000E+00  0.45593999997E+02  0.45594000000E+02  0.51100000000E-03 0.  1.
         11   -1    0    0    0    0 -0.00000000000E+00 -0.00000000000E+00 -0.45593999997E+02  0.45594000000E+02  0.51100000000E-03 0. -1.
    9900012    2    1    2    0    0  0.33158281865E+02 -0.29222329032E+02 -0.87004054636E+01  0.46142320679E+02  0.10000026607E+02 0.  0.
        -12    1    1    2    0    0 -0.33158281865E+02  0.29222329032E+02  0.87004054636E+01  0.45045679321E+02  0.00000000000E+00 0.  1.
         11    1    3    3    0    0  0.14193538611E+02 -0.87852937667E+01 -0.59647524102E+01  0.17726144433E+02  0.51100000000E-03 0. -1.
        -11    1    3    3    0    0  0.23776100519E+01 -0.50644572043E+01  0.27426331491E+00  0.56015155949E+01  0.51100000000E-03 0.  1.
         12    1    3    3    0    0  0.16587133202E+02 -0.15372578061E+02 -0.30099163683E+01  0.22814660651E+02  0.00000000000E+00 0. -1.
</event>
<event>
 7    1  0.1486782E-008  0.4614232E+02  0.7816164E-02  0.1320468E+00
        -11   -1    0    0    0    0  0.00000000000E+00  0.00000000000E+00  0.45593999997E+02  0.45594000000E+02  0.51100000000E-03 0. -1.
         11   -1    0    0    0    0 -0.00000000000E+00 -0.00000000000E+00 -0.45593999997E+02  0.45594000000E+02  0.51100000000E-03 0.  1.
    9900012    2    1    2    0    0 -0.38978994701E+02 -0.13230168236E+02 -0.18295192562E+02  0.46142318183E+02  0.10000003848E+02 0.  0.
        -12    1    1    2    0    0  0.38978994701E+02  0.13230168236E+02  0.18295192562E+02  0.45045681817E+02  0.00000000000E+00 0.  1.
         11    1    3    3    0    0 -0.18217338621E+02 -0.50395046919E+01 -0.49251181512E+01  0.19532660419E+02  0.51100000000E-03 0. -1.
        -11    1    3    3    0    0 -0.74083856469E+01 -0.11856604986E+01 -0.21205421538E+01  0.77965805324E+01  0.51100000000E-03 0.  1.
         12    1    3    3    0    0 -0.13353270433E+02 -0.70050030454E+01 -0.11249532257E+02  0.18813077232E+02  0.00000000000E+00 0. -1.
</event>
<event>
 7    1  0.1486782E-008  0.4614232E+02  0.7816164E-02  0.1320468E+00
        -11   -1    0    0    0    0  0.00000000000E+00  0.00000000000E+00  0.45593999997E+02  0.45594000000E+02  0.51100000000E-03 0. -1.
         11   -1    0    0    0    0 -0.00000000000E+00 -0.00000000000E+00 -0.45593999997E+02  0.45594000000E+02  0.51100000000E-03 0.  1.
    9900012    2    1    2    0    0  0.26082530029E+02 -0.19405795613E+02  0.31180604292E+02  0.46142319185E+02  0.10000012981E+02 0.  0.
        -12    1    1    2    0    0 -0.26082530029E+02  0.19405795613E+02 -0.31180604292E+02  0.45045680815E+02  0.00000000000E+00 0.  1.
         11    1    3    3    0    0  0.21462094351E+02 -0.12594335514E+02  0.24580178385E+02  0.34977477763E+02  0.51100000000E-03 0. -1.
        -11    1    3    3    0    0  0.23769025610E+01 -0.60292350887E+01  0.56771797710E+01  0.86157827244E+01  0.51100000000E-03 0.  1.
         12    1    3    3    0    0  0.22435331168E+01 -0.78222501063E+00  0.92324613622E+00  0.25490586972E+01  0.00000000000E+00 0. -1.
</event>
<event>
 7    1  0.1486782E-008  0.4614232E+02  0.7816164E-02  0.1320468E+00
        -11   -1    0    0    0    0  0.00000000000E+00  0.00000000000E+00  0.45593999997E+02  0.45594000000E+02  0.51100000000E-03 0. -1.
         11   -1    0    0    0    0 -0.00000000000E+00 -0.00000000000E+00 -0.45593999997E+02  0.45594000000E+02  0.51100000000E-03 0.  1.
    9900012    2    1    2    0    0  0.29419509055E+02 -0.24488913011E+02  0.23746559054E+02  0.46142318293E+02  0.10000004854E+02 0.  0.
        -12    1    1    2    0    0 -0.29419509055E+02  0.24488913011E+02 -0.23746559054E+02  0.45045681707E+02  0.00000000000E+00 0.  1.
         11    1    3    3    0    0  0.36448621842E+01 -0.41580662321E+01  0.28537971748E+01  0.62224347090E+01  0.51100000000E-03 0. -1.
        -11    1    3    3    0    0  0.22444326655E+02 -0.19074390369E+02  0.15046601325E+02  0.33075374203E+02  0.51100000000E-03 0.  1.
        -12    1    3    3    0    0  0.33303202160E+01 -0.12564564096E+01  0.58461605543E+01  0.68445093817E+01  0.00000000000E+00 0.  1.
</event>
<event>
 7    1  0.1486782E-008  0.4614232E+02  0.7816164E-02  0.1320468E+00
        -11   -1    0    0    0    0  0.00000000000E+00  0.00000000000E+00  0.45593999997E+02  0.45594000000E+02  0.51100000000E-03 0.  1.
         11   -1    0    0    0    0 -0.00000000000E+00 -0.00000000000E+00 -0.45593999997E+02  0.45594000000E+02  0.51100000000E-03 0. -1.
    9900012    2    1    2    0    0 -0.10048757343E+02 -0.33205209098E+02 -0.28732388235E+02  0.46142316865E+02  0.99999918315E+01 0.  0.
        -12    1    1    2    0    0  0.10048757343E+02  0.33205209098E+02  0.28732388235E+02  0.45045683135E+02  0.00000000000E+00 0.  1.
         11    1    3    3    0    0 -0.69212103059E+01 -0.20183956364E+02 -0.21415147795E+02  0.30230841899E+02  0.51100000000E-03 0. -1.
        -11    1    3    3    0    0  0.11477252375E+01 -0.34365471859E+01 -0.21553594072E+01  0.42157685204E+01  0.51100000000E-03 0.  1.
        -12    1    3    3    0    0 -0.42752722748E+01 -0.95847055478E+01 -0.51618810330E+01  0.11695706446E+02  0.00000000000E+00 0.  1.
</event>
<event>
 7    1  0.1486782E-008  0.4614232E+02  0.7816164E-02  0.1320468E+00
        -11   -1    0    0    0    0  0.00000000000E+00  0.00000000000E+00  0.45593999997E+02  0.45594000000E+02  0.51100000000E-03 0.  1.
         11   -1    0    0    0    0 -0.00000000000E+00 -0.00000000000E+00 -0.45593999997E+02  0.45594000000E+02  0.51100000000E-03 0. -1.
    9900012    2    1    2    0    0  0.20166101592E+02  0.27314475863E+02 -0.29603399073E+02  0.46142317834E+02  0.10000000662E+02 0.  0.
        -12    1    1    2    0    0 -0.20166101592E+02 -0.27314475863E+02  0.29603399073E+02  0.45045682166E+02  0.00000000000E+00 0.  1.
         11    1    3    3    0    0  0.92381741229E+01  0.74255742259E+01 -0.91572052299E+01  0.14977897769E+02  0.51100000000E-03 0.  1.
        -11    1    3    3    0    0  0.38017752395E+01  0.11206496044E+02 -0.13523577811E+02  0.17970147624E+02  0.51100000000E-03 0. -1.
        -12    1    3    3    0    0  0.71261522301E+01  0.86824055934E+01 -0.69226160325E+01  0.13194272440E+02  0.00000000000E+00 0.  1.
</event>
<event>
 7    1  0.1486782E-008  0.4614232E+02  0.7816164E-02  0.1320468E+00
        -11   -1    0    0    0    0  0.00000000000E+00  0.00000000000E+00  0.45593999997E+02  0.45594000000E+02  0.51100000000E-03 0.  1.
         11   -1    0    0    0    0 -0.00000000000E+00 -0.00000000000E+00 -0.45593999997E+02  0.45594000000E+02  0.51100000000E-03 0. -1.
    9900012    2    1    2    0    0 -0.21561602309E+02  0.63052706017E+01 -0.39044261737E+02  0.46142317565E+02  0.99999982100E+01 0.  0.
        -12    1    1    2    0    0  0.21561602309E+02 -0.63052706017E+01  0.39044261737E+02  0.45045682435E+02  0.00000000000E+00 0.  1.
         11    1    3    3    0    0 -0.66170097577E+01 -0.11834120416E+01 -0.99861622457E+01  0.12037803739E+02  0.51100000000E-03 0.  1.
        -11    1    3    3    0    0 -0.79298543364E-01  0.19268031800E+01 -0.40379985786E+01  0.44748510071E+01  0.51100000000E-03 0. -1.
         12    1    3    3    0    0 -0.14865294008E+02  0.55618794633E+01 -0.25020100912E+02  0.29629662819E+02  0.00000000000E+00 0. -1.
</event>
<event>
 7    1  0.1486782E-008  0.4614232E+02  0.7816164E-02  0.1320468E+00
        -11   -1    0    0    0    0  0.00000000000E+00  0.00000000000E+00  0.45593999997E+02  0.45594000000E+02  0.51100000000E-03 0.  1.
         11   -1    0    0    0    0 -0.00000000000E+00 -0.00000000000E+00 -0.45593999997E+02  0.45594000000E+02  0.51100000000E-03 0. -1.
    9900012    2    1    2    0    0 -0.28944706678E+02  0.33493269500E+02 -0.83377638661E+01  0.46142318156E+02  0.10000003601E+02 0.  0.
        -12    1    1    2    0    0  0.28944706678E+02 -0.33493269500E+02  0.83377638661E+01  0.45045681844E+02  0.00000000000E+00 0.  1.
         11    1    3    3    0    0 -0.13494172567E+02  0.13202106182E+02 -0.17275840444E+01  0.18957131845E+02  0.51100000000E-03 0. -1.
        -11    1    3    3    0    0 -0.24977444956E+01  0.40778432879E+01  0.13339529029E+01  0.49645708832E+01  0.51100000000E-03 0.  1.
         12    1    3    3    0    0 -0.12952789616E+02  0.16213320030E+02 -0.79441327246E+01  0.22220615428E+02  0.00000000000E+00 0. -1.
</event>
<event>
 7    1  0.1486782E-008  0.4614232E+02  0.7816164E-02  0.1320468E+00
        -11   -1    0    0    0    0  0.00000000000E+00  0.00000000000E+00  0.45593999997E+02  0.45594000000E+02  0.51100000000E-03 0. -1.
         11   -1    0    0    0    0 -0.00000000000E+00 -0.00000000000E+00 -0.45593999997E+02  0.45594000000E+02  0.51100000000E-03 0.  1.
    9900012    2    1    2    0    0  0.15671889673E+02 -0.42193581779E+02  0.17908613581E+01  0.46142315926E+02  0.99999832649E+01 0.  0.
        -12    1    1    2    0    0 -0.15671889673E+02  0.42193581779E+02 -0.17908613581E+01  0.45045684074E+02  0.00000000000E+00 0.  1.
         11    1    3    3    0    0  0.10596093437E+02 -0.19476945886E+02  0.32421767948E+01  0.22408487852E+02  0.51100000000E-03 0. -1.
        -11    1    3    3    0    0  0.40892167213E+01 -0.19997679753E+02 -0.26887715535E+01  0.20587821197E+02  0.51100000000E-03 0.  1.
        -12    1    3    3    0    0  0.98657951507E+00 -0.27189561399E+01  0.12374561168E+01  0.31460068772E+01  0.00000000000E+00 0.  1.
</event>
<event>
 7    1  0.1486782E-008  0.4614232E+02  0.7816164E-02  0.1320468E+00
        -11   -1    0    0    0    0  0.00000000000E+00  0.00000000000E+00  0.45593999997E+02  0.45594000000E+02  0.51100000000E-03 0.  1.
         11   -1    0    0    0    0 -0.00000000000E+00 -0.00000000000E+00 -0.45593999997E+02  0.45594000000E+02  0.51100000000E-03 0. -1.
    9900012    2    1    2    0    0  0.27346372855E+02 -0.13072862241E+02 -0.33322510065E+02  0.46142317493E+02  0.99999975548E+01 0.  0.
        -12    1    1    2    0    0 -0.27346372855E+02  0.13072862241E+02  0.33322510065E+02  0.45045682507E+02  0.00000000000E+00 0.  1.
         11    1    3    3    0    0  0.15457311384E+02 -0.91066350229E+01 -0.16939427594E+02  0.24673943425E+02  0.51100000000E-03 0. -1.
        -11    1    3    3    0    0  0.57241009782E+01  0.11753049253E+01 -0.71160892428E+01  0.92078987858E+01  0.51100000000E-03 0.  1.
        -12    1    3    3    0    0  0.61649604932E+01 -0.51415321433E+01 -0.92669932279E+01  0.12260475282E+02  0.00000000000E+00 0.  1.
</event>
<event>
 7    1  0.1486782E-008  0.4614232E+02  0.7816164E-02  0.1320468E+00
        -11   -1    0    0    0    0  0.00000000000E+00  0.00000000000E+00  0.45593999997E+02  0.45594000000E+02  0.51100000000E-03 0.  1.
         11   -1    0    0    0    0 -0.00000000000E+00 -0.00000000000E+00 -0.45593999997E+02  0.45594000000E+02  0.51100000000E-03 0. -1.
    9900012    2    1    2    0    0  0.24250271174E+01 -0.20180369494E+02 -0.40199321914E+02  0.46142317057E+02  0.99999935765E+01 0.  0.
        -12    1    1    2    0    0 -0.24250271174E+01  0.20180369494E+02  0.40199321914E+02  0.45045682943E+02  0.00000000000E+00 0.  1.
         11    1    3    3    0    0  0.13679110703E+01 -0.45309214488E+01 -0.36648088421E+01  0.59859213144E+01  0.51100000000E-03 0. -1.
        -11    1    3    3    0    0 -0.59833893379E+00 -0.13298385092E+02 -0.33103639239E+02  0.35679910127E+02  0.51100000000E-03 0.  1.
        -12    1    3    3    0    0  0.16554549809E+01 -0.23510629534E+01 -0.34308738335E+01  0.44764856156E+01  0.00000000000E+00 0.  1.
</event>
<event>
 7    1  0.1486782E-008  0.4614232E+02  0.7816164E-02  0.1320468E+00
        -11   -1    0    0    0    0  0.00000000000E+00  0.00000000000E+00  0.45593999997E+02  0.45594000000E+02  0.51100000000E-03 0. -1.
         11   -1    0    0    0    0 -0.00000000000E+00 -0.00000000000E+00 -0.45593999997E+02  0.45594000000E+02  0.51100000000E-03 0.  1.
    9900012    2    1    2    0    0  0.36781039563E+02 -0.25929897712E+02  0.19771178316E+01  0.46142318058E+02  0.10000002708E+02 0.  0.
        -12    1    1    2    0    0 -0.36781039563E+02  0.25929897712E+02 -0.19771178316E+01  0.45045681942E+02  0.00000000000E+00 0.  1.
         11    1    3    3    0    0  0.24503985950E+02 -0.11832636908E+02  0.13355370438E+01  0.27244087121E+02  0.51100000000E-03 0. -1.
        -11    1    3    3    0    0  0.16798368344E+01 -0.24736933456E+01 -0.82196434340E+00  0.31010701703E+01  0.51100000000E-03 0.  1.
         12    1    3    3    0    0  0.10597216778E+02 -0.11623567459E+02  0.14635451312E+01  0.15797160766E+02  0.00000000000E+00 0. -1.
</event>
<event>
 7    1  0.1486782E-008  0.4614232E+02  0.7816164E-02  0.1320468E+00
        -11   -1    0    0    0    0  0.00000000000E+00  0.00000000000E+00  0.45593999997E+02  0.45594000000E+02  0.51100000000E-03 0.  1.
         11   -1    0    0    0    0 -0.00000000000E+00 -0.00000000000E+00 -0.45593999997E+02  0.45594000000E+02  0.51100000000E-03 0. -1.
    9900012    2    1    2    0    0  0.11763151420E+02 -0.19828025530E+02 -0.38698722675E+02  0.46142318027E+02  0.10000002421E+02 0.  0.
        -12    1    1    2    0    0 -0.11763151420E+02  0.19828025530E+02  0.38698722675E+02  0.45045681973E+02  0.00000000000E+00 0.  1.
         11    1    3    3    0    0  0.27790790890E+01 -0.16379334473E+01 -0.57290065808E+01  0.65747717241E+01  0.51100000000E-03 0. -1.
        -11    1    3    3    0    0  0.73878454339E+01 -0.58975956727E+01 -0.13281947973E+02  0.16302516281E+02  0.51100000000E-03 0.  1.
        -12    1    3    3    0    0  0.15962268971E+01 -0.12292496410E+02 -0.19687768122E+02  0.23265030022E+02  0.00000000000E+00 0.  1.
</event>
<event>
 7    1  0.1486782E-008  0.4614232E+02  0.7816164E-02  0.1320468E+00
        -11   -1    0    0    0    0  0.00000000000E+00  0.00000000000E+00  0.45593999997E+02  0.45594000000E+02  0.51100000000E-03 0.  1.
         11   -1    0    0    0    0 -0.00000000000E+00 -0.00000000000E+00 -0.45593999997E+02  0.45594000000E+02  0.51100000000E-03 0. -1.
    9900012    2    1    2    0    0 -0.83813737585E+01 -0.11286461184E+02 -0.42795812909E+02  0.46142320577E+02  0.10000025678E+02 0.  0.
        -12    1    1    2    0    0  0.83813737585E+01  0.11286461184E+02  0.42795812909E+02  0.45045679423E+02  0.00000000000E+00 0.  1.
         11    1    3    3    0    0 -0.72121711931E+01 -0.22530540049E+01 -0.21924705359E+02  0.23190178331E+02  0.51100000000E-03 0. -1.
        -11    1    3    3    0    0 -0.73716090402E+00 -0.75626260720E+01 -0.14178508308E+02  0.16086230678E+02  0.51100000000E-03 0.  1.
         12    1    3    3    0    0 -0.43204166145E+00 -0.14707811069E+01 -0.66925992412E+01  0.68659115684E+01  0.00000000000E+00 0. -1.
</event>
<event>
 7    1  0.1486782E-008  0.4614232E+02  0.7816164E-02  0.1320468E+00
        -11   -1    0    0    0    0  0.00000000000E+00  0.00000000000E+00  0.45593999997E+02  0.45594000000E+02  0.51100000000E-03 0. -1.
         11   -1    0    0    0    0 -0.00000000000E+00 -0.00000000000E+00 -0.45593999997E+02  0.45594000000E+02  0.51100000000E-03 0.  1.
    9900012    2    1    2    0    0  0.19316684763E+02 -0.26615763758E+02 -0.30782792072E+02  0.46142317872E+02  0.10000001008E+02 0.  0.
        -12    1    1    2    0    0 -0.19316684763E+02  0.26615763758E+02  0.30782792072E+02  0.45045682128E+02  0.00000000000E+00 0.  1.
         11    1    3    3    0    0  0.91235185913E+01 -0.58279362419E+01 -0.12200369193E+02  0.16311114034E+02  0.51100000000E-03 0.  1.
        -11    1    3    3    0    0  0.87384268084E+01 -0.18226818718E+02 -0.14877315493E+02  0.25098038573E+02  0.51100000000E-03 0. -1.
        -12    1    3    3    0    0  0.14547393632E+01 -0.25610087975E+01 -0.37051073860E+01  0.47331652642E+01  0.00000000000E+00 0.  1.
</event>
<event>
 7    1  0.1486782E-008  0.4614232E+02  0.7816164E-02  0.1320468E+00
        -11   -1    0    0    0    0  0.00000000000E+00  0.00000000000E+00  0.45593999997E+02  0.45594000000E+02  0.51100000000E-03 0. -1.
         11   -1    0    0    0    0 -0.00000000000E+00 -0.00000000000E+00 -0.45593999997E+02  0.45594000000E+02  0.51100000000E-03 0.  1.
    9900012    2    1    2    0    0  0.16590458760E+02 -0.41522455169E+02 -0.54548786023E+01  0.46142319788E+02  0.10000018484E+02 0.  0.
        -12    1    1    2    0    0 -0.16590458760E+02  0.41522455169E+02  0.54548786023E+01  0.45045680212E+02  0.00000000000E+00 0.  1.
         11    1    3    3    0    0  0.14714695929E+02 -0.30424120352E+02 -0.31305782421E+01  0.33940387385E+02  0.51100000000E-03 0. -1.
        -11    1    3    3    0    0 -0.74935304720E+00 -0.67082620888E+01 -0.48939906308E+00  0.67677043335E+01  0.51100000000E-03 0.  1.
        -12    1    3    3    0    0  0.26251158789E+01 -0.43900727291E+01 -0.18349012971E+01  0.54342280698E+01  0.00000000000E+00 0.  1.
</event>
<event>
 7    1  0.1486782E-008  0.4614232E+02  0.7816164E-02  0.1320468E+00
        -11   -1    0    0    0    0  0.00000000000E+00  0.00000000000E+00  0.45593999997E+02  0.45594000000E+02  0.51100000000E-03 0.  1.
         11   -1    0    0    0    0 -0.00000000000E+00 -0.00000000000E+00 -0.45593999997E+02  0.45594000000E+02  0.51100000000E-03 0. -1.
    9900012    2    1    2    0    0  0.23798878007E+02  0.22424248353E+02 -0.30981931119E+02  0.46142316916E+02  0.99999922977E+01 0.  0.
        -12    1    1    2    0    0 -0.23798878007E+02 -0.22424248353E+02  0.30981931119E+02  0.45045683084E+02  0.00000000000E+00 0.  1.
         11    1    3    3    0    0  0.37128143062E+01  0.20038220082E+00 -0.56595858206E+01  0.67717099038E+01  0.51100000000E-03 0. -1.
        -11    1    3    3    0    0  0.94377891465E+01  0.12548682043E+02 -0.14428812938E+02  0.21324444379E+02  0.51100000000E-03 0.  1.
        -12    1    3    3    0    0  0.10648274554E+02  0.96751841086E+01 -0.10893532361E+02  0.18046162634E+02  0.00000000000E+00 0.  1.
</event>
<event>
 7    1  0.1486782E-008  0.4614232E+02  0.7816164E-02  0.1320468E+00
        -11   -1    0    0    0    0  0.00000000000E+00  0.00000000000E+00  0.45593999997E+02  0.45594000000E+02  0.51100000000E-03 0.  1.
         11   -1    0    0    0    0 -0.00000000000E+00 -0.00000000000E+00 -0.45593999997E+02  0.45594000000E+02  0.51100000000E-03 0. -1.
    9900012    2    1    2    0    0 -0.19654070882E+02  0.29117356977E+02 -0.28195929638E+02  0.46142318434E+02  0.10000006140E+02 0.  0.
        -12    1    1    2    0    0  0.19654070882E+02 -0.29117356977E+02  0.28195929638E+02  0.45045681566E+02  0.00000000000E+00 0.  1.
         11    1    3    3    0    0 -0.76159559221E+01  0.15739790311E+02 -0.17363883731E+02  0.24642407393E+02  0.51100000000E-03 0. -1.
        -11    1    3    3    0    0 -0.83643889677E+01  0.79883392297E+01 -0.45036066424E+01  0.12412052187E+02  0.51100000000E-03 0.  1.
        -12    1    3    3    0    0 -0.36737259919E+01  0.53892274370E+01 -0.63284392647E+01  0.90878588545E+01  0.00000000000E+00 0.  1.
</event>
<event>
 7    1  0.1486782E-008  0.4614232E+02  0.7816164E-02  0.1320468E+00
        -11   -1    0    0    0    0  0.00000000000E+00  0.00000000000E+00  0.45593999997E+02  0.45594000000E+02  0.51100000000E-03 0.  1.
         11   -1    0    0    0    0 -0.00000000000E+00 -0.00000000000E+00 -0.45593999997E+02  0.45594000000E+02  0.51100000000E-03 0. -1.
    9900012    2    1    2    0    0  0.33793763199E+02  0.29661621054E+02 -0.26987823476E+01  0.46142316290E+02  0.99999865869E+01 0.  0.
        -12    1    1    2    0    0 -0.33793763199E+02 -0.29661621054E+02  0.26987823476E+01  0.45045683710E+02  0.00000000000E+00 0.  1.
         11    1    3    3    0    0  0.11211946671E+02  0.14690035602E+02 -0.26447382781E+01  0.18668142247E+02  0.51100000000E-03 0. -1.
        -11    1    3    3    0    0  0.19887600607E+02  0.13331533066E+02  0.14364166747E+01  0.23985614958E+02  0.51100000000E-03 0.  1.
        -12    1    3    3    0    0  0.26942159208E+01  0.16400523867E+01 -0.14904607442E+01  0.34885590849E+01  0.00000000000E+00 0.  1.
</event>
<event>
 7    1  0.1486782E-008  0.4614232E+02  0.7816164E-02  0.1320468E+00
        -11   -1    0    0    0    0  0.00000000000E+00  0.00000000000E+00  0.45593999997E+02  0.45594000000E+02  0.51100000000E-03 0. -1.
         11   -1    0    0    0    0 -0.00000000000E+00 -0.00000000000E+00 -0.45593999997E+02  0.45594000000E+02  0.51100000000E-03 0.  1.
    9900012    2    1    2    0    0  0.18081536189E+02 -0.13919146980E+02  0.38838498224E+02  0.46142317100E+02  0.99999939735E+01 0.  0.
        -12    1    1    2    0    0 -0.18081536189E+02  0.13919146980E+02 -0.38838498224E+02  0.45045682900E+02  0.00000000000E+00 0.  1.
         11    1    3    3    0    0  0.44824118371E+01 -0.14105754883E+00  0.70382535220E+01  0.83455932090E+01  0.51100000000E-03 0. -1.
        -11    1    3    3    0    0  0.14204273904E+02 -0.12726442236E+02  0.30789124644E+02  0.36217315275E+02  0.51100000000E-03 0.  1.
        -12    1    3    3    0    0 -0.60514955248E+00 -0.10516471956E+01  0.10111200580E+01  0.15794086161E+01  0.00000000000E+00 0.  1.
</event>
<event>
 7    1  0.1486782E-008  0.4614232E+02  0.7816164E-02  0.1320468E+00
        -11   -1    0    0    0    0  0.00000000000E+00  0.00000000000E+00  0.45593999997E+02  0.45594000000E+02  0.51100000000E-03 0. -1.
         11   -1    0    0    0    0 -0.00000000000E+00 -0.00000000000E+00 -0.45593999997E+02  0.45594000000E+02  0.51100000000E-03 0.  1.
    9900012    2    1    2    0    0 -0.43472241587E+02  0.11489066019E+02  0.26979837216E+01  0.46142317157E+02  0.99999944934E+01 0.  0.
        -12    1    1    2    0    0  0.43472241587E+02 -0.11489066019E+02 -0.26979837216E+01  0.45045682843E+02  0.00000000000E+00 0.  1.
         11    1    3    3    0    0 -0.21803624549E+00  0.89731835601E+00  0.83080352646E+00  0.12421573157E+01  0.51100000000E-03 0. -1.
        -11    1    3    3    0    0 -0.97502255124E+01  0.57164430244E+00  0.17909695922E+01  0.99298160654E+01  0.51100000000E-03 0.  1.
         12    1    3    3    0    0 -0.33503979829E+02  0.10020103360E+02  0.76210602944E-01  0.34970343776E+02  0.00000000000E+00 0. -1.
</event>
<event>
 7    1  0.1486782E-008  0.4614232E+02  0.7816164E-02  0.1320468E+00
        -11   -1    0    0    0    0  0.00000000000E+00  0.00000000000E+00  0.45593999997E+02  0.45594000000E+02  0.51100000000E-03 0. -1.
         11   -1    0    0    0    0 -0.00000000000E+00 -0.00000000000E+00 -0.45593999997E+02  0.45594000000E+02  0.51100000000E-03 0.  1.
    9900012    2    1    2    0    0 -0.14440170801E+02  0.42073328303E+02  0.71014080782E+01  0.46142317810E+02  0.10000000444E+02 0.  0.
        -12    1    1    2    0    0  0.14440170801E+02 -0.42073328303E+02 -0.71014080782E+01  0.45045682190E+02  0.00000000000E+00 0.  1.
         11    1    3    3    0    0 -0.15135844139E+01  0.13882336498E+01  0.95877456165E+00  0.22665787799E+01  0.51100000000E-03 0. -1.
        -11    1    3    3    0    0 -0.61027581457E+01  0.19347331381E+02  0.69897554839E+01  0.21457389648E+02  0.51100000000E-03 0.  1.
        -12    1    3    3    0    0 -0.68238282419E+01  0.21337763273E+02 -0.84712196730E+00  0.22418349382E+02  0.00000000000E+00 0.  1.
</event>
<event>
 7    1  0.1486782E-008  0.4614232E+02  0.7816164E-02  0.1320468E+00
        -11   -1    0    0    0    0  0.00000000000E+00  0.00000000000E+00  0.45593999997E+02  0.45594000000E+02  0.51100000000E-03 0.  1.
         11   -1    0    0    0    0 -0.00000000000E+00 -0.00000000000E+00 -0.45593999997E+02  0.45594000000E+02  0.51100000000E-03 0. -1.
    9900012    2    1    2    0    0 -0.41222442855E+02 -0.13409279101E+02  0.12248062152E+02  0.46142316662E+02  0.99999899748E+01 0.  0.
        -12    1    1    2    0    0  0.41222442855E+02  0.13409279101E+02 -0.12248062152E+02  0.45045683338E+02  0.00000000000E+00 0.  1.
         11    1    3    3    0    0 -0.12858960739E+02 -0.18634397958E+01  0.11980876293E+01  0.13048398116E+02  0.51100000000E-03 0. -1.
        -11    1    3    3    0    0 -0.69219633703E+01 -0.33085210639E+01  0.15978602337E+00  0.76736836242E+01  0.51100000000E-03 0.  1.
         12    1    3    3    0    0 -0.21441518746E+02 -0.82373182417E+01  0.10890188499E+02  0.25420234922E+02  0.00000000000E+00 0. -1.
</event>
<event>
 7    1  0.1486782E-008  0.4614232E+02  0.7816164E-02  0.1320468E+00
        -11   -1    0    0    0    0  0.00000000000E+00  0.00000000000E+00  0.45593999997E+02  0.45594000000E+02  0.51100000000E-03 0.  1.
         11   -1    0    0    0    0 -0.00000000000E+00 -0.00000000000E+00 -0.45593999997E+02  0.45594000000E+02  0.51100000000E-03 0. -1.
    9900012    2    1    2    0    0 -0.43998211309E+02  0.14407945990E+01 -0.95496087804E+01  0.46142317462E+02  0.99999972686E+01 0.  0.
        -12    1    1    2    0    0  0.43998211309E+02 -0.14407945990E+01  0.95496087804E+01  0.45045682538E+02  0.00000000000E+00 0.  1.
         11    1    3    3    0    0 -0.12290016889E+02  0.29537966584E+01  0.40673683848E+00  0.12646535689E+02  0.51100000000E-03 0.  1.
        -11    1    3    3    0    0 -0.10354444490E+02 -0.22814717797E+01 -0.28809859821E+01  0.10987252371E+02  0.51100000000E-03 0. -1.
         12    1    3    3    0    0 -0.21353749931E+02  0.76846972039E+00 -0.70753596369E+01  0.22508529402E+02  0.00000000000E+00 0. -1.
</event>
<event>
 7    1  0.1486782E-008  0.4614232E+02  0.7816164E-02  0.1320468E+00
        -11   -1    0    0    0    0  0.00000000000E+00  0.00000000000E+00  0.45593999997E+02  0.45594000000E+02  0.51100000000E-03 0.  1.
         11   -1    0    0    0    0 -0.00000000000E+00 -0.00000000000E+00 -0.45593999997E+02  0.45594000000E+02  0.51100000000E-03 0. -1.
    9900012    2    1    2    0    0 -0.23818911973E+02 -0.33205246897E+02  0.18952163046E+02  0.46142317929E+02  0.10000001535E+02 0.  0.
        -12    1    1    2    0    0  0.23818911973E+02  0.33205246897E+02 -0.18952163046E+02  0.45045682071E+02  0.00000000000E+00 0.  1.
         11    1    3    3    0    0 -0.11522867533E+02 -0.93212441783E+01  0.68589520555E+01  0.16331175487E+02  0.51100000000E-03 0.  1.
        -11    1    3    3    0    0 -0.82721868414E-01 -0.29057260028E+01  0.67001296983E+00  0.29831198688E+01  0.51100000000E-03 0. -1.
        -12    1    3    3    0    0 -0.12213322572E+02 -0.20978276716E+02  0.11423198020E+02  0.26828022574E+02  0.00000000000E+00 0.  1.
</event>
<event>
 7    1  0.1486782E-008  0.4614232E+02  0.7816164E-02  0.1320468E+00
        -11   -1    0    0    0    0  0.00000000000E+00  0.00000000000E+00  0.45593999997E+02  0.45594000000E+02  0.51100000000E-03 0. -1.
         11   -1    0    0    0    0 -0.00000000000E+00 -0.00000000000E+00 -0.45593999997E+02  0.45594000000E+02  0.51100000000E-03 0.  1.
    9900012    2    1    2    0    0  0.28422262462E+02  0.24037146395E+02  0.25367382050E+02  0.46142317828E+02  0.10000000605E+02 0.  0.
        -12    1    1    2    0    0 -0.28422262462E+02 -0.24037146395E+02 -0.25367382050E+02  0.45045682172E+02  0.00000000000E+00 0.  1.
         11    1    3    3    0    0  0.10569325704E+02  0.10628039881E+02  0.10125428489E+02  0.18088399042E+02  0.51100000000E-03 0. -1.
        -11    1    3    3    0    0  0.10183719455E+02  0.31615349258E+01  0.81483101125E+01  0.13420074626E+02  0.51100000000E-03 0.  1.
        -12    1    3    3    0    0  0.76692173035E+01  0.10247571589E+02  0.70936434485E+01  0.14633844159E+02  0.00000000000E+00 0.  1.
</event>
<event>
 7    1  0.1486782E-008  0.4614232E+02  0.7816164E-02  0.1320468E+00
        -11   -1    0    0    0    0  0.00000000000E+00  0.00000000000E+00  0.45593999997E+02  0.45594000000E+02  0.51100000000E-03 0.  1.
         11   -1    0    0    0    0 -0.00000000000E+00 -0.00000000000E+00 -0.45593999997E+02  0.45594000000E+02  0.51100000000E-03 0. -1.
    9900012    2    1    2    0    0 -0.28659822867E+02  0.73679899894E+01 -0.33962342576E+02  0.46142318337E+02  0.10000005252E+02 0.  0.
        -12    1    1    2    0    0  0.28659822867E+02 -0.73679899894E+01  0.33962342576E+02  0.45045681663E+02  0.00000000000E+00 0.  1.
         11    1    3    3    0    0 -0.23578709178E+02  0.44745571606E+01 -0.25936559588E+02  0.35336699220E+02  0.51100000000E-03 0. -1.
        -11    1    3    3    0    0  0.76612824323E+00  0.49616393916E+00 -0.11162494343E+01  0.14419237845E+01  0.51100000000E-03 0.  1.
        -12    1    3    3    0    0 -0.58472419326E+01  0.23972688896E+01 -0.69095335536E+01  0.93636953322E+01  0.00000000000E+00 0.  1.
</event>
<event>
 7    1  0.1486782E-008  0.4614231E+02  0.7816164E-02  0.1320468E+00
        -11   -1    0    0    0    0  0.00000000000E+00  0.00000000000E+00  0.45593999997E+02  0.45594000000E+02  0.51100000000E-03 0. -1.
         11   -1    0    0    0    0 -0.00000000000E+00 -0.00000000000E+00 -0.45593999997E+02  0.45594000000E+02  0.51100000000E-03 0.  1.
    9900012    2    1    2    0    0  0.31750742326E+02  0.11320269916E+02  0.29880689531E+02  0.46142314790E+02  0.99999729068E+01 0.  0.
        -12    1    1    2    0    0 -0.31750742326E+02 -0.11320269916E+02 -0.29880689531E+02  0.45045685210E+02  0.00000000000E+00 0.  1.
         11    1    3    3    0    0  0.14410420536E+02  0.42268238756E+01  0.13346379737E+02  0.20091095352E+02  0.51100000000E-03 0. -1.
        -11    1    3    3    0    0  0.16010522081E+02  0.71521577638E+01  0.17200144365E+02  0.24562881436E+02  0.51100000000E-03 0.  1.
        -12    1    3    3    0    0  0.13297997087E+01 -0.58711723552E-01 -0.66583457145E+00  0.14883380020E+01  0.00000000000E+00 0.  1.
</event>
<event>
 7    1  0.1486782E-008  0.4614232E+02  0.7816164E-02  0.1320468E+00
        -11   -1    0    0    0    0  0.00000000000E+00  0.00000000000E+00  0.45593999997E+02  0.45594000000E+02  0.51100000000E-03 0.  1.
         11   -1    0    0    0    0 -0.00000000000E+00 -0.00000000000E+00 -0.45593999997E+02  0.45594000000E+02  0.51100000000E-03 0. -1.
    9900012    2    1    2    0    0  0.43451231857E+02 -0.68511196015E+01 -0.97039269776E+01  0.46142316650E+02  0.99999898662E+01 0.  0.
        -12    1    1    2    0    0 -0.43451231857E+02  0.68511196015E+01  0.97039269776E+01  0.45045683350E+02  0.00000000000E+00 0.  1.
         11    1    3    3    0    0  0.27200043520E+02 -0.39803487695E+01 -0.19703029288E+01  0.27560254674E+02  0.51100000000E-03 0. -1.
        -11    1    3    3    0    0  0.17924863831E+01  0.15696952019E+00 -0.21161408469E+01  0.27777147458E+01  0.51100000000E-03 0.  1.
         12    1    3    3    0    0  0.14458701954E+02 -0.30277403522E+01 -0.56174832018E+01  0.15804347230E+02  0.00000000000E+00 0. -1.
</event>
<event>
 7    1  0.1486782E-008  0.4614232E+02  0.7816164E-02  0.1320468E+00
        -11   -1    0    0    0    0  0.00000000000E+00  0.00000000000E+00  0.45593999997E+02  0.45594000000E+02  0.51100000000E-03 0. -1.
         11   -1    0    0    0    0 -0.00000000000E+00 -0.00000000000E+00 -0.45593999997E+02  0.45594000000E+02  0.51100000000E-03 0.  1.
    9900012    2    1    2    0    0  0.44995495917E+02 -0.17022468909E+01 -0.12732598037E+01  0.46142317767E+02  0.10000000055E+02 0.  0.
        -12    1    1    2    0    0 -0.44995495917E+02  0.17022468909E+01  0.12732598037E+01  0.45045682233E+02  0.00000000000E+00 0.  1.
         11    1    3    3    0    0  0.25503390017E+02 -0.31286820899E+01  0.21418402909E+01  0.25783697060E+02  0.51100000000E-03 0. -1.
        -11    1    3    3    0    0  0.42332906087E+01  0.38620080371E+00 -0.27240253095E+01  0.50487834759E+01  0.51100000000E-03 0.  1.
         12    1    3    3    0    0  0.15258815291E+02  0.10402343952E+01 -0.69107478503E+00  0.15309837231E+02  0.00000000000E+00 0. -1.
</event>
<event>
 7    1  0.1486782E-008  0.4614232E+02  0.7816164E-02  0.1320468E+00
        -11   -1    0    0    0    0  0.00000000000E+00  0.00000000000E+00  0.45593999997E+02  0.45594000000E+02  0.51100000000E-03 0. -1.
         11   -1    0    0    0    0 -0.00000000000E+00 -0.00000000000E+00 -0.45593999997E+02  0.45594000000E+02  0.51100000000E-03 0.  1.
    9900012    2    1    2    0    0 -0.46910686930E+01 -0.44105476560E+02  0.78622047897E+01  0.46142318162E+02  0.10000003655E+02 0.  0.
        -12    1    1    2    0    0  0.46910686930E+01  0.44105476560E+02 -0.78622047897E+01  0.45045681838E+02  0.00000000000E+00 0.  1.
         11    1    3    3    0    0 -0.35676330963E+01 -0.95217041474E+01  0.14377030435E+01  0.10269267067E+02  0.51100000000E-03 0. -1.
        -11    1    3    3    0    0 -0.79309359545E+00 -0.58113101713E+01 -0.14478253754E+01  0.60412351334E+01  0.51100000000E-03 0.  1.
         12    1    3    3    0    0 -0.33034200129E+00 -0.28772462242E+02  0.78723271216E+01  0.29831815962E+02  0.00000000000E+00 0. -1.
</event>
<event>
 7    1  0.1486782E-008  0.4614232E+02  0.7816164E-02  0.1320468E+00
        -11   -1    0    0    0    0  0.00000000000E+00  0.00000000000E+00  0.45593999997E+02  0.45594000000E+02  0.51100000000E-03 0. -1.
         11   -1    0    0    0    0 -0.00000000000E+00 -0.00000000000E+00 -0.45593999997E+02  0.45594000000E+02  0.51100000000E-03 0.  1.
    9900012    2    1    2    0    0 -0.44254169351E+02 -0.83623402385E+01  0.86793306300E+00  0.46142317110E+02  0.99999940660E+01 0.  0.
        -12    1    1    2    0    0  0.44254169351E+02  0.83623402385E+01 -0.86793306300E+00  0.45045682890E+02  0.00000000000E+00 0.  1.
         11    1    3    3    0    0 -0.26330764482E+02 -0.52305697501E+01  0.97501921316E+00  0.26862961134E+02  0.51100000000E-03 0. -1.
        -11    1    3    3    0    0 -0.56397569559E+01 -0.28546261363E+01  0.23601761246E+01  0.67473091303E+01  0.51100000000E-03 0.  1.
        -12    1    3    3    0    0 -0.12283647912E+02 -0.27714435214E+00 -0.24672622748E+01  0.12532046846E+02  0.00000000000E+00 0.  1.
</event>
<event>
 7    1  0.1486782E-008  0.4614232E+02  0.7816164E-02  0.1320468E+00
        -11   -1    0    0    0    0  0.00000000000E+00  0.00000000000E+00  0.45593999997E+02  0.45594000000E+02  0.51100000000E-03 0.  1.
         11   -1    0    0    0    0 -0.00000000000E+00 -0.00000000000E+00 -0.45593999997E+02  0.45594000000E+02  0.51100000000E-03 0. -1.
    9900012    2    1    2    0    0 -0.36383976928E+02  0.21635048120E+02 -0.15402739486E+02  0.46142317988E+02  0.10000002069E+02 0.  0.
        -12    1    1    2    0    0  0.36383976928E+02 -0.21635048120E+02  0.15402739486E+02  0.45045682012E+02  0.00000000000E+00 0.  1.
         11    1    3    3    0    0 -0.16317752929E+02  0.95494741606E+01 -0.66731008051E+01  0.20049732966E+02  0.51100000000E-03 0. -1.
        -11    1    3    3    0    0 -0.15261986826E+01  0.40351733316E+01 -0.22583767346E+01  0.48695145519E+01  0.51100000000E-03 0.  1.
        -12    1    3    3    0    0 -0.18540025316E+02  0.80504006278E+01 -0.64712619461E+01  0.21223070470E+02  0.00000000000E+00 0.  1.
</event>
<event>
 7    1  0.1486782E-008  0.4614232E+02  0.7816164E-02  0.1320468E+00
        -11   -1    0    0    0    0  0.00000000000E+00  0.00000000000E+00  0.45593999997E+02  0.45594000000E+02  0.51100000000E-03 0.  1.
         11   -1    0    0    0    0 -0.00000000000E+00 -0.00000000000E+00 -0.45593999997E+02  0.45594000000E+02  0.51100000000E-03 0. -1.
    9900012    2    1    2    0    0 -0.20040635033E+02  0.56169008772E+01 -0.39949178295E+02  0.46142317916E+02  0.10000001409E+02 0.  0.
        -12    1    1    2    0    0  0.20040635033E+02 -0.56169008772E+01  0.39949178295E+02  0.45045682084E+02  0.00000000000E+00 0.  1.
         11    1    3    3    0    0 -0.72806575552E+01  0.46581948817E+01 -0.16608805548E+02  0.18723225576E+02  0.51100000000E-03 0. -1.
        -11    1    3    3    0    0 -0.20207925764E+01 -0.23836253367E+01 -0.45491275671E+01  0.55190428758E+01  0.51100000000E-03 0.  1.
         12    1    3    3    0    0 -0.10739184901E+02  0.33423313323E+01 -0.18791245180E+02  0.21900049463E+02  0.00000000000E+00 0. -1.
</event>
<event>
 7    1  0.1486782E-008  0.4614232E+02  0.7816164E-02  0.1320468E+00
        -11   -1    0    0    0    0  0.00000000000E+00  0.00000000000E+00  0.45593999997E+02  0.45594000000E+02  0.51100000000E-03 0. -1.
         11   -1    0    0    0    0 -0.00000000000E+00 -0.00000000000E+00 -0.45593999997E+02  0.45594000000E+02  0.51100000000E-03 0.  1.
    9900012    2    1    2    0    0 -0.28653142931E+02  0.75393000633E+01  0.33930368175E+02  0.46142317301E+02  0.99999958056E+01 0.  0.
        -12    1    1    2    0    0  0.28653142931E+02 -0.75393000633E+01 -0.33930368175E+02  0.45045682699E+02  0.00000000000E+00 0.  1.
         11    1    3    3    0    0 -0.27208402717E+01  0.13819901633E+01  0.39230880547E+01  0.49702604300E+01  0.51100000000E-03 0. -1.
        -11    1    3    3    0    0 -0.18989596981E+02  0.19603544260E+00  0.19094619543E+02  0.26930423672E+02  0.51100000000E-03 0.  1.
        -12    1    3    3    0    0 -0.69427056784E+01  0.59612744574E+01  0.10912660578E+02  0.14241633199E+02  0.00000000000E+00 0.  1.
</event>
<event>
 7    1  0.1486782E-008  0.4614232E+02  0.7816164E-02  0.1320468E+00
        -11   -1    0    0    0    0  0.00000000000E+00  0.00000000000E+00  0.45593999997E+02  0.45594000000E+02  0.51100000000E-03 0. -1.
         11   -1    0    0    0    0 -0.00000000000E+00 -0.00000000000E+00 -0.45593999997E+02  0.45594000000E+02  0.51100000000E-03 0.  1.
    9900012    2    1    2    0    0 -0.25344857901E+02 -0.31559933233E+02  0.19766687733E+02  0.46142321499E+02  0.10000034085E+02 0.  0.
        -12    1    1    2    0    0  0.25344857901E+02  0.31559933233E+02 -0.19766687733E+02  0.45045678501E+02  0.00000000000E+00 0.  1.
         11    1    3    3    0    0 -0.11514854534E+02 -0.19416938318E+02  0.14711174474E+02  0.26944907186E+02  0.51100000000E-03 0. -1.
        -11    1    3    3    0    0 -0.66642420395E+01 -0.64882173749E+01  0.16033548092E+01  0.94382113544E+01  0.51100000000E-03 0.  1.
        -12    1    3    3    0    0 -0.71657613276E+01 -0.56547775401E+01  0.34521584495E+01  0.97592029589E+01  0.00000000000E+00 0.  1.
</event>
<event>
 7    1  0.1486782E-008  0.4614232E+02  0.7816164E-02  0.1320468E+00
        -11   -1    0    0    0    0  0.00000000000E+00  0.00000000000E+00  0.45593999997E+02  0.45594000000E+02  0.51100000000E-03 0.  1.
         11   -1    0    0    0    0 -0.00000000000E+00 -0.00000000000E+00 -0.45593999997E+02  0.45594000000E+02  0.51100000000E-03 0. -1.
    9900012    2    1    2    0    0  0.21531272939E+02  0.10410412123E+02 -0.38172516190E+02  0.46142318883E+02  0.10000010234E+02 0.  0.
        -12    1    1    2    0    0 -0.21531272939E+02 -0.10410412123E+02  0.38172516190E+02  0.45045681117E+02  0.00000000000E+00 0.  1.
         11    1    3    3    0    0  0.29637443690E+01  0.10861863745E+01 -0.13348674172E+02  0.13716802978E+02  0.51100000000E-03 0. -1.
        -11    1    3    3    0    0  0.13960335423E+02  0.61993884735E+01 -0.17564432210E+02  0.23277299278E+02  0.51100000000E-03 0.  1.
         12    1    3    3    0    0  0.46071931470E+01  0.31248372754E+01 -0.72594098083E+01  0.91482166271E+01  0.00000000000E+00 0. -1.
</event>
<event>
 7    1  0.1486782E-008  0.4614232E+02  0.7816164E-02  0.1320468E+00
        -11   -1    0    0    0    0  0.00000000000E+00  0.00000000000E+00  0.45593999997E+02  0.45594000000E+02  0.51100000000E-03 0. -1.
         11   -1    0    0    0    0 -0.00000000000E+00 -0.00000000000E+00 -0.45593999997E+02  0.45594000000E+02  0.51100000000E-03 0.  1.
    9900012    2    1    2    0    0  0.25285319086E+02  0.14821139854E+00  0.37279268123E+02  0.46142321409E+02  0.10000033264E+02 0.  0.
        -12    1    1    2    0    0 -0.25285319086E+02 -0.14821139854E+00 -0.37279268123E+02  0.45045678591E+02  0.00000000000E+00 0.  1.
         11    1    3    3    0    0  0.17634115360E+02  0.23574831913E+01  0.23001432302E+02  0.29078955272E+02  0.51100000000E-03 0.  1.
        -11    1    3    3    0    0  0.73059386525E+01 -0.56345879195E+00  0.13100441651E+02  0.15010522880E+02  0.51100000000E-03 0. -1.
         12    1    3    3    0    0  0.34526507356E+00 -0.16458130008E+01  0.11773941702E+01  0.20528432567E+01  0.00000000000E+00 0. -1.
</event>
<event>
 7    1  0.1486782E-008  0.4614232E+02  0.7816164E-02  0.1320468E+00
        -11   -1    0    0    0    0  0.00000000000E+00  0.00000000000E+00  0.45593999997E+02  0.45594000000E+02  0.51100000000E-03 0. -1.
         11   -1    0    0    0    0 -0.00000000000E+00 -0.00000000000E+00 -0.45593999997E+02  0.45594000000E+02  0.51100000000E-03 0.  1.
    9900012    2    1    2    0    0  0.38188959899E+01 -0.32937191017E+02  0.30490505648E+02  0.46142318150E+02  0.10000003548E+02 0.  0.
        -12    1    1    2    0    0 -0.38188959899E+01  0.32937191017E+02 -0.30490505648E+02  0.45045681850E+02  0.00000000000E+00 0.  1.
         11    1    3    3    0    0  0.12405173961E+01 -0.58940317821E+01  0.44360256401E+01  0.74804289850E+01  0.51100000000E-03 0. -1.
        -11    1    3    3    0    0 -0.15502452544E+01 -0.66779917848E+01  0.11153247944E+02  0.13091744520E+02  0.51100000000E-03 0.  1.
        -12    1    3    3    0    0  0.41286238482E+01 -0.20365167450E+02  0.14901232064E+02  0.25570144645E+02  0.00000000000E+00 0.  1.
</event>
<event>
 7    1  0.1486782E-008  0.4614231E+02  0.7816164E-02  0.1320468E+00
        -11   -1    0    0    0    0  0.00000000000E+00  0.00000000000E+00  0.45593999997E+02  0.45594000000E+02  0.51100000000E-03 0.  1.
         11   -1    0    0    0    0 -0.00000000000E+00 -0.00000000000E+00 -0.45593999997E+02  0.45594000000E+02  0.51100000000E-03 0. -1.
    9900012    2    1    2    0    0 -0.14885524304E+02  0.10860698815E+02 -0.41104509759E+02  0.46142308363E+02  0.99999142982E+01 0.  0.
        -12    1    1    2    0    0  0.14885524304E+02 -0.10860698815E+02  0.41104509759E+02  0.45045691637E+02  0.00000000000E+00 0.  1.
         11    1    3    3    0    0 -0.96367372984E+01  0.78544009744E+01 -0.20209830440E+02  0.23727527623E+02  0.51100000000E-03 0. -1.
        -11    1    3    3    0    0  0.48913953488E+00 -0.36076428453E+00 -0.14528308404E+00  0.62491262526E+00  0.51100000000E-03 0.  1.
        -12    1    3    3    0    0 -0.57379265407E+01  0.33670621248E+01 -0.20749396235E+02  0.21789868114E+02  0.00000000000E+00 0.  1.
</event>
<event>
 7    1  0.1486782E-008  0.4614232E+02  0.7816164E-02  0.1320468E+00
        -11   -1    0    0    0    0  0.00000000000E+00  0.00000000000E+00  0.45593999997E+02  0.45594000000E+02  0.51100000000E-03 0.  1.
         11   -1    0    0    0    0 -0.00000000000E+00 -0.00000000000E+00 -0.45593999997E+02  0.45594000000E+02  0.51100000000E-03 0. -1.
    9900012    2    1    2    0    0  0.21335769370E+02 -0.28781633580E+02 -0.27304139797E+02  0.46142317231E+02  0.99999951636E+01 0.  0.
        -12    1    1    2    0    0 -0.21335769370E+02  0.28781633580E+02  0.27304139797E+02  0.45045682769E+02  0.00000000000E+00 0.  1.
         11    1    3    3    0    0  0.38954069083E+01 -0.19724268135E+01 -0.50864924159E+01  0.67035116076E+01  0.51100000000E-03 0. -1.
        -11    1    3    3    0    0  0.16522919682E+01 -0.26232810746E+01 -0.47887537388E+01  0.57047204118E+01  0.51100000000E-03 0.  1.
        -12    1    3    3    0    0  0.15788070493E+02 -0.24185925692E+02 -0.17428893642E+02  0.33734085211E+02  0.00000000000E+00 0.  1.
</event>
<event>
 7    1  0.1486782E-008  0.4614232E+02  0.7816164E-02  0.1320468E+00
        -11   -1    0    0    0    0  0.00000000000E+00  0.00000000000E+00  0.45593999997E+02  0.45594000000E+02  0.51100000000E-03 0.  1.
         11   -1    0    0    0    0 -0.00000000000E+00 -0.00000000000E+00 -0.45593999997E+02  0.45594000000E+02  0.51100000000E-03 0. -1.
    9900012    2    1    2    0    0 -0.22817584155E+02 -0.19710957427E+02 -0.33465645216E+02  0.46142318752E+02  0.10000009033E+02 0.  0.
        -12    1    1    2    0    0  0.22817584155E+02  0.19710957427E+02  0.33465645216E+02  0.45045681248E+02  0.00000000000E+00 0.  1.
         11    1    3    3    0    0 -0.51591880709E+01 -0.87870715912E+01 -0.14822573636E+02  0.17987177048E+02  0.51100000000E-03 0. -1.
        -11    1    3    3    0    0 -0.15557010966E+02 -0.80384743851E+01 -0.15911495962E+02  0.23660375412E+02  0.51100000000E-03 0.  1.
         12    1    3    3    0    0 -0.21013851183E+01 -0.28854114510E+01 -0.27315756180E+01  0.44947662914E+01  0.00000000000E+00 0. -1.
</event>
<event>
 7    1  0.1486782E-008  0.4614232E+02  0.7816164E-02  0.1320468E+00
        -11   -1    0    0    0    0  0.00000000000E+00  0.00000000000E+00  0.45593999997E+02  0.45594000000E+02  0.51100000000E-03 0.  1.
         11   -1    0    0    0    0 -0.00000000000E+00 -0.00000000000E+00 -0.45593999997E+02  0.45594000000E+02  0.51100000000E-03 0. -1.
    9900012    2    1    2    0    0 -0.40783336722E+02  0.97256293657E+01 -0.16469512744E+02  0.46142320176E+02  0.10000022023E+02 0.  0.
        -12    1    1    2    0    0  0.40783336722E+02 -0.97256293657E+01  0.16469512744E+02  0.45045679824E+02  0.00000000000E+00 0.  1.
         11    1    3    3    0    0 -0.14378274295E+02  0.69962125461E+01 -0.56372019276E+01  0.16954639705E+02  0.51100000000E-03 0. -1.
        -11    1    3    3    0    0 -0.14776067281E+02  0.40385345920E+01 -0.50075099666E+01  0.16115740202E+02  0.51100000000E-03 0.  1.
        -12    1    3    3    0    0 -0.11628995147E+02 -0.13091177724E+01 -0.58248008500E+01  0.13071940269E+02  0.00000000000E+00 0.  1.
</event>
<event>
 7    1  0.1486782E-008  0.4614232E+02  0.7816164E-02  0.1320468E+00
        -11   -1    0    0    0    0  0.00000000000E+00  0.00000000000E+00  0.45593999997E+02  0.45594000000E+02  0.51100000000E-03 0.  1.
         11   -1    0    0    0    0 -0.00000000000E+00 -0.00000000000E+00 -0.45593999997E+02  0.45594000000E+02  0.51100000000E-03 0. -1.
    9900012    2    1    2    0    0  0.39476907141E+02  0.27257528194E+01 -0.21523418402E+02  0.46142318014E+02  0.10000002305E+02 0.  0.
        -12    1    1    2    0    0 -0.39476907141E+02 -0.27257528194E+01  0.21523418402E+02  0.45045681986E+02  0.00000000000E+00 0.  1.
         11    1    3    3    0    0  0.27007585360E+02  0.46496249655E+01 -0.18209761481E+02  0.32903253528E+02  0.51100000000E-03 0. -1.
        -11    1    3    3    0    0  0.78359420866E+01 -0.21833008444E+01 -0.26258003932E+01  0.85477259507E+01  0.51100000000E-03 0.  1.
         12    1    3    3    0    0  0.46333796951E+01  0.25942869832E+00 -0.68785652838E+00  0.46913385352E+01  0.00000000000E+00 0. -1.
</event>
<event>
 7    1  0.1486782E-008  0.4614232E+02  0.7816164E-02  0.1320468E+00
        -11   -1    0    0    0    0  0.00000000000E+00  0.00000000000E+00  0.45593999997E+02  0.45594000000E+02  0.51100000000E-03 0.  1.
         11   -1    0    0    0    0 -0.00000000000E+00 -0.00000000000E+00 -0.45593999997E+02  0.45594000000E+02  0.51100000000E-03 0. -1.
    9900012    2    1    2    0    0  0.18854694743E+02  0.25591430452E+02 -0.31916958834E+02  0.46142322209E+02  0.10000040559E+02 0.  0.
        -12    1    1    2    0    0 -0.18854694743E+02 -0.25591430452E+02  0.31916958834E+02  0.45045677791E+02  0.00000000000E+00 0.  1.
         11    1    3    3    0    0  0.72786146833E+01  0.10126539163E+02 -0.18164103688E+02  0.22033149802E+02  0.51100000000E-03 0. -1.
        -11    1    3    3    0    0  0.77263413411E+01  0.10960044273E+02 -0.11822138780E+02  0.17876853375E+02  0.51100000000E-03 0.  1.
         12    1    3    3    0    0  0.38497387183E+01  0.45048470161E+01 -0.19307163660E+01  0.62323190325E+01  0.00000000000E+00 0. -1.
</event>
<event>
 7    1  0.1549092E-008  0.4614232E+02  0.7816164E-02  0.1320468E+00
        -11   -1    0    0    0    0  0.00000000000E+00  0.00000000000E+00  0.45593999997E+02  0.45594000000E+02  0.51100000000E-03 0.  1.
         11   -1    0    0    0    0 -0.00000000000E+00 -0.00000000000E+00 -0.45593999997E+02  0.45594000000E+02  0.51100000000E-03 0. -1.
    9900012    2    1    2    0    0  0.17265355502E+01  0.32431967539E+02  0.31213778994E+02  0.46142318270E+02  0.10000004639E+02 0.  0.
        -12    1    1    2    0    0 -0.17265355502E+01 -0.32431967539E+02 -0.31213778994E+02  0.45045681730E+02  0.00000000000E+00 0.  1.
         11    1    3    3    0    0  0.53737955932E+01  0.24494028699E+02  0.22491472410E+02  0.33685329929E+02  0.51100000000E-03 0. -1.
        -11    1    3    3    0    0 -0.19355765580E+01  0.39561382993E+01  0.55538768661E+01  0.70882321745E+01  0.51100000000E-03 0.  1.
         12    1    3    3    0    0 -0.17116834849E+01  0.39818005408E+01  0.31684297180E+01  0.53687561667E+01  0.00000000000E+00 0. -1.
</event>
<event>
 7    1  0.1486782E-008  0.4614232E+02  0.7816164E-02  0.1320468E+00
        -11   -1    0    0    0    0  0.00000000000E+00  0.00000000000E+00  0.45593999997E+02  0.45594000000E+02  0.51100000000E-03 0.  1.
         11   -1    0    0    0    0 -0.00000000000E+00 -0.00000000000E+00 -0.45593999997E+02  0.45594000000E+02  0.51100000000E-03 0. -1.
    9900012    2    1    2    0    0  0.21470133185E+02  0.34236291385E+02 -0.19900330504E+02  0.46142318510E+02  0.10000006825E+02 0.  0.
        -12    1    1    2    0    0 -0.21470133185E+02 -0.34236291385E+02  0.19900330504E+02  0.45045681490E+02  0.00000000000E+00 0.  1.
         11    1    3    3    0    0  0.17289130063E+02  0.20989550739E+02 -0.12517553577E+02  0.29936005184E+02  0.51100000000E-03 0. -1.
        -11    1    3    3    0    0  0.35361932304E+01  0.72561698063E+01 -0.59086205333E+01  0.10003422399E+02  0.51100000000E-03 0.  1.
         12    1    3    3    0    0  0.64480989172E+00  0.59905708392E+01 -0.14741563941E+01  0.62028909269E+01  0.00000000000E+00 0. -1.
</event>
<event>
 7    1  0.1486782E-008  0.4614232E+02  0.7816164E-02  0.1320468E+00
        -11   -1    0    0    0    0  0.00000000000E+00  0.00000000000E+00  0.45593999997E+02  0.45594000000E+02  0.51100000000E-03 0.  1.
         11   -1    0    0    0    0 -0.00000000000E+00 -0.00000000000E+00 -0.45593999997E+02  0.45594000000E+02  0.51100000000E-03 0. -1.
    9900012    2    1    2    0    0  0.39046158086E+02  0.17734774713E+02 -0.13783642981E+02  0.46142317529E+02  0.99999978858E+01 0.  0.
        -12    1    1    2    0    0 -0.39046158086E+02 -0.17734774713E+02  0.13783642981E+02  0.45045682471E+02  0.00000000000E+00 0.  1.
         11    1    3    3    0    0  0.32030669477E+02  0.11497041027E+02 -0.13611028323E+02  0.36652501030E+02  0.51100000000E-03 0. -1.
        -11    1    3    3    0    0  0.40638751791E+01  0.39360704431E+01  0.52704952141E+00  0.56820342716E+01  0.51100000000E-03 0.  1.
         12    1    3    3    0    0  0.29516134306E+01  0.23016632431E+01 -0.69966417968E+00  0.38077822276E+01  0.00000000000E+00 0. -1.
</event>
<event>
 7    1  0.1486782E-008  0.4614232E+02  0.7816164E-02  0.1320468E+00
        -11   -1    0    0    0    0  0.00000000000E+00  0.00000000000E+00  0.45593999997E+02  0.45594000000E+02  0.51100000000E-03 0.  1.
         11   -1    0    0    0    0 -0.00000000000E+00 -0.00000000000E+00 -0.45593999997E+02  0.45594000000E+02  0.51100000000E-03 0. -1.
    9900012    2    1    2    0    0  0.45561008939E+01  0.12536641984E+02 -0.43025433934E+02  0.46142318600E+02  0.10000007651E+02 0.  0.
        -12    1    1    2    0    0 -0.45561008939E+01 -0.12536641984E+02  0.43025433934E+02  0.45045681400E+02  0.00000000000E+00 0.  1.
         11    1    3    3    0    0  0.43537309994E+01  0.79255426142E+01 -0.23027953481E+02  0.24739762350E+02  0.51100000000E-03 0. -1.
        -11    1    3    3    0    0  0.21401799246E+01  0.48810740131E+01 -0.11386481295E+02  0.12572080582E+02  0.51100000000E-03 0.  1.
         12    1    3    3    0    0 -0.19378100301E+01 -0.26997464351E+00 -0.86109991584E+01  0.88304756682E+01  0.00000000000E+00 0. -1.
</event>
<event>
 7    1  0.1486782E-008  0.4614231E+02  0.7816164E-02  0.1320468E+00
        -11   -1    0    0    0    0  0.00000000000E+00  0.00000000000E+00  0.45593999997E+02  0.45594000000E+02  0.51100000000E-03 0.  1.
         11   -1    0    0    0    0 -0.00000000000E+00 -0.00000000000E+00 -0.45593999997E+02  0.45594000000E+02  0.51100000000E-03 0. -1.
    9900012    2    1    2    0    0  0.61659044426E+01 -0.20587007797E+02 -0.39588767198E+02  0.46142314792E+02  0.99999729255E+01 0.  0.
        -12    1    1    2    0    0 -0.61659044426E+01  0.20587007797E+02  0.39588767198E+02  0.45045685208E+02  0.00000000000E+00 0.  1.
         11    1    3    3    0    0 -0.19871315110E+01 -0.46887965604E+01 -0.67800488339E+01  0.84795381524E+01  0.51100000000E-03 0. -1.
        -11    1    3    3    0    0  0.44546793298E+01 -0.61715439362E+01 -0.97855255077E+01  0.12397121933E+02  0.51100000000E-03 0.  1.
         12    1    3    3    0    0  0.36983566238E+01 -0.97266673001E+01 -0.23023192856E+02  0.25265654707E+02  0.00000000000E+00 0. -1.
</event>
<event>
 7    1  0.1486782E-008  0.4614232E+02  0.7816164E-02  0.1320468E+00
        -11   -1    0    0    0    0  0.00000000000E+00  0.00000000000E+00  0.45593999997E+02  0.45594000000E+02  0.51100000000E-03 0.  1.
         11   -1    0    0    0    0 -0.00000000000E+00 -0.00000000000E+00 -0.45593999997E+02  0.45594000000E+02  0.51100000000E-03 0. -1.
    9900012    2    1    2    0    0  0.41781685112E+01 -0.36838266297E+02 -0.25585115798E+02  0.46142322002E+02  0.10000038674E+02 0.  0.
        -12    1    1    2    0    0 -0.41781685112E+01  0.36838266297E+02  0.25585115798E+02  0.45045677998E+02  0.00000000000E+00 0.  1.
         11    1    3    3    0    0  0.25194389056E+01 -0.21398456807E+02 -0.17489344920E+02  0.27751012812E+02  0.51100000000E-03 0. -1.
        -11    1    3    3    0    0 -0.10449520841E+01 -0.24754359886E+00 -0.38258898043E+00  0.11399900353E+01  0.51100000000E-03 0.  1.
        -12    1    3    3    0    0  0.27036816897E+01 -0.15192265892E+02 -0.77131818971E+01  0.17251319155E+02  0.00000000000E+00 0.  1.
</event>
<event>
 7    1  0.1486782E-008  0.4614231E+02  0.7816164E-02  0.1320468E+00
        -11   -1    0    0    0    0  0.00000000000E+00  0.00000000000E+00  0.45593999997E+02  0.45594000000E+02  0.51100000000E-03 0.  1.
         11   -1    0    0    0    0 -0.00000000000E+00 -0.00000000000E+00 -0.45593999997E+02  0.45594000000E+02  0.51100000000E-03 0. -1.
    9900012    2    1    2    0    0 -0.34538553657E+02 -0.20460354990E+02 -0.20434674727E+02  0.46142314899E+02  0.99999738968E+01 0.  0.
        -12    1    1    2    0    0  0.34538553657E+02  0.20460354990E+02  0.20434674727E+02  0.45045685101E+02  0.00000000000E+00 0.  1.
         11    1    3    3    0    0 -0.29453652175E+02 -0.16477516273E+02 -0.14116162735E+02  0.36582676496E+02  0.51100000000E-03 0. -1.
        -11    1    3    3    0    0 -0.13939221150E+01  0.37904232353E+00 -0.15336232560E+01  0.21068204713E+01  0.51100000000E-03 0.  1.
         12    1    3    3    0    0 -0.36909793673E+01 -0.43618810403E+01 -0.47848887366E+01  0.74528179316E+01  0.00000000000E+00 0. -1.
</event>
<event>
 7    1  0.1486782E-008  0.4614232E+02  0.7816164E-02  0.1320468E+00
        -11   -1    0    0    0    0  0.00000000000E+00  0.00000000000E+00  0.45593999997E+02  0.45594000000E+02  0.51100000000E-03 0. -1.
         11   -1    0    0    0    0 -0.00000000000E+00 -0.00000000000E+00 -0.45593999997E+02  0.45594000000E+02  0.51100000000E-03 0.  1.
    9900012    2    1    2    0    0 -0.11333378163E+02 -0.32675006897E+02  0.28861945925E+02  0.46142318088E+02  0.10000002984E+02 0.  0.
        -12    1    1    2    0    0  0.11333378163E+02  0.32675006897E+02 -0.28861945925E+02  0.45045681912E+02  0.00000000000E+00 0.  1.
         11    1    3    3    0    0 -0.52177749717E+01 -0.16863066377E+02  0.19705015368E+02  0.26455166116E+02  0.51100000000E-03 0. -1.
        -11    1    3    3    0    0 -0.31436666719E+01 -0.73267042992E+01  0.20640939488E+01  0.82355157776E+01  0.51100000000E-03 0.  1.
         12    1    3    3    0    0 -0.29719365189E+01 -0.84852362207E+01  0.70928366080E+01  0.11451636195E+02  0.00000000000E+00 0. -1.
</event>
<event>
 7    1  0.1486782E-008  0.4614232E+02  0.7816164E-02  0.1320468E+00
        -11   -1    0    0    0    0  0.00000000000E+00  0.00000000000E+00  0.45593999997E+02  0.45594000000E+02  0.51100000000E-03 0.  1.
         11   -1    0    0    0    0 -0.00000000000E+00 -0.00000000000E+00 -0.45593999997E+02  0.45594000000E+02  0.51100000000E-03 0. -1.
    9900012    2    1    2    0    0  0.13571901939E+02 -0.23188732337E+02 -0.36155217638E+02  0.46142316610E+02  0.99999895033E+01 0.  0.
        -12    1    1    2    0    0 -0.13571901939E+02  0.23188732337E+02  0.36155217638E+02  0.45045683390E+02  0.00000000000E+00 0.  1.
         11    1    3    3    0    0  0.13553875683E+02 -0.20679871226E+02 -0.34535001493E+02  0.42473885486E+02  0.51100000000E-03 0. -1.
        -11    1    3    3    0    0 -0.28386103669E+00 -0.56948382962E+00  0.47759530249E+00  0.79560445853E+00  0.51100000000E-03 0.  1.
         12    1    3    3    0    0  0.30188729281E+00 -0.19393772822E+01 -0.20978114472E+01  0.28728266652E+01  0.00000000000E+00 0. -1.
</event>
<event>
 7    1  0.1486782E-008  0.4614232E+02  0.7816164E-02  0.1320468E+00
        -11   -1    0    0    0    0  0.00000000000E+00  0.00000000000E+00  0.45593999997E+02  0.45594000000E+02  0.51100000000E-03 0.  1.
         11   -1    0    0    0    0 -0.00000000000E+00 -0.00000000000E+00 -0.45593999997E+02  0.45594000000E+02  0.51100000000E-03 0. -1.
    9900012    2    1    2    0    0  0.36945529663E+02 -0.23719139968E+02 -0.10076892642E+02  0.46142317319E+02  0.99999959675E+01 0.  0.
        -12    1    1    2    0    0 -0.36945529663E+02  0.23719139968E+02  0.10076892642E+02  0.45045682681E+02  0.00000000000E+00 0.  1.
         11    1    3    3    0    0  0.14817790393E+02 -0.10410961622E+02 -0.34068132976E+01  0.18427192166E+02  0.51100000000E-03 0. -1.
        -11    1    3    3    0    0  0.19244382229E+01 -0.35274738134E+00 -0.27832045319E+01  0.34020759716E+01  0.51100000000E-03 0.  1.
        -12    1    3    3    0    0  0.20203301047E+02 -0.12955430965E+02 -0.38868748120E+01  0.24313049181E+02  0.00000000000E+00 0.  1.
</event>
<event>
 7    1  0.1486782E-008  0.4614231E+02  0.7816164E-02  0.1320468E+00
        -11   -1    0    0    0    0  0.00000000000E+00  0.00000000000E+00  0.45593999997E+02  0.45594000000E+02  0.51100000000E-03 0.  1.
         11   -1    0    0    0    0 -0.00000000000E+00 -0.00000000000E+00 -0.45593999997E+02  0.45594000000E+02  0.51100000000E-03 0. -1.
    9900012    2    1    2    0    0 -0.28391599668E+02 -0.23919633508E+02 -0.25512389828E+02  0.46142313929E+02  0.99999650562E+01 0.  0.
        -12    1    1    2    0    0  0.28391599668E+02  0.23919633508E+02  0.25512389828E+02  0.45045686071E+02  0.00000000000E+00 0.  1.
         11    1    3    3    0    0 -0.18332581785E+02 -0.19348162602E+02 -0.17301785189E+02  0.31777141501E+02  0.51100000000E-03 0. -1.
        -11    1    3    3    0    0 -0.34398174695E+00 -0.12051914096E+01 -0.19787802135E+01  0.23423025361E+01  0.51100000000E-03 0.  1.
         12    1    3    3    0    0 -0.97150361358E+01 -0.33662794962E+01 -0.62318244256E+01  0.12022869892E+02  0.00000000000E+00 0. -1.
</event>
<event>
 7    1  0.1486782E-008  0.4614232E+02  0.7816164E-02  0.1320468E+00
        -11   -1    0    0    0    0  0.00000000000E+00  0.00000000000E+00  0.45593999997E+02  0.45594000000E+02  0.51100000000E-03 0. -1.
         11   -1    0    0    0    0 -0.00000000000E+00 -0.00000000000E+00 -0.45593999997E+02  0.45594000000E+02  0.51100000000E-03 0.  1.
    9900012    2    1    2    0    0 -0.55666673709E+01  0.20061866659E+02  0.39945553850E+02  0.46142317056E+02  0.99999935742E+01 0.  0.
        -12    1    1    2    0    0  0.55666673709E+01 -0.20061866659E+02 -0.39945553850E+02  0.45045682944E+02  0.00000000000E+00 0.  1.
         11    1    3    3    0    0  0.30754754042E+00  0.63979246289E+00  0.53447861204E+01  0.53917213225E+01  0.51100000000E-03 0. -1.
        -11    1    3    3    0    0 -0.25764249228E+01  0.78806924565E+01  0.21180753453E+02  0.22745715994E+02  0.51100000000E-03 0.  1.
        -12    1    3    3    0    0 -0.32977899885E+01  0.11541381740E+02  0.13420014277E+02  0.18004879740E+02  0.00000000000E+00 0.  1.
</event>
<event>
 7    1  0.1486782E-008  0.4614232E+02  0.7816164E-02  0.1320468E+00
        -11   -1    0    0    0    0  0.00000000000E+00  0.00000000000E+00  0.45593999997E+02  0.45594000000E+02  0.51100000000E-03 0.  1.
         11   -1    0    0    0    0 -0.00000000000E+00 -0.00000000000E+00 -0.45593999997E+02  0.45594000000E+02  0.51100000000E-03 0. -1.
    9900012    2    1    2    0    0 -0.29657385224E+02 -0.28820609843E+02 -0.17858480070E+02  0.46142319181E+02  0.10000012945E+02 0.  0.
        -12    1    1    2    0    0  0.29657385224E+02  0.28820609843E+02  0.17858480070E+02  0.45045680819E+02  0.00000000000E+00 0.  1.
         11    1    3    3    0    0 -0.10506333389E+02 -0.92419710080E+01 -0.87319086578E+01  0.16493735128E+02  0.51100000000E-03 0. -1.
        -11    1    3    3    0    0 -0.24244976970E+01 -0.72901967469E+00  0.65635950129E+00  0.26154286121E+01  0.51100000000E-03 0.  1.
        -12    1    3    3    0    0 -0.16726554138E+02 -0.18849619161E+02 -0.97829309131E+01  0.27033155441E+02  0.00000000000E+00 0.  1.
</event>
<event>
 7    1  0.1486782E-008  0.4614231E+02  0.7816164E-02  0.1320468E+00
        -11   -1    0    0    0    0  0.00000000000E+00  0.00000000000E+00  0.45593999997E+02  0.45594000000E+02  0.51100000000E-03 0. -1.
         11   -1    0    0    0    0 -0.00000000000E+00 -0.00000000000E+00 -0.45593999997E+02  0.45594000000E+02  0.51100000000E-03 0.  1.
    9900012    2    1    2    0    0  0.38206045772E+02 -0.16638829123E+02  0.17104435237E+02  0.46142309053E+02  0.99999205884E+01 0.  0.
        -12    1    1    2    0    0 -0.38206045772E+02  0.16638829123E+02 -0.17104435237E+02  0.45045690947E+02  0.00000000000E+00 0.  1.
         11    1    3    3    0    0  0.22728227649E+02 -0.10121998342E+02  0.10311416590E+02  0.26932368905E+02  0.51100000000E-03 0. -1.
        -11    1    3    3    0    0  0.14862372700E+01  0.11632874074E+01  0.63523536520E-01  0.18884317080E+01  0.51100000000E-03 0.  1.
        -12    1    3    3    0    0  0.13991580854E+02 -0.76801181891E+01  0.67294951102E+01  0.17321508439E+02  0.00000000000E+00 0.  1.
</event>
<event>
 7    1  0.1486782E-008  0.4614232E+02  0.7816164E-02  0.1320468E+00
        -11   -1    0    0    0    0  0.00000000000E+00  0.00000000000E+00  0.45593999997E+02  0.45594000000E+02  0.51100000000E-03 0.  1.
         11   -1    0    0    0    0 -0.00000000000E+00 -0.00000000000E+00 -0.45593999997E+02  0.45594000000E+02  0.51100000000E-03 0. -1.
    9900012    2    1    2    0    0  0.11120601734E+02 -0.20262205409E+02 -0.38663791203E+02  0.46142317619E+02  0.99999987077E+01 0.  0.
        -12    1    1    2    0    0 -0.11120601734E+02  0.20262205409E+02  0.38663791203E+02  0.45045682381E+02  0.00000000000E+00 0.  1.
         11    1    3    3    0    0  0.25678316681E+01 -0.44300413172E+01 -0.13502908226E+02  0.14441175727E+02  0.51100000000E-03 0. -1.
        -11    1    3    3    0    0  0.87681521238E+01 -0.10198219220E+02 -0.15557261600E+02  0.20564837847E+02  0.51100000000E-03 0.  1.
        -12    1    3    3    0    0 -0.21538205759E+00 -0.56339448718E+01 -0.96036213766E+01  0.11136304046E+02  0.00000000000E+00 0.  1.
</event>
<event>
 7    1  0.1486782E-008  0.4614232E+02  0.7816164E-02  0.1320468E+00
        -11   -1    0    0    0    0  0.00000000000E+00  0.00000000000E+00  0.45593999997E+02  0.45594000000E+02  0.51100000000E-03 0.  1.
         11   -1    0    0    0    0 -0.00000000000E+00 -0.00000000000E+00 -0.45593999997E+02  0.45594000000E+02  0.51100000000E-03 0. -1.
    9900012    2    1    2    0    0 -0.34533110342E+02 -0.28441777902E+02 -0.52576582402E+01  0.46142318627E+02  0.10000007899E+02 0.  0.
        -12    1    1    2    0    0  0.34533110342E+02  0.28441777902E+02  0.52576582402E+01  0.45045681373E+02  0.00000000000E+00 0.  1.
         11    1    3    3    0    0 -0.11445186021E+02 -0.47502144445E+01 -0.27293555038E+01  0.12688821933E+02  0.51100000000E-03 0. -1.
        -11    1    3    3    0    0 -0.10873124670E+02 -0.13227894692E+02 -0.28914956994E+01  0.17365563213E+02  0.51100000000E-03 0.  1.
        -12    1    3    3    0    0 -0.12214799652E+02 -0.10463668766E+02  0.36319296301E+00  0.16087933481E+02  0.00000000000E+00 0.  1.
</event>
<event>
 7    1  0.1486782E-008  0.4614232E+02  0.7816164E-02  0.1320468E+00
        -11   -1    0    0    0    0  0.00000000000E+00  0.00000000000E+00  0.45593999997E+02  0.45594000000E+02  0.51100000000E-03 0.  1.
         11   -1    0    0    0    0 -0.00000000000E+00 -0.00000000000E+00 -0.45593999997E+02  0.45594000000E+02  0.51100000000E-03 0. -1.
    9900012    2    1    2    0    0  0.30341369954E+02  0.14092185808E+02 -0.30164964033E+02  0.46142317780E+02  0.10000000173E+02 0.  0.
        -12    1    1    2    0    0 -0.30341369954E+02 -0.14092185808E+02  0.30164964033E+02  0.45045682220E+02  0.00000000000E+00 0.  1.
         11    1    3    3    0    0  0.91362544159E+01  0.82653389821E+01 -0.84889890258E+01  0.14961614491E+02  0.51100000000E-03 0.  1.
        -11    1    3    3    0    0  0.19113123928E+02  0.61104563570E+01 -0.18075305545E+02  0.27006774224E+02  0.51100000000E-03 0. -1.
        -12    1    3    3    0    0  0.20919916104E+01 -0.28360953095E+00 -0.36006694618E+01  0.41739290647E+01  0.00000000000E+00 0.  1.
</event>
<event>
 7    1  0.1781526E-008  0.4614233E+02  0.7816164E-02  0.1320468E+00
        -11   -1    0    0    0    0  0.00000000000E+00  0.00000000000E+00  0.45593999997E+02  0.45594000000E+02  0.51100000000E-03 0. -1.
         11   -1    0    0    0    0 -0.00000000000E+00 -0.00000000000E+00 -0.45593999997E+02  0.45594000000E+02  0.51100000000E-03 0.  1.
    9900012    2    1    2    0    0 -0.34357494523E+01  0.19097542827E+02  0.40652087616E+02  0.46142326025E+02  0.10000075354E+02 0.  0.
        -12    1    1    2    0    0  0.34357494523E+01 -0.19097542827E+02 -0.40652087616E+02  0.45045673975E+02  0.00000000000E+00 0.  1.
         11    1    3    3    0    0 -0.44652798314E+01  0.65398121403E+01  0.17024820745E+02  0.18776378471E+02  0.51100000000E-03 0. -1.
        -11    1    3    3    0    0  0.14526418268E+01  0.23686134633E+00  0.22505199447E+01  0.26890726760E+01  0.51100000000E-03 0.  1.
         12    1    3    3    0    0 -0.42311144762E+00  0.12320869341E+02  0.21376746926E+02  0.24676874878E+02  0.00000000000E+00 0. -1.
</event>
<event>
 7    1  0.1486782E-008  0.4614232E+02  0.7816164E-02  0.1320468E+00
        -11   -1    0    0    0    0  0.00000000000E+00  0.00000000000E+00  0.45593999997E+02  0.45594000000E+02  0.51100000000E-03 0.  1.
         11   -1    0    0    0    0 -0.00000000000E+00 -0.00000000000E+00 -0.45593999997E+02  0.45594000000E+02  0.51100000000E-03 0. -1.
    9900012    2    1    2    0    0  0.43847941820E+02 -0.40984648434E+01 -0.94696440722E+01  0.46142316802E+02  0.99999912546E+01 0.  0.
        -12    1    1    2    0    0 -0.43847941820E+02  0.40984648434E+01  0.94696440722E+01  0.45045683198E+02  0.00000000000E+00 0.  1.
         11    1    3    3    0    0  0.60656919700E+01  0.15027104135E+01 -0.13357836777E+01  0.63902328562E+01  0.51100000000E-03 0. -1.
        -11    1    3    3    0    0  0.20635223789E+02  0.64270229088E-01 -0.22432407696E+01  0.20756895743E+02  0.51100000000E-03 0.  1.
         12    1    3    3    0    0  0.17147026061E+02 -0.56654454860E+01 -0.58906196249E+01  0.18995188203E+02  0.00000000000E+00 0. -1.
</event>
<event>
 7    1  0.1486782E-008  0.4614232E+02  0.7816164E-02  0.1320468E+00
        -11   -1    0    0    0    0  0.00000000000E+00  0.00000000000E+00  0.45593999997E+02  0.45594000000E+02  0.51100000000E-03 0.  1.
         11   -1    0    0    0    0 -0.00000000000E+00 -0.00000000000E+00 -0.45593999997E+02  0.45594000000E+02  0.51100000000E-03 0. -1.
    9900012    2    1    2    0    0 -0.72728904565E+01 -0.29726863839E+02 -0.33053471615E+02  0.46142319240E+02  0.10000013489E+02 0.  0.
        -12    1    1    2    0    0  0.72728904565E+01  0.29726863839E+02  0.33053471615E+02  0.45045680760E+02  0.00000000000E+00 0.  1.
         11    1    3    3    0    0 -0.23902294211E+01 -0.95088103316E+01 -0.17772157611E+02  0.20297296791E+02  0.51100000000E-03 0. -1.
        -11    1    3    3    0    0 -0.33894877363E+00 -0.19620571061E+01 -0.10173459981E+01  0.22359667931E+01  0.51100000000E-03 0.  1.
         12    1    3    3    0    0 -0.45437122617E+01 -0.18255996401E+02 -0.14263968006E+02  0.23609055657E+02  0.00000000000E+00 0. -1.
</event>
<event>
 7    1  0.1486782E-008  0.4614232E+02  0.7816164E-02  0.1320468E+00
        -11   -1    0    0    0    0  0.00000000000E+00  0.00000000000E+00  0.45593999997E+02  0.45594000000E+02  0.51100000000E-03 0. -1.
         11   -1    0    0    0    0 -0.00000000000E+00 -0.00000000000E+00 -0.45593999997E+02  0.45594000000E+02  0.51100000000E-03 0.  1.
    9900012    2    1    2    0    0  0.71355912056E+01  0.43156938899E+02  0.10755248374E+02  0.46142318691E+02  0.10000008483E+02 0.  0.
        -12    1    1    2    0    0 -0.71355912056E+01 -0.43156938899E+02 -0.10755248374E+02  0.45045681309E+02  0.00000000000E+00 0.  1.
         11    1    3    3    0    0  0.62275182703E+00  0.30179938935E+01 -0.13197961853E+01  0.33523080424E+01  0.51100000000E-03 0. -1.
        -11    1    3    3    0    0  0.83040021229E+00  0.13611378831E+01  0.15170784315E+01  0.22008607584E+01  0.51100000000E-03 0.  1.
         12    1    3    3    0    0  0.56824391662E+01  0.38777807122E+02  0.10557966128E+02  0.40589149891E+02  0.00000000000E+00 0. -1.
</event>
<event>
 7    1  0.1486782E-008  0.4614232E+02  0.7816164E-02  0.1320468E+00
        -11   -1    0    0    0    0  0.00000000000E+00  0.00000000000E+00  0.45593999997E+02  0.45594000000E+02  0.51100000000E-03 0. -1.
         11   -1    0    0    0    0 -0.00000000000E+00 -0.00000000000E+00 -0.45593999997E+02  0.45594000000E+02  0.51100000000E-03 0.  1.
    9900012    2    1    2    0    0 -0.29696371516E+02  0.18704518617E+02  0.28237917918E+02  0.46142317563E+02  0.99999981903E+01 0.  0.
        -12    1    1    2    0    0  0.29696371516E+02 -0.18704518617E+02 -0.28237917918E+02  0.45045682437E+02  0.00000000000E+00 0.  1.
         11    1    3    3    0    0 -0.31102061154E+01  0.41449590578E+01  0.29635881160E+01  0.59696668629E+01  0.51100000000E-03 0. -1.
        -11    1    3    3    0    0 -0.25705117990E+02  0.11751975371E+02  0.23289288907E+02  0.36623121031E+02  0.51100000000E-03 0.  1.
        -12    1    3    3    0    0 -0.88104741066E+00  0.28075841885E+01  0.19850408945E+01  0.35495296686E+01  0.00000000000E+00 0.  1.
</event>
<event>
 7    1  0.1486782E-008  0.4614232E+02  0.7816164E-02  0.1320468E+00
        -11   -1    0    0    0    0  0.00000000000E+00  0.00000000000E+00  0.45593999997E+02  0.45594000000E+02  0.51100000000E-03 0. -1.
         11   -1    0    0    0    0 -0.00000000000E+00 -0.00000000000E+00 -0.45593999997E+02  0.45594000000E+02  0.51100000000E-03 0.  1.
    9900012    2    1    2    0    0 -0.16052665519E+01  0.42284795355E+02 -0.15444511522E+02  0.46142315023E+02  0.99999750286E+01 0.  0.
        -12    1    1    2    0    0  0.16052665519E+01 -0.42284795355E+02  0.15444511522E+02  0.45045684977E+02  0.00000000000E+00 0.  1.
         11    1    3    3    0    0  0.32919484947E+01  0.13974709367E+02 -0.43766474299E+01  0.15009479331E+02  0.51100000000E-03 0. -1.
        -11    1    3    3    0    0 -0.10814882242E+01  0.13671065884E+02 -0.73297799966E+01  0.15549705278E+02  0.51100000000E-03 0.  1.
        -12    1    3    3    0    0 -0.38157268223E+01  0.14639020104E+02 -0.37380840955E+01  0.15583130414E+02  0.00000000000E+00 0.  1.
</event>
<event>
 7    1  0.1486782E-008  0.4614232E+02  0.7816164E-02  0.1320468E+00
        -11   -1    0    0    0    0  0.00000000000E+00  0.00000000000E+00  0.45593999997E+02  0.45594000000E+02  0.51100000000E-03 0.  1.
         11   -1    0    0    0    0 -0.00000000000E+00 -0.00000000000E+00 -0.45593999997E+02  0.45594000000E+02  0.51100000000E-03 0. -1.
    9900012    2    1    2    0    0 -0.11143490926E+01 -0.63894569701E+01 -0.44576300859E+02  0.46142317270E+02  0.99999955239E+01 0.  0.
        -12    1    1    2    0    0  0.11143490926E+01  0.63894569701E+01  0.44576300859E+02  0.45045682730E+02  0.00000000000E+00 0.  1.
         11    1    3    3    0    0 -0.27298037126E+00 -0.43814689993E+01 -0.22117337294E+02  0.22548800370E+02  0.51100000000E-03 0. -1.
        -11    1    3    3    0    0 -0.72786791669E+00 -0.45769066084E+01 -0.13533064679E+02  0.14304604352E+02  0.51100000000E-03 0.  1.
        -12    1    3    3    0    0 -0.11350080470E+00  0.25689186375E+01 -0.89258988870E+01  0.92889125488E+01  0.00000000000E+00 0.  1.
</event>
<event>
 7    1  0.1486782E-008  0.4614232E+02  0.7816164E-02  0.1320468E+00
        -11   -1    0    0    0    0  0.00000000000E+00  0.00000000000E+00  0.45593999997E+02  0.45594000000E+02  0.51100000000E-03 0.  1.
         11   -1    0    0    0    0 -0.00000000000E+00 -0.00000000000E+00 -0.45593999997E+02  0.45594000000E+02  0.51100000000E-03 0. -1.
    9900012    2    1    2    0    0  0.43070077416E+02 -0.49625572239E+01 -0.12225175264E+02  0.46142318153E+02  0.10000003573E+02 0.  0.
        -12    1    1    2    0    0 -0.43070077416E+02  0.49625572239E+01  0.12225175264E+02  0.45045681847E+02  0.00000000000E+00 0.  1.
         11    1    3    3    0    0  0.17657966306E+02 -0.27774628896E+01 -0.70186926746E+01  0.19203648645E+02  0.51100000000E-03 0. -1.
        -11    1    3    3    0    0  0.20222097983E+02  0.11612757785E+01 -0.39740601873E+01  0.20641583343E+02  0.51100000000E-03 0.  1.
        -12    1    3    3    0    0  0.51900131275E+01 -0.33463701128E+01 -0.12324224022E+01  0.62970861652E+01  0.00000000000E+00 0.  1.
</event>
<event>
 7    1  0.1486782E-008  0.4614232E+02  0.7816164E-02  0.1320468E+00
        -11   -1    0    0    0    0  0.00000000000E+00  0.00000000000E+00  0.45593999997E+02  0.45594000000E+02  0.51100000000E-03 0.  1.
         11   -1    0    0    0    0 -0.00000000000E+00 -0.00000000000E+00 -0.45593999997E+02  0.45594000000E+02  0.51100000000E-03 0. -1.
    9900012    2    1    2    0    0  0.35481295427E+02  0.93603069777E+01 -0.26126150127E+02  0.46142318827E+02  0.10000009720E+02 0.  0.
        -12    1    1    2    0    0 -0.35481295427E+02 -0.93603069777E+01  0.26126150127E+02  0.45045681173E+02  0.00000000000E+00 0.  1.
         11    1    3    3    0    0  0.18083702375E+02  0.68322425016E+01 -0.15844633574E+02  0.24995044359E+02  0.51100000000E-03 0. -1.
        -11    1    3    3    0    0  0.23862573811E+01  0.23244924534E+01 -0.29059175478E+01  0.44206160782E+01  0.51100000000E-03 0.  1.
        -12    1    3    3    0    0  0.15011335671E+02  0.20357202266E+00 -0.73755990053E+01  0.16726658389E+02  0.00000000000E+00 0.  1.
</event>
<event>
 7    1  0.1486782E-008  0.4614232E+02  0.7816164E-02  0.1320468E+00
        -11   -1    0    0    0    0  0.00000000000E+00  0.00000000000E+00  0.45593999997E+02  0.45594000000E+02  0.51100000000E-03 0.  1.
         11   -1    0    0    0    0 -0.00000000000E+00 -0.00000000000E+00 -0.45593999997E+02  0.45594000000E+02  0.51100000000E-03 0. -1.
    9900012    2    1    2    0    0  0.43525345671E+02  0.25058774713E+01  0.11330416933E+02  0.46142317792E+02  0.10000000281E+02 0.  0.
        -12    1    1    2    0    0 -0.43525345671E+02 -0.25058774713E+01 -0.11330416933E+02  0.45045682208E+02  0.00000000000E+00 0.  1.
         11    1    3    3    0    0  0.38248429964E+01  0.11537477026E+01 -0.14864082704E+01  0.42626244869E+01  0.51100000000E-03 0.  1.
        -11    1    3    3    0    0  0.27047358606E+02  0.13543951229E+01  0.71093825350E+01  0.27998880585E+02  0.51100000000E-03 0. -1.
        -12    1    3    3    0    0  0.12653144069E+02 -0.22653541830E-02  0.57074426683E+01  0.13880812720E+02  0.00000000000E+00 0.  1.
</event>
<event>
 7    1  0.1486782E-008  0.4614232E+02  0.7816164E-02  0.1320468E+00
        -11   -1    0    0    0    0  0.00000000000E+00  0.00000000000E+00  0.45593999997E+02  0.45594000000E+02  0.51100000000E-03 0. -1.
         11   -1    0    0    0    0 -0.00000000000E+00 -0.00000000000E+00 -0.45593999997E+02  0.45594000000E+02  0.51100000000E-03 0.  1.
    9900012    2    1    2    0    0  0.24885962394E+02  0.24471738075E+02  0.28476943991E+02  0.46142318434E+02  0.10000006136E+02 0.  0.
        -12    1    1    2    0    0 -0.24885962394E+02 -0.24471738075E+02 -0.28476943991E+02  0.45045681566E+02  0.00000000000E+00 0.  1.
         11    1    3    3    0    0  0.31347001567E+01  0.75892959535E+01  0.51772529424E+01  0.97070956744E+01  0.51100000000E-03 0. -1.
        -11    1    3    3    0    0  0.35497684527E-02  0.72070398228E+00  0.14808205226E+01  0.16468929875E+01  0.51100000000E-03 0.  1.
         12    1    3    3    0    0  0.21747712469E+02  0.16161738139E+02  0.21818870526E+02  0.34788329772E+02  0.00000000000E+00 0. -1.
</event>
<event>
 7    1  0.1486782E-008  0.4614232E+02  0.7816164E-02  0.1320468E+00
        -11   -1    0    0    0    0  0.00000000000E+00  0.00000000000E+00  0.45593999997E+02  0.45594000000E+02  0.51100000000E-03 0.  1.
         11   -1    0    0    0    0 -0.00000000000E+00 -0.00000000000E+00 -0.45593999997E+02  0.45594000000E+02  0.51100000000E-03 0. -1.
    9900012    2    1    2    0    0  0.34467567444E+01 -0.23345882594E+02 -0.38369298888E+02  0.46142318039E+02  0.10000002535E+02 0.  0.
        -12    1    1    2    0    0 -0.34467567444E+01  0.23345882594E+02  0.38369298888E+02  0.45045681961E+02  0.00000000000E+00 0.  1.
         11    1    3    3    0    0 -0.26717104861E+01 -0.33986968127E+01 -0.57066686238E+01  0.71592767784E+01  0.51100000000E-03 0. -1.
        -11    1    3    3    0    0  0.34008840869E+01 -0.13887536834E+02 -0.18871807489E+02  0.23676461097E+02  0.51100000000E-03 0.  1.
         12    1    3    3    0    0  0.27175831435E+01 -0.60596489471E+01 -0.13790822775E+02  0.15306580164E+02  0.00000000000E+00 0. -1.
</event>
<event>
 7    1  0.1486782E-008  0.4614232E+02  0.7816164E-02  0.1320468E+00
        -11   -1    0    0    0    0  0.00000000000E+00  0.00000000000E+00  0.45593999997E+02  0.45594000000E+02  0.51100000000E-03 0.  1.
         11   -1    0    0    0    0 -0.00000000000E+00 -0.00000000000E+00 -0.45593999997E+02  0.45594000000E+02  0.51100000000E-03 0. -1.
    9900012    2    1    2    0    0 -0.29311637011E+02 -0.22947835590E+02 -0.25364112434E+02  0.46142318497E+02  0.10000006711E+02 0.  0.
        -12    1    1    2    0    0  0.29311637011E+02  0.22947835590E+02  0.25364112434E+02  0.45045681503E+02  0.00000000000E+00 0.  1.
         11    1    3    3    0    0 -0.65578754246E+01 -0.99719111342E+01 -0.77831648015E+01  0.14248592785E+02  0.51100000000E-03 0. -1.
        -11    1    3    3    0    0 -0.37218547136E+01 -0.32176737420E+01 -0.52968256531E+01  0.72292454018E+01  0.51100000000E-03 0.  1.
         12    1    3    3    0    0 -0.19031906873E+02 -0.97582507136E+01 -0.12284121979E+02  0.24664480311E+02  0.00000000000E+00 0. -1.
</event>
<event>
 7    1  0.1486782E-008  0.4614232E+02  0.7816164E-02  0.1320468E+00
        -11   -1    0    0    0    0  0.00000000000E+00  0.00000000000E+00  0.45593999997E+02  0.45594000000E+02  0.51100000000E-03 0. -1.
         11   -1    0    0    0    0 -0.00000000000E+00 -0.00000000000E+00 -0.45593999997E+02  0.45594000000E+02  0.51100000000E-03 0.  1.
    9900012    2    1    2    0    0  0.43423247718E+02 -0.98206057901E+01  0.68622699222E+01  0.46142317754E+02  0.99999999373E+01 0.  0.
        -12    1    1    2    0    0 -0.43423247718E+02  0.98206057901E+01 -0.68622699222E+01  0.45045682246E+02  0.00000000000E+00 0.  1.
         11    1    3    3    0    0  0.13715368909E+02 -0.19884123948E+01  0.12459969932E+01  0.13914655473E+02  0.51100000000E-03 0. -1.
        -11    1    3    3    0    0  0.50095489683E-01  0.15971012880E+00  0.11816890406E+01  0.11934848692E+01  0.51100000000E-03 0.  1.
        -12    1    3    3    0    0  0.29657783319E+02 -0.79919035241E+01  0.44345838884E+01  0.31034177412E+02  0.00000000000E+00 0.  1.
</event>
<event>
 7    1  0.1486782E-008  0.4614232E+02  0.7816164E-02  0.1320468E+00
        -11   -1    0    0    0    0  0.00000000000E+00  0.00000000000E+00  0.45593999997E+02  0.45594000000E+02  0.51100000000E-03 0. -1.
         11   -1    0    0    0    0 -0.00000000000E+00 -0.00000000000E+00 -0.45593999997E+02  0.45594000000E+02  0.51100000000E-03 0.  1.
    9900012    2    1    2    0    0  0.10264134069E-01  0.12101075334E+02  0.43389831739E+02  0.46142316212E+02  0.99999858768E+01 0.  0.
        -12    1    1    2    0    0 -0.10264134069E-01 -0.12101075334E+02 -0.43389831739E+02  0.45045683788E+02  0.00000000000E+00 0.  1.
         11    1    3    3    0    0 -0.46198813604E+01  0.68048428653E+01  0.20763383732E+02  0.22333098632E+02  0.51100000000E-03 0. -1.
        -11    1    3    3    0    0  0.25643913363E+01  0.14366283182E+01  0.10998987852E+02  0.11384978607E+02  0.51100000000E-03 0.  1.
         12    1    3    3    0    0  0.20657541582E+01  0.38596041510E+01  0.11627460154E+02  0.12424238974E+02  0.00000000000E+00 0. -1.
</event>
<event>
 7    1  0.1486782E-008  0.4614232E+02  0.7816164E-02  0.1320468E+00
        -11   -1    0    0    0    0  0.00000000000E+00  0.00000000000E+00  0.45593999997E+02  0.45594000000E+02  0.51100000000E-03 0.  1.
         11   -1    0    0    0    0 -0.00000000000E+00 -0.00000000000E+00 -0.45593999997E+02  0.45594000000E+02  0.51100000000E-03 0. -1.
    9900012    2    1    2    0    0  0.35319097714E+02  0.11129227014E+02 -0.25647907534E+02  0.46142317431E+02  0.99999969912E+01 0.  0.
        -12    1    1    2    0    0 -0.35319097714E+02 -0.11129227014E+02  0.25647907534E+02  0.45045682569E+02  0.00000000000E+00 0.  1.
         11    1    3    3    0    0  0.11327454146E+02  0.15811518018E+01 -0.13019090553E+02  0.17329396341E+02  0.51100000000E-03 0. -1.
        -11    1    3    3    0    0  0.19340818265E+02  0.81003289303E+01 -0.10987107119E+02  0.23672750221E+02  0.51100000000E-03 0.  1.
         12    1    3    3    0    0  0.46508253030E+01  0.14477462819E+01 -0.16417098620E+01  0.51401708694E+01  0.00000000000E+00 0. -1.
</event>
<event>
 7    1  0.1486782E-008  0.4614232E+02  0.7816164E-02  0.1320468E+00
        -11   -1    0    0    0    0  0.00000000000E+00  0.00000000000E+00  0.45593999997E+02  0.45594000000E+02  0.51100000000E-03 0.  1.
         11   -1    0    0    0    0 -0.00000000000E+00 -0.00000000000E+00 -0.45593999997E+02  0.45594000000E+02  0.51100000000E-03 0. -1.
    9900012    2    1    2    0    0  0.17385275305E+02 -0.72636808600E+01 -0.40915823905E+02  0.46142317600E+02  0.99999985338E+01 0.  0.
        -12    1    1    2    0    0 -0.17385275305E+02  0.72636808600E+01  0.40915823905E+02  0.45045682400E+02  0.00000000000E+00 0.  1.
         11    1    3    3    0    0  0.57407239319E+01 -0.53438342475E+01 -0.98190512424E+01  0.12566870863E+02  0.51100000000E-03 0. -1.
        -11    1    3    3    0    0  0.60979025473E+01 -0.19850721624E+01 -0.11056742613E+02  0.12781881100E+02  0.51100000000E-03 0.  1.
        -12    1    3    3    0    0  0.55466488254E+01  0.65225549820E-01 -0.20040030049E+02  0.20793565638E+02  0.00000000000E+00 0.  1.
</event>
<event>
 7    1  0.1486782E-008  0.4614233E+02  0.7816164E-02  0.1320468E+00
        -11   -1    0    0    0    0  0.00000000000E+00  0.00000000000E+00  0.45593999997E+02  0.45594000000E+02  0.51100000000E-03 0.  1.
         11   -1    0    0    0    0 -0.00000000000E+00 -0.00000000000E+00 -0.45593999997E+02  0.45594000000E+02  0.51100000000E-03 0. -1.
    9900012    2    1    2    0    0 -0.22495213562E+02 -0.11836072814E+02 -0.37188508494E+02  0.46142329655E+02  0.10000108458E+02 0.  0.
        -12    1    1    2    0    0  0.22495213562E+02  0.11836072814E+02  0.37188508494E+02  0.45045670345E+02  0.00000000000E+00 0.  1.
         11    1    3    3    0    0 -0.14710682750E+02 -0.71091748550E+01 -0.23518923441E+02  0.28637114279E+02  0.51100000000E-03 0. -1.
        -11    1    3    3    0    0 -0.49708656309E+01 -0.13626122068E+01 -0.29866315196E+01  0.59570282223E+01  0.51100000000E-03 0.  1.
        -12    1    3    3    0    0 -0.28136651806E+01 -0.33642857520E+01 -0.10682953533E+02  0.11548187154E+02  0.00000000000E+00 0.  1.
</event>
<event>
 7    1  0.1486782E-008  0.4614232E+02  0.7816164E-02  0.1320468E+00
        -11   -1    0    0    0    0  0.00000000000E+00  0.00000000000E+00  0.45593999997E+02  0.45594000000E+02  0.51100000000E-03 0.  1.
         11   -1    0    0    0    0 -0.00000000000E+00 -0.00000000000E+00 -0.45593999997E+02  0.45594000000E+02  0.51100000000E-03 0. -1.
    9900012    2    1    2    0    0 -0.38548871769E+00  0.60027755746E+01 -0.44642262014E+02  0.46142317922E+02  0.10000001465E+02 0.  0.
        -12    1    1    2    0    0  0.38548871769E+00 -0.60027755746E+01  0.44642262014E+02  0.45045682078E+02  0.00000000000E+00 0.  1.
         11    1    3    3    0    0  0.10572623209E+01  0.10982738138E+01 -0.19555503700E+02  0.19614834544E+02  0.51100000000E-03 0. -1.
        -11    1    3    3    0    0  0.19659292427E+00 -0.26514868476E+00 -0.15572914549E+02  0.15576412309E+02  0.51100000000E-03 0.  1.
        -12    1    3    3    0    0 -0.16393439628E+01  0.51696504456E+01 -0.95138437658E+01  0.10951071069E+02  0.00000000000E+00 0.  1.
</event>
<event>
 7    1  0.1486782E-008  0.4614232E+02  0.7816164E-02  0.1320468E+00
        -11   -1    0    0    0    0  0.00000000000E+00  0.00000000000E+00  0.45593999997E+02  0.45594000000E+02  0.51100000000E-03 0.  1.
         11   -1    0    0    0    0 -0.00000000000E+00 -0.00000000000E+00 -0.45593999997E+02  0.45594000000E+02  0.51100000000E-03 0. -1.
    9900012    2    1    2    0    0 -0.45118745417E+01 -0.41077439777E+02 -0.17927643038E+02  0.46142318127E+02  0.10000003339E+02 0.  0.
        -12    1    1    2    0    0  0.45118745417E+01  0.41077439777E+02  0.17927643038E+02  0.45045681873E+02  0.00000000000E+00 0.  1.
         11    1    3    3    0    0 -0.13587552735E+01 -0.11345440642E+02 -0.24809499227E+01  0.11692747840E+02  0.51100000000E-03 0. -1.
        -11    1    3    3    0    0  0.95850500358E+00 -0.17862316168E+02 -0.11568674810E+02  0.21302941296E+02  0.51100000000E-03 0.  1.
        -12    1    3    3    0    0 -0.41116242718E+01 -0.11869682966E+02 -0.38780183049E+01  0.13146628991E+02  0.00000000000E+00 0.  1.
</event>
<event>
 7    1  0.1486782E-008  0.4614232E+02  0.7816164E-02  0.1320468E+00
        -11   -1    0    0    0    0  0.00000000000E+00  0.00000000000E+00  0.45593999997E+02  0.45594000000E+02  0.51100000000E-03 0.  1.
         11   -1    0    0    0    0 -0.00000000000E+00 -0.00000000000E+00 -0.45593999997E+02  0.45594000000E+02  0.51100000000E-03 0. -1.
    9900012    2    1    2    0    0 -0.66904487698E+01  0.37007161457E+02 -0.24795592051E+02  0.46142317754E+02  0.99999999338E+01 0.  0.
        -12    1    1    2    0    0  0.66904487698E+01 -0.37007161457E+02  0.24795592051E+02  0.45045682246E+02  0.00000000000E+00 0.  1.
         11    1    3    3    0    0 -0.41363623162E+01  0.18768008281E+02 -0.17434153297E+02  0.25947973514E+02  0.51100000000E-03 0. -1.
        -11    1    3    3    0    0 -0.14184750516E+01  0.27477241570E+01 -0.22507996262E+00  0.31004388021E+01  0.51100000000E-03 0.  1.
         12    1    3    3    0    0 -0.11356114020E+01  0.15491429019E+02 -0.71363587916E+01  0.17093905437E+02  0.00000000000E+00 0. -1.
</event>
<event>
 7    1  0.1486782E-008  0.4614232E+02  0.7816164E-02  0.1320468E+00
        -11   -1    0    0    0    0  0.00000000000E+00  0.00000000000E+00  0.45593999997E+02  0.45594000000E+02  0.51100000000E-03 0.  1.
         11   -1    0    0    0    0 -0.00000000000E+00 -0.00000000000E+00 -0.45593999997E+02  0.45594000000E+02  0.51100000000E-03 0. -1.
    9900012    2    1    2    0    0 -0.24407815369E+01 -0.26204898799E+02 -0.36557612424E+02  0.46142321387E+02  0.10000033064E+02 0.  0.
        -12    1    1    2    0    0  0.24407815369E+01  0.26204898799E+02  0.36557612424E+02  0.45045678613E+02  0.00000000000E+00 0.  1.
         11    1    3    3    0    0 -0.21418191925E+01 -0.73717149728E+01 -0.97116173183E+01  0.12379219777E+02  0.51100000000E-03 0. -1.
        -11    1    3    3    0    0 -0.13990731369E+01 -0.18560470822E+02 -0.26798968509E+02  0.32628717354E+02  0.51100000000E-03 0.  1.
        -12    1    3    3    0    0  0.11001107926E+01 -0.27271300451E+00 -0.47026596403E-01  0.11343842557E+01  0.00000000000E+00 0.  1.
</event>
<event>
 7    1  0.1486782E-008  0.4614232E+02  0.7816164E-02  0.1320468E+00
        -11   -1    0    0    0    0  0.00000000000E+00  0.00000000000E+00  0.45593999997E+02  0.45594000000E+02  0.51100000000E-03 0.  1.
         11   -1    0    0    0    0 -0.00000000000E+00 -0.00000000000E+00 -0.45593999997E+02  0.45594000000E+02  0.51100000000E-03 0. -1.
    9900012    2    1    2    0    0 -0.10607846275E+02 -0.25824456534E+02 -0.35350872403E+02  0.46142321655E+02  0.10000035508E+02 0.  0.
        -12    1    1    2    0    0  0.10607846275E+02  0.25824456534E+02  0.35350872403E+02  0.45045678345E+02  0.00000000000E+00 0.  1.
         11    1    3    3    0    0 -0.46533437954E+01 -0.20381739078E+02 -0.25550996007E+02  0.33013971187E+02  0.51100000000E-03 0. -1.
        -11    1    3    3    0    0 -0.17603885643E+01  0.10458651502E+00 -0.23336057245E+01  0.29249995171E+01  0.51100000000E-03 0.  1.
        -12    1    3    3    0    0 -0.41941139155E+01 -0.55473039713E+01 -0.74662706717E+01  0.10203350951E+02  0.00000000000E+00 0.  1.
</event>
<event>
 7    1  0.1486782E-008  0.4614232E+02  0.7816164E-02  0.1320468E+00
        -11   -1    0    0    0    0  0.00000000000E+00  0.00000000000E+00  0.45593999997E+02  0.45594000000E+02  0.51100000000E-03 0.  1.
         11   -1    0    0    0    0 -0.00000000000E+00 -0.00000000000E+00 -0.45593999997E+02  0.45594000000E+02  0.51100000000E-03 0. -1.
    9900012    2    1    2    0    0  0.18513268422E+02 -0.30896658134E+02 -0.27051227659E+02  0.46142317528E+02  0.99999978730E+01 0.  0.
        -12    1    1    2    0    0 -0.18513268422E+02  0.30896658134E+02  0.27051227659E+02  0.45045682472E+02  0.00000000000E+00 0.  1.
         11    1    3    3    0    0  0.19164285867E-01 -0.47534840016E+01 -0.11929710346E+01  0.49009343572E+01  0.51100000000E-03 0. -1.
        -11    1    3    3    0    0  0.15219628022E+02 -0.19997753509E+02 -0.21013939731E+02  0.32758707023E+02  0.51100000000E-03 0.  1.
        -12    1    3    3    0    0  0.32744761134E+01 -0.61454206238E+01 -0.48443168929E+01  0.84826761473E+01  0.00000000000E+00 0.  1.
</event>
<event>
 7    1  0.1486782E-008  0.4614232E+02  0.7816164E-02  0.1320468E+00
        -11   -1    0    0    0    0  0.00000000000E+00  0.00000000000E+00  0.45593999997E+02  0.45594000000E+02  0.51100000000E-03 0.  1.
         11   -1    0    0    0    0 -0.00000000000E+00 -0.00000000000E+00 -0.45593999997E+02  0.45594000000E+02  0.51100000000E-03 0. -1.
    9900012    2    1    2    0    0  0.29053325744E+02 -0.13505884231E+01 -0.34397583033E+02  0.46142317139E+02  0.99999943306E+01 0.  0.
        -12    1    1    2    0    0 -0.29053325744E+02  0.13505884231E+01  0.34397583033E+02  0.45045682861E+02  0.00000000000E+00 0.  1.
         11    1    3    3    0    0  0.27103172201E+02 -0.39523735559E+01 -0.29565824543E+02  0.40303116272E+02  0.51100000000E-03 0. -1.
        -11    1    3    3    0    0  0.12585647617E+01  0.18503288388E+01 -0.30099265537E+01  0.37506479695E+01  0.51100000000E-03 0.  1.
         12    1    3    3    0    0  0.69158878200E+00  0.75145629395E+00 -0.18218319356E+01  0.20885528978E+01  0.00000000000E+00 0. -1.
</event>
<event>
 7    1  0.1486782E-008  0.4614232E+02  0.7816164E-02  0.1320468E+00
        -11   -1    0    0    0    0  0.00000000000E+00  0.00000000000E+00  0.45593999997E+02  0.45594000000E+02  0.51100000000E-03 0.  1.
         11   -1    0    0    0    0 -0.00000000000E+00 -0.00000000000E+00 -0.45593999997E+02  0.45594000000E+02  0.51100000000E-03 0. -1.
    9900012    2    1    2    0    0 -0.44143204190E+02  0.21562403117E+01 -0.87087121008E+01  0.46142317466E+02  0.99999973131E+01 0.  0.
        -12    1    1    2    0    0  0.44143204190E+02 -0.21562403117E+01  0.87087121008E+01  0.45045682534E+02  0.00000000000E+00 0.  1.
         11    1    3    3    0    0 -0.35839409322E+02 -0.30202112556E+00 -0.52385763446E+01  0.36221501345E+02  0.51100000000E-03 0. -1.
        -11    1    3    3    0    0 -0.64639115701E+01  0.82259831908E+00 -0.36206647637E+01  0.74543969825E+01  0.51100000000E-03 0.  1.
         12    1    3    3    0    0 -0.18398832982E+01  0.16356631182E+01  0.15052900749E+00  0.24664191390E+01  0.00000000000E+00 0. -1.
</event>
<event>
 7    1  0.1486782E-008  0.4614232E+02  0.7816164E-02  0.1320468E+00
        -11   -1    0    0    0    0  0.00000000000E+00  0.00000000000E+00  0.45593999997E+02  0.45594000000E+02  0.51100000000E-03 0.  1.
         11   -1    0    0    0    0 -0.00000000000E+00 -0.00000000000E+00 -0.45593999997E+02  0.45594000000E+02  0.51100000000E-03 0. -1.
    9900012    2    1    2    0    0  0.23326930873E+02 -0.14530837166E+02 -0.35690651316E+02  0.46142317365E+02  0.99999963868E+01 0.  0.
        -12    1    1    2    0    0 -0.23326930873E+02  0.14530837166E+02  0.35690651316E+02  0.45045682635E+02  0.00000000000E+00 0.  1.
         11    1    3    3    0    0  0.11585875774E+02 -0.12603669667E+02 -0.18944077010E+02  0.25533567329E+02  0.51100000000E-03 0. -1.
        -11    1    3    3    0    0  0.70228413975E+01 -0.19480427267E+01 -0.10456859314E+02  0.12746022075E+02  0.51100000000E-03 0.  1.
         12    1    3    3    0    0  0.47182137010E+01  0.20875227556E-01 -0.62897149926E+01  0.78627279612E+01  0.00000000000E+00 0. -1.
</event>
<event>
 7    1  0.1486782E-008  0.4614232E+02  0.7816164E-02  0.1320468E+00
        -11   -1    0    0    0    0  0.00000000000E+00  0.00000000000E+00  0.45593999997E+02  0.45594000000E+02  0.51100000000E-03 0. -1.
         11   -1    0    0    0    0 -0.00000000000E+00 -0.00000000000E+00 -0.45593999997E+02  0.45594000000E+02  0.51100000000E-03 0.  1.
    9900012    2    1    2    0    0 -0.93682276876E+00 -0.13293319012E+02  0.43029333795E+02  0.46142317253E+02  0.99999953677E+01 0.  0.
        -12    1    1    2    0    0  0.93682276876E+00  0.13293319012E+02 -0.43029333795E+02  0.45045682747E+02  0.00000000000E+00 0.  1.
         11    1    3    3    0    0 -0.16818694863E+00 -0.60879412673E+01  0.13014953668E+02  0.14369423612E+02  0.51100000000E-03 0. -1.
        -11    1    3    3    0    0 -0.20027684778E+01 -0.54249648624E+01  0.28615944316E+02  0.29194410333E+02  0.51100000000E-03 0.  1.
        -12    1    3    3    0    0  0.12341326577E+01 -0.17804128824E+01  0.13984358120E+01  0.25784833079E+01  0.00000000000E+00 0.  1.
</event>
<event>
 7    1  0.1486782E-008  0.4614232E+02  0.7816164E-02  0.1320468E+00
        -11   -1    0    0    0    0  0.00000000000E+00  0.00000000000E+00  0.45593999997E+02  0.45594000000E+02  0.51100000000E-03 0.  1.
         11   -1    0    0    0    0 -0.00000000000E+00 -0.00000000000E+00 -0.45593999997E+02  0.45594000000E+02  0.51100000000E-03 0. -1.
    9900012    2    1    2    0    0  0.10464230380E+02 -0.27019890741E+02 -0.34489690419E+02  0.46142319205E+02  0.10000013167E+02 0.  0.
        -12    1    1    2    0    0 -0.10464230380E+02  0.27019890741E+02  0.34489690419E+02  0.45045680795E+02  0.00000000000E+00 0.  1.
         11    1    3    3    0    0  0.86466985277E+01 -0.23006449396E+02 -0.26349485101E+02  0.36032727826E+02  0.51100000000E-03 0. -1.
        -11    1    3    3    0    0  0.29381358129E+00 -0.26961703106E+01 -0.75322624938E+01  0.80056629520E+01  0.51100000000E-03 0.  1.
        -12    1    3    3    0    0  0.15237182714E+01 -0.13172710343E+01 -0.60794282376E+00  0.21039284269E+01  0.00000000000E+00 0.  1.
</event>
<event>
 7    1  0.1486782E-008  0.4614232E+02  0.7816164E-02  0.1320468E+00
        -11   -1    0    0    0    0  0.00000000000E+00  0.00000000000E+00  0.45593999997E+02  0.45594000000E+02  0.51100000000E-03 0. -1.
         11   -1    0    0    0    0 -0.00000000000E+00 -0.00000000000E+00 -0.45593999997E+02  0.45594000000E+02  0.51100000000E-03 0.  1.
    9900012    2    1    2    0    0  0.15117957389E+02 -0.40245361112E+02  0.13448860591E+02  0.46142316768E+02  0.99999909429E+01 0.  0.
        -12    1    1    2    0    0 -0.15117957389E+02  0.40245361112E+02 -0.13448860591E+02  0.45045683232E+02  0.00000000000E+00 0.  1.
         11    1    3    3    0    0  0.66003550344E+01 -0.27174633724E+02  0.77812841734E+01  0.29027121598E+02  0.51100000000E-03 0. -1.
        -11    1    3    3    0    0  0.11098595443E+01 -0.34806302463E+01 -0.18495685962E+00  0.36579754538E+01  0.51100000000E-03 0.  1.
         12    1    3    3    0    0  0.74077428098E+01 -0.95900971422E+01  0.58525332777E+01  0.13457219717E+02  0.00000000000E+00 0. -1.
</event>
<event>
 7    1  0.1486782E-008  0.4614232E+02  0.7816164E-02  0.1320468E+00
        -11   -1    0    0    0    0  0.00000000000E+00  0.00000000000E+00  0.45593999997E+02  0.45594000000E+02  0.51100000000E-03 0. -1.
         11   -1    0    0    0    0 -0.00000000000E+00 -0.00000000000E+00 -0.45593999997E+02  0.45594000000E+02  0.51100000000E-03 0.  1.
    9900012    2    1    2    0    0 -0.33115681879E+02  0.52786255685E+01  0.30076590579E+02  0.46142316799E+02  0.99999912227E+01 0.  0.
        -12    1    1    2    0    0  0.33115681879E+02 -0.52786255685E+01 -0.30076590579E+02  0.45045683201E+02  0.00000000000E+00 0.  1.
         11    1    3    3    0    0 -0.15168250926E+02  0.99091177003E+00  0.85513183040E+01  0.17440836771E+02  0.51100000000E-03 0. -1.
        -11    1    3    3    0    0 -0.89178891363E+01  0.26670257754E+01  0.14118815910E+02  0.16911024100E+02  0.51100000000E-03 0.  1.
        -12    1    3    3    0    0 -0.90295418174E+01  0.16206880230E+01  0.74064563650E+01  0.11790455928E+02  0.00000000000E+00 0.  1.
</event>
<event>
 7    1  0.1486782E-008  0.4614232E+02  0.7816164E-02  0.1320468E+00
        -11   -1    0    0    0    0  0.00000000000E+00  0.00000000000E+00  0.45593999997E+02  0.45594000000E+02  0.51100000000E-03 0.  1.
         11   -1    0    0    0    0 -0.00000000000E+00 -0.00000000000E+00 -0.45593999997E+02  0.45594000000E+02  0.51100000000E-03 0. -1.
    9900012    2    1    2    0    0 -0.19427629702E+02  0.21292788074E+02 -0.34616437384E+02  0.46142319220E+02  0.10000013301E+02 0.  0.
        -12    1    1    2    0    0  0.19427629702E+02 -0.21292788074E+02  0.34616437384E+02  0.45045680780E+02  0.00000000000E+00 0.  1.
         11    1    3    3    0    0 -0.90796094924E+01  0.12926241236E+02 -0.15375585969E+02  0.22043948494E+02  0.51100000000E-03 0. -1.
        -11    1    3    3    0    0 -0.19861793428E+01  0.19368293583E+01 -0.89180370169E+01  0.93395717697E+01  0.51100000000E-03 0.  1.
        -12    1    3    3    0    0 -0.83618408665E+01  0.64297174794E+01 -0.10322814398E+02  0.14758798956E+02  0.00000000000E+00 0.  1.
</event>
<event>
 7    1  0.1486782E-008  0.4614231E+02  0.7816164E-02  0.1320468E+00
        -11   -1    0    0    0    0  0.00000000000E+00  0.00000000000E+00  0.45593999997E+02  0.45594000000E+02  0.51100000000E-03 0.  1.
         11   -1    0    0    0    0 -0.00000000000E+00 -0.00000000000E+00 -0.45593999997E+02  0.45594000000E+02  0.51100000000E-03 0. -1.
    9900012    2    1    2    0    0 -0.31521156851E+02  0.32171112123E+02 -0.74161175289E+00  0.46142314608E+02  0.99999712486E+01 0.  0.
        -12    1    1    2    0    0  0.31521156851E+02 -0.32171112123E+02  0.74161175289E+00  0.45045685392E+02  0.00000000000E+00 0.  1.
         11    1    3    3    0    0 -0.12425973859E+02  0.13299991032E+02 -0.58002197881E+00  0.18210738963E+02  0.51100000000E-03 0. -1.
        -11    1    3    3    0    0 -0.62559796810E+01  0.51974461816E+01  0.34423015365E+01  0.88317704176E+01  0.51100000000E-03 0.  1.
        -12    1    3    3    0    0 -0.12839203310E+02  0.13673674909E+02 -0.36038913105E+01  0.19099805228E+02  0.00000000000E+00 0.  1.
</event>
<event>
 7    1  0.1486782E-008  0.4614232E+02  0.7816164E-02  0.1320468E+00
        -11   -1    0    0    0    0  0.00000000000E+00  0.00000000000E+00  0.45593999997E+02  0.45594000000E+02  0.51100000000E-03 0. -1.
         11   -1    0    0    0    0 -0.00000000000E+00 -0.00000000000E+00 -0.45593999997E+02  0.45594000000E+02  0.51100000000E-03 0.  1.
    9900012    2    1    2    0    0  0.32978475451E+02 -0.22060256327E+02  0.21327888028E+02  0.46142316966E+02  0.99999927458E+01 0.  0.
        -12    1    1    2    0    0 -0.32978475451E+02  0.22060256327E+02 -0.21327888028E+02  0.45045683034E+02  0.00000000000E+00 0.  1.
         11    1    3    3    0    0  0.40604850918E+00 -0.92933501501E+00  0.18478312644E+01  0.21078471493E+01  0.51100000000E-03 0. -1.
        -11    1    3    3    0    0  0.20428070727E+02 -0.90054966826E+01  0.10667110946E+02  0.24742520088E+02  0.51100000000E-03 0.  1.
        -12    1    3    3    0    0  0.12144356215E+02 -0.12125424630E+02  0.88129458182E+01  0.19291949728E+02  0.00000000000E+00 0.  1.
</event>
<event>
 7    1  0.1486782E-008  0.4614232E+02  0.7816164E-02  0.1320468E+00
        -11   -1    0    0    0    0  0.00000000000E+00  0.00000000000E+00  0.45593999997E+02  0.45594000000E+02  0.51100000000E-03 0.  1.
         11   -1    0    0    0    0 -0.00000000000E+00 -0.00000000000E+00 -0.45593999997E+02  0.45594000000E+02  0.51100000000E-03 0. -1.
    9900012    2    1    2    0    0  0.34976572283E+01  0.65982275156E+00 -0.44904837043E+02  0.46142319164E+02  0.10000012794E+02 0.  0.
        -12    1    1    2    0    0 -0.34976572283E+01 -0.65982275156E+00  0.44904837043E+02  0.45045680836E+02  0.00000000000E+00 0.  1.
         11    1    3    3    0    0 -0.33435393361E+00 -0.21129506798E+01 -0.10210120339E+02  0.10431822024E+02  0.51100000000E-03 0. -1.
        -11    1    3    3    0    0  0.53929472336E+01  0.13854937734E+00 -0.22085961494E+02  0.22735275920E+02  0.51100000000E-03 0.  1.
        -12    1    3    3    0    0 -0.15609360717E+01  0.26342240540E+01 -0.12608755209E+02  0.12975221220E+02  0.00000000000E+00 0.  1.
</event>
<event>
 7    1  0.1486782E-008  0.4614232E+02  0.7816164E-02  0.1320468E+00
        -11   -1    0    0    0    0  0.00000000000E+00  0.00000000000E+00  0.45593999997E+02  0.45594000000E+02  0.51100000000E-03 0.  1.
         11   -1    0    0    0    0 -0.00000000000E+00 -0.00000000000E+00 -0.45593999997E+02  0.45594000000E+02  0.51100000000E-03 0. -1.
    9900012    2    1    2    0    0  0.52720197531E+01 -0.41759837678E+02  0.16044795717E+02  0.46142315359E+02  0.99999780997E+01 0.  0.
        -12    1    1    2    0    0 -0.52720197531E+01  0.41759837678E+02 -0.16044795717E+02  0.45045684641E+02  0.00000000000E+00 0.  1.
         11    1    3    3    0    0  0.17710466330E+01 -0.50219579733E+01  0.18052134778E+01  0.56227630240E+01  0.51100000000E-03 0.  1.
        -11    1    3    3    0    0  0.48659775819E+01 -0.35941152219E+02  0.14165837400E+02  0.38937322842E+02  0.51100000000E-03 0. -1.
        -12    1    3    3    0    0 -0.13650044618E+01 -0.79672748572E+00  0.73744838919E-01  0.15822294930E+01  0.00000000000E+00 0.  1.
</event>
<event>
 7    1  0.1486782E-008  0.4614232E+02  0.7816164E-02  0.1320468E+00
        -11   -1    0    0    0    0  0.00000000000E+00  0.00000000000E+00  0.45593999997E+02  0.45594000000E+02  0.51100000000E-03 0. -1.
         11   -1    0    0    0    0 -0.00000000000E+00 -0.00000000000E+00 -0.45593999997E+02  0.45594000000E+02  0.51100000000E-03 0.  1.
    9900012    2    1    2    0    0 -0.27645077067E+02 -0.12281923759E+02  0.33376901622E+02  0.46142317641E+02  0.99999989043E+01 0.  0.
        -12    1    1    2    0    0  0.27645077067E+02  0.12281923759E+02 -0.33376901622E+02  0.45045682359E+02  0.00000000000E+00 0.  1.
         11    1    3    3    0    0 -0.12750541336E+02 -0.96087933563E+01  0.16497836708E+02  0.22958306349E+02  0.51100000000E-03 0. -1.
        -11    1    3    3    0    0 -0.29305772386E+01  0.81166752176E+00  0.56191118326E+01  0.63891709295E+01  0.51100000000E-03 0.  1.
         12    1    3    3    0    0 -0.11963958492E+02 -0.34847979248E+01  0.11259953082E+02  0.16794840362E+02  0.00000000000E+00 0. -1.
</event>
<event>
 7    1  0.1486782E-008  0.4614232E+02  0.7816164E-02  0.1320468E+00
        -11   -1    0    0    0    0  0.00000000000E+00  0.00000000000E+00  0.45593999997E+02  0.45594000000E+02  0.51100000000E-03 0. -1.
         11   -1    0    0    0    0 -0.00000000000E+00 -0.00000000000E+00 -0.45593999997E+02  0.45594000000E+02  0.51100000000E-03 0.  1.
    9900012    2    1    2    0    0  0.98935864870E+01 -0.42736955417E+02 -0.10236357602E+02  0.46142318422E+02  0.10000006023E+02 0.  0.
        -12    1    1    2    0    0 -0.98935864870E+01  0.42736955417E+02  0.10236357602E+02  0.45045681578E+02  0.00000000000E+00 0.  1.
         11    1    3    3    0    0  0.31616235802E+01 -0.22831181233E+02 -0.95339490426E+01  0.24943032790E+02  0.51100000000E-03 0. -1.
        -11    1    3    3    0    0  0.76664480805E+00 -0.75919683050E+00  0.30010860339E+00  0.11199060336E+01  0.51100000000E-03 0.  1.
         12    1    3    3    0    0  0.59653180987E+01 -0.19146577354E+02 -0.10025171624E+01  0.20079379598E+02  0.00000000000E+00 0. -1.
</event>
<event>
 7    1  0.1486782E-008  0.4614232E+02  0.7816164E-02  0.1320468E+00
        -11   -1    0    0    0    0  0.00000000000E+00  0.00000000000E+00  0.45593999997E+02  0.45594000000E+02  0.51100000000E-03 0.  1.
         11   -1    0    0    0    0 -0.00000000000E+00 -0.00000000000E+00 -0.45593999997E+02  0.45594000000E+02  0.51100000000E-03 0. -1.
    9900012    2    1    2    0    0  0.12135036894E+02 -0.28013040699E+02 -0.33122862422E+02  0.46142316692E+02  0.99999902519E+01 0.  0.
        -12    1    1    2    0    0 -0.12135036894E+02  0.28013040699E+02  0.33122862422E+02  0.45045683308E+02  0.00000000000E+00 0.  1.
         11    1    3    3    0    0  0.24408108909E+01 -0.67076765273E+01 -0.78679673174E+01  0.10623341855E+02  0.51100000000E-03 0. -1.
        -11    1    3    3    0    0  0.64417024859E+01 -0.15967459207E+02 -0.12378988413E+02  0.21206004783E+02  0.51100000000E-03 0.  1.
        -12    1    3    3    0    0  0.32525235176E+01 -0.53379049645E+01 -0.12875906692E+02  0.14312970055E+02  0.00000000000E+00 0.  1.
</event>
<event>
 7    1  0.1486782E-008  0.4614232E+02  0.7816164E-02  0.1320468E+00
        -11   -1    0    0    0    0  0.00000000000E+00  0.00000000000E+00  0.45593999997E+02  0.45594000000E+02  0.51100000000E-03 0.  1.
         11   -1    0    0    0    0 -0.00000000000E+00 -0.00000000000E+00 -0.45593999997E+02  0.45594000000E+02  0.51100000000E-03 0. -1.
    9900012    2    1    2    0    0  0.15173759702E+02  0.15898851941E+02 -0.39320439238E+02  0.46142318537E+02  0.10000007076E+02 0.  0.
        -12    1    1    2    0    0 -0.15173759702E+02 -0.15898851941E+02  0.39320439238E+02  0.45045681463E+02  0.00000000000E+00 0.  1.
         11    1    3    3    0    0  0.55755398672E+01  0.11806484719E+02 -0.23192550231E+02  0.26615298471E+02  0.51100000000E-03 0. -1.
        -11    1    3    3    0    0  0.12521720371E+01 -0.64050339817E+00 -0.18247711902E+01  0.23039031167E+01  0.51100000000E-03 0.  1.
         12    1    3    3    0    0  0.83460477978E+01  0.47328706207E+01 -0.14303117817E+02  0.17223116950E+02  0.00000000000E+00 0. -1.
</event>
<event>
 7    1  0.1486782E-008  0.4614232E+02  0.7816164E-02  0.1320468E+00
        -11   -1    0    0    0    0  0.00000000000E+00  0.00000000000E+00  0.45593999997E+02  0.45594000000E+02  0.51100000000E-03 0.  1.
         11   -1    0    0    0    0 -0.00000000000E+00 -0.00000000000E+00 -0.45593999997E+02  0.45594000000E+02  0.51100000000E-03 0. -1.
    9900012    2    1    2    0    0  0.38234275242E+02 -0.21916604889E+02 -0.93228812202E+01  0.46142317772E+02  0.10000000102E+02 0.  0.
        -12    1    1    2    0    0 -0.38234275242E+02  0.21916604889E+02  0.93228812202E+01  0.45045682228E+02  0.00000000000E+00 0.  1.
         11    1    3    3    0    0  0.10822898429E+02 -0.92561079638E+01 -0.57567714205E+01  0.15360699284E+02  0.51100000000E-03 0. -1.
        -11    1    3    3    0    0  0.17495486595E+02 -0.97531628297E+01 -0.63424381949E+00  0.20040421699E+02  0.51100000000E-03 0.  1.
        -12    1    3    3    0    0  0.99158902170E+01 -0.29073340954E+01 -0.29318659802E+01  0.10741196789E+02  0.00000000000E+00 0.  1.
</event>
<event>
 7    1  0.1486782E-008  0.4614232E+02  0.7816164E-02  0.1320468E+00
        -11   -1    0    0    0    0  0.00000000000E+00  0.00000000000E+00  0.45593999997E+02  0.45594000000E+02  0.51100000000E-03 0. -1.
         11   -1    0    0    0    0 -0.00000000000E+00 -0.00000000000E+00 -0.45593999997E+02  0.45594000000E+02  0.51100000000E-03 0.  1.
    9900012    2    1    2    0    0  0.29348315726E+02  0.75432311651E+01  0.33330010989E+02  0.46142316468E+02  0.99999882068E+01 0.  0.
        -12    1    1    2    0    0 -0.29348315726E+02 -0.75432311651E+01 -0.33330010989E+02  0.45045683532E+02  0.00000000000E+00 0.  1.
         11    1    3    3    0    0  0.20003368649E+02  0.21801826983E+01  0.19380387247E+02  0.27937203940E+02  0.51100000000E-03 0. -1.
        -11    1    3    3    0    0  0.74113548311E+01  0.55954703778E+01  0.13153170992E+02  0.16101036506E+02  0.51100000000E-03 0.  1.
        -12    1    3    3    0    0  0.19335922465E+01 -0.23242191094E+00  0.79645275001E+00  0.21040760213E+01  0.00000000000E+00 0.  1.
</event>
<event>
 7    1  0.1486782E-008  0.4614232E+02  0.7816164E-02  0.1320468E+00
        -11   -1    0    0    0    0  0.00000000000E+00  0.00000000000E+00  0.45593999997E+02  0.45594000000E+02  0.51100000000E-03 0.  1.
         11   -1    0    0    0    0 -0.00000000000E+00 -0.00000000000E+00 -0.45593999997E+02  0.45594000000E+02  0.51100000000E-03 0. -1.
    9900012    2    1    2    0    0  0.54115797328E+01 -0.20670684758E+01 -0.44671642110E+02  0.46142316788E+02  0.99999911237E+01 0.  0.
        -12    1    1    2    0    0 -0.54115797328E+01  0.20670684758E+01  0.44671642110E+02  0.45045683212E+02  0.00000000000E+00 0.  1.
         11    1    3    3    0    0  0.23982193744E+01 -0.13227956269E+01 -0.39191704851E+01  0.47813326585E+01  0.51100000000E-03 0. -1.
        -11    1    3    3    0    0  0.17799857849E+01 -0.22283795500E+01 -0.70741857161E+01  0.76274588573E+01  0.51100000000E-03 0.  1.
         12    1    3    3    0    0  0.12333745735E+01  0.14841067011E+01 -0.33678285908E+02  0.33733525272E+02  0.00000000000E+00 0. -1.
</event>
<event>
 7    1  0.1486782E-008  0.4614232E+02  0.7816164E-02  0.1320468E+00
        -11   -1    0    0    0    0  0.00000000000E+00  0.00000000000E+00  0.45593999997E+02  0.45594000000E+02  0.51100000000E-03 0.  1.
         11   -1    0    0    0    0 -0.00000000000E+00 -0.00000000000E+00 -0.45593999997E+02  0.45594000000E+02  0.51100000000E-03 0. -1.
    9900012    2    1    2    0    0 -0.16922681308E+02 -0.41139839109E+01 -0.41542886804E+02  0.46142318184E+02  0.10000003854E+02 0.  0.
        -12    1    1    2    0    0  0.16922681308E+02  0.41139839109E+01  0.41542886804E+02  0.45045681816E+02  0.00000000000E+00 0.  1.
         11    1    3    3    0    0 -0.57761339924E+01 -0.44682508787E+01 -0.25107028612E+02  0.26147502286E+02  0.51100000000E-03 0. -1.
        -11    1    3    3    0    0 -0.71170124534E+01 -0.69951796297E+00 -0.92897051284E+01  0.11723472748E+02  0.51100000000E-03 0.  1.
         12    1    3    3    0    0 -0.40295348627E+01  0.10537849308E+01 -0.71461530633E+01  0.82713431493E+01  0.00000000000E+00 0. -1.
</event>
<event>
 7    1  0.1486782E-008  0.4614232E+02  0.7816164E-02  0.1320468E+00
        -11   -1    0    0    0    0  0.00000000000E+00  0.00000000000E+00  0.45593999997E+02  0.45594000000E+02  0.51100000000E-03 0. -1.
         11   -1    0    0    0    0 -0.00000000000E+00 -0.00000000000E+00 -0.45593999997E+02  0.45594000000E+02  0.51100000000E-03 0.  1.
    9900012    2    1    2    0    0 -0.10737918574E+02  0.13517094058E+00  0.43746912024E+02  0.46142317875E+02  0.10000001038E+02 0.  0.
        -12    1    1    2    0    0  0.10737918574E+02 -0.13517094058E+00 -0.43746912024E+02  0.45045682125E+02  0.00000000000E+00 0.  1.
         11    1    3    3    0    0 -0.49812839598E+01  0.43341021466E+01  0.15232435963E+02  0.16601949793E+02  0.51100000000E-03 0. -1.
        -11    1    3    3    0    0 -0.48855113019E+01 -0.26314861933E+01  0.16885572532E+02  0.17774011935E+02  0.51100000000E-03 0.  1.
         12    1    3    3    0    0 -0.87112331209E+00 -0.15674450127E+01  0.11628903529E+02  0.11766356147E+02  0.00000000000E+00 0. -1.
</event>
<event>
 7    1  0.1486782E-008  0.4614232E+02  0.7816164E-02  0.1320468E+00
        -11   -1    0    0    0    0  0.00000000000E+00  0.00000000000E+00  0.45593999997E+02  0.45594000000E+02  0.51100000000E-03 0.  1.
         11   -1    0    0    0    0 -0.00000000000E+00 -0.00000000000E+00 -0.45593999997E+02  0.45594000000E+02  0.51100000000E-03 0. -1.
    9900012    2    1    2    0    0  0.42307204228E+02  0.12453984519E+02 -0.91712709578E+01  0.46142317955E+02  0.10000001765E+02 0.  0.
        -12    1    1    2    0    0 -0.42307204228E+02 -0.12453984519E+02  0.91712709578E+01  0.45045682045E+02  0.00000000000E+00 0.  1.
         11    1    3    3    0    0  0.12508344733E+02  0.26312852869E+01  0.71351730194E+00  0.12802009898E+02  0.51100000000E-03 0. -1.
        -11    1    3    3    0    0  0.21820921566E+02  0.46287048437E+01 -0.73965398271E+01  0.23500772928E+02  0.51100000000E-03 0.  1.
        -12    1    3    3    0    0  0.79779379280E+01  0.51939943883E+01 -0.24882484326E+01  0.98395351288E+01  0.00000000000E+00 0.  1.
</event>
<event>
 7    1  0.1486782E-008  0.4614232E+02  0.7816164E-02  0.1320468E+00
        -11   -1    0    0    0    0  0.00000000000E+00  0.00000000000E+00  0.45593999997E+02  0.45594000000E+02  0.51100000000E-03 0.  1.
         11   -1    0    0    0    0 -0.00000000000E+00 -0.00000000000E+00 -0.45593999997E+02  0.45594000000E+02  0.51100000000E-03 0. -1.
    9900012    2    1    2    0    0  0.29201127775E+00 -0.83636660905E+01 -0.44261465734E+02  0.46142317300E+02  0.99999957920E+01 0.  0.
        -12    1    1    2    0    0 -0.29201127775E+00  0.83636660905E+01  0.44261465734E+02  0.45045682700E+02  0.00000000000E+00 0.  1.
         11    1    3    3    0    0  0.19882931230E+01 -0.97169963447E+01 -0.32346795843E+02  0.33833245914E+02  0.51100000000E-03 0. -1.
        -11    1    3    3    0    0 -0.12272539459E+01  0.19104122248E+01 -0.10133524759E+02  0.10384803870E+02  0.51100000000E-03 0.  1.
         12    1    3    3    0    0 -0.46902789931E+00 -0.55708197055E+00 -0.17811451320E+01  0.19242675161E+01  0.00000000000E+00 0. -1.
</event>
<event>
 7    1  0.1486782E-008  0.4614232E+02  0.7816164E-02  0.1320468E+00
        -11   -1    0    0    0    0  0.00000000000E+00  0.00000000000E+00  0.45593999997E+02  0.45594000000E+02  0.51100000000E-03 0. -1.
         11   -1    0    0    0    0 -0.00000000000E+00 -0.00000000000E+00 -0.45593999997E+02  0.45594000000E+02  0.51100000000E-03 0.  1.
    9900012    2    1    2    0    0 -0.31078031651E+02 -0.29768248937E+02 -0.13308673906E+02  0.46142317663E+02  0.99999991078E+01 0.  0.
        -12    1    1    2    0    0  0.31078031651E+02  0.29768248937E+02  0.13308673906E+02  0.45045682337E+02  0.00000000000E+00 0.  1.
         11    1    3    3    0    0 -0.99983256253E+01 -0.77942502247E+01 -0.55774870423E+01  0.13850097972E+02  0.51100000000E-03 0. -1.
        -11    1    3    3    0    0 -0.15340848432E+02 -0.14019747809E+02 -0.85012438232E+01  0.22453643491E+02  0.51100000000E-03 0.  1.
        -12    1    3    3    0    0 -0.57388575935E+01 -0.79542509035E+01  0.77005695993E+00  0.98385761996E+01  0.00000000000E+00 0.  1.
</event>
<event>
 7    1  0.1486782E-008  0.4614232E+02  0.7816164E-02  0.1320468E+00
        -11   -1    0    0    0    0  0.00000000000E+00  0.00000000000E+00  0.45593999997E+02  0.45594000000E+02  0.51100000000E-03 0.  1.
         11   -1    0    0    0    0 -0.00000000000E+00 -0.00000000000E+00 -0.45593999997E+02  0.45594000000E+02  0.51100000000E-03 0. -1.
    9900012    2    1    2    0    0  0.34807676306E+02 -0.15854426611E+02 -0.23794458791E+02  0.46142318274E+02  0.10000004677E+02 0.  0.
        -12    1    1    2    0    0 -0.34807676306E+02  0.15854426611E+02  0.23794458791E+02  0.45045681726E+02  0.00000000000E+00 0.  1.
         11    1    3    3    0    0  0.22538445556E+02 -0.90636156927E+01 -0.10729675282E+02  0.26556667513E+02  0.51100000000E-03 0.  1.
        -11    1    3    3    0    0  0.11448817342E+02 -0.48001901632E+01 -0.11517496846E+02  0.16934284100E+02  0.51100000000E-03 0. -1.
         12    1    3    3    0    0  0.82041340874E+00 -0.19906207547E+01 -0.15472866631E+01  0.26513666604E+01  0.00000000000E+00 0. -1.
</event>
<event>
 7    1  0.1486782E-008  0.4614231E+02  0.7816164E-02  0.1320468E+00
        -11   -1    0    0    0    0  0.00000000000E+00  0.00000000000E+00  0.45593999997E+02  0.45594000000E+02  0.51100000000E-03 0.  1.
         11   -1    0    0    0    0 -0.00000000000E+00 -0.00000000000E+00 -0.45593999997E+02  0.45594000000E+02  0.51100000000E-03 0. -1.
    9900012    2    1    2    0    0 -0.19386249924E+02 -0.40534578097E+02 -0.31992499798E+01  0.46142313103E+02  0.99999575232E+01 0.  0.
        -12    1    1    2    0    0  0.19386249924E+02  0.40534578097E+02  0.31992499798E+01  0.45045686897E+02  0.00000000000E+00 0.  1.
         11    1    3    3    0    0 -0.54695830358E+01 -0.21694395647E+02 -0.30123115509E+01  0.22575144788E+02  0.51100000000E-03 0. -1.
        -11    1    3    3    0    0 -0.70632966715E+01 -0.74356290432E+01  0.16877632553E+00  0.10257057319E+02  0.51100000000E-03 0.  1.
         12    1    3    3    0    0 -0.68533702163E+01 -0.11404553407E+02 -0.35571475445E+00  0.13310110996E+02  0.00000000000E+00 0. -1.
</event>
<event>
 7    1  0.1486782E-008  0.4614232E+02  0.7816164E-02  0.1320468E+00
        -11   -1    0    0    0    0  0.00000000000E+00  0.00000000000E+00  0.45593999997E+02  0.45594000000E+02  0.51100000000E-03 0.  1.
         11   -1    0    0    0    0 -0.00000000000E+00 -0.00000000000E+00 -0.45593999997E+02  0.45594000000E+02  0.51100000000E-03 0. -1.
    9900012    2    1    2    0    0  0.16012545931E+02  0.19867638077E+02 -0.37121271373E+02  0.46142318095E+02  0.10000003043E+02 0.  0.
        -12    1    1    2    0    0 -0.16012545931E+02 -0.19867638077E+02  0.37121271373E+02  0.45045681905E+02  0.00000000000E+00 0.  1.
         11    1    3    3    0    0  0.39586898570E+01  0.34857892669E+01 -0.60776444470E+01  0.80473420757E+01  0.51100000000E-03 0. -1.
        -11    1    3    3    0    0  0.76356940455E+00 -0.10784039826E+00 -0.60265726773E+01  0.60757095291E+01  0.51100000000E-03 0.  1.
        -12    1    3    3    0    0  0.11290286670E+02  0.16489689208E+02 -0.25017054249E+02  0.32019266490E+02  0.00000000000E+00 0.  1.
</event>
<event>
 7    1  0.1486782E-008  0.4614232E+02  0.7816164E-02  0.1320468E+00
        -11   -1    0    0    0    0  0.00000000000E+00  0.00000000000E+00  0.45593999997E+02  0.45594000000E+02  0.51100000000E-03 0.  1.
         11   -1    0    0    0    0 -0.00000000000E+00 -0.00000000000E+00 -0.45593999997E+02  0.45594000000E+02  0.51100000000E-03 0. -1.
    9900012    2    1    2    0    0 -0.10910459749E+02 -0.80103238530E+01 -0.42964055544E+02  0.46142317754E+02  0.99999999381E+01 0.  0.
        -12    1    1    2    0    0  0.10910459749E+02  0.80103238530E+01  0.42964055544E+02  0.45045682246E+02  0.00000000000E+00 0.  1.
         11    1    3    3    0    0 -0.46851144461E+01 -0.32604571308E+01 -0.16901844679E+02  0.17839653356E+02  0.51100000000E-03 0. -1.
        -11    1    3    3    0    0 -0.64922735061E+01 -0.36644191179E+01 -0.26139882437E+02  0.27182182341E+02  0.51100000000E-03 0.  1.
        -12    1    3    3    0    0  0.26692820331E+00 -0.10854476042E+01  0.77671570918E-01  0.11204820571E+01  0.00000000000E+00 0.  1.
</event>
<event>
 7    1  0.1486782E-008  0.4614232E+02  0.7816164E-02  0.1320468E+00
        -11   -1    0    0    0    0  0.00000000000E+00  0.00000000000E+00  0.45593999997E+02  0.45594000000E+02  0.51100000000E-03 0. -1.
         11   -1    0    0    0    0 -0.00000000000E+00 -0.00000000000E+00 -0.45593999997E+02  0.45594000000E+02  0.51100000000E-03 0.  1.
    9900012    2    1    2    0    0  0.34390345255E+02  0.17147449307E+02 -0.23502826465E+02  0.46142315231E+02  0.99999769245E+01 0.  0.
        -12    1    1    2    0    0 -0.34390345255E+02 -0.17147449307E+02  0.23502826465E+02  0.45045684769E+02  0.00000000000E+00 0.  1.
         11    1    3    3    0    0  0.23235815211E+02  0.12757923171E+02 -0.15691903232E+02  0.30804277941E+02  0.51100000000E-03 0. -1.
        -11    1    3    3    0    0  0.60514302645E+00  0.22506329387E+01 -0.21749645579E+01  0.31877919939E+01  0.51100000000E-03 0.  1.
         12    1    3    3    0    0  0.10549387018E+02  0.21388931971E+01 -0.56359586755E+01  0.12150245296E+02  0.00000000000E+00 0. -1.
</event>
<event>
 7    1  0.1486782E-008  0.4614232E+02  0.7816164E-02  0.1320468E+00
        -11   -1    0    0    0    0  0.00000000000E+00  0.00000000000E+00  0.45593999997E+02  0.45594000000E+02  0.51100000000E-03 0.  1.
         11   -1    0    0    0    0 -0.00000000000E+00 -0.00000000000E+00 -0.45593999997E+02  0.45594000000E+02  0.51100000000E-03 0. -1.
    9900012    2    1    2    0    0 -0.29055808006E+02 -0.32844605651E+02 -0.10300749715E+02  0.46142317145E+02  0.99999943777E+01 0.  0.
        -12    1    1    2    0    0  0.29055808006E+02  0.32844605651E+02  0.10300749715E+02  0.45045682855E+02  0.00000000000E+00 0.  1.
         11    1    3    3    0    0 -0.19823625404E+02 -0.19215701912E+02 -0.40071319942E+01  0.27897606191E+02  0.51100000000E-03 0. -1.
        -11    1    3    3    0    0 -0.48003113912E+01 -0.95274349319E+01 -0.20483903295E+01  0.10863282609E+02  0.51100000000E-03 0.  1.
         12    1    3    3    0    0 -0.44318712109E+01 -0.41014688069E+01 -0.42452273914E+01  0.73814283447E+01  0.00000000000E+00 0. -1.
</event>
<event>
 7    1  0.1486782E-008  0.4614232E+02  0.7816164E-02  0.1320468E+00
        -11   -1    0    0    0    0  0.00000000000E+00  0.00000000000E+00  0.45593999997E+02  0.45594000000E+02  0.51100000000E-03 0. -1.
         11   -1    0    0    0    0 -0.00000000000E+00 -0.00000000000E+00 -0.45593999997E+02  0.45594000000E+02  0.51100000000E-03 0.  1.
    9900012    2    1    2    0    0 -0.19243936222E+02 -0.34378173089E+02  0.21838625714E+02  0.46142318305E+02  0.10000004964E+02 0.  0.
        -12    1    1    2    0    0  0.19243936222E+02  0.34378173089E+02 -0.21838625714E+02  0.45045681695E+02  0.00000000000E+00 0.  1.
         11    1    3    3    0    0 -0.49496525874E+01 -0.96017789406E+01  0.44941744829E+01  0.11700035218E+02  0.51100000000E-03 0. -1.
        -11    1    3    3    0    0 -0.14786215321E+02 -0.24395329650E+02  0.15436275916E+02  0.32435210600E+02  0.51100000000E-03 0.  1.
        -12    1    3    3    0    0  0.49193168654E+00 -0.38106449840E+00  0.19081753153E+01  0.20070724875E+01  0.00000000000E+00 0.  1.
</event>
<event>
 7    1  0.1486782E-008  0.4614232E+02  0.7816164E-02  0.1320468E+00
        -11   -1    0    0    0    0  0.00000000000E+00  0.00000000000E+00  0.45593999997E+02  0.45594000000E+02  0.51100000000E-03 0. -1.
         11   -1    0    0    0    0 -0.00000000000E+00 -0.00000000000E+00 -0.45593999997E+02  0.45594000000E+02  0.51100000000E-03 0.  1.
    9900012    2    1    2    0    0  0.37312183812E+02  0.11620965187E+01  0.25210393497E+02  0.46142317972E+02  0.10000001920E+02 0.  0.
        -12    1    1    2    0    0 -0.37312183812E+02 -0.11620965187E+01 -0.25210393497E+02  0.45045682028E+02  0.00000000000E+00 0.  1.
         11    1    3    3    0    0  0.91545869126E+01  0.23729764337E+01  0.10302439445E+02  0.13984911065E+02  0.51100000000E-03 0. -1.
        -11    1    3    3    0    0  0.29600986038E+01  0.42061900936E+00  0.34789683062E+00  0.30100060733E+01  0.51100000000E-03 0.  1.
         12    1    3    3    0    0  0.25197498296E+02 -0.16314989244E+01  0.14560057221E+02  0.29147400834E+02  0.00000000000E+00 0. -1.
</event>
<event>
 7    1  0.1486782E-008  0.4614232E+02  0.7816164E-02  0.1320468E+00
        -11   -1    0    0    0    0  0.00000000000E+00  0.00000000000E+00  0.45593999997E+02  0.45594000000E+02  0.51100000000E-03 0. -1.
         11   -1    0    0    0    0 -0.00000000000E+00 -0.00000000000E+00 -0.45593999997E+02  0.45594000000E+02  0.51100000000E-03 0.  1.
    9900012    2    1    2    0    0  0.23972112286E+02  0.37565046388E+02 -0.65816834321E+01  0.46142318360E+02  0.10000005461E+02 0.  0.
        -12    1    1    2    0    0 -0.23972112286E+02 -0.37565046388E+02  0.65816834321E+01  0.45045681640E+02  0.00000000000E+00 0.  1.
         11    1    3    3    0    0  0.43757968741E+01  0.74299670481E+01  0.12946785671E+01  0.87194152025E+01  0.51100000000E-03 0. -1.
        -11    1    3    3    0    0  0.61464473498E+01  0.14175542439E+02 -0.11450300053E+01  0.15493092411E+02  0.51100000000E-03 0.  1.
        -12    1    3    3    0    0  0.13449868062E+02  0.15959536901E+02 -0.67313319940E+01  0.21929810747E+02  0.00000000000E+00 0.  1.
</event>
<event>
 7    1  0.1486782E-008  0.4614232E+02  0.7816164E-02  0.1320468E+00
        -11   -1    0    0    0    0  0.00000000000E+00  0.00000000000E+00  0.45593999997E+02  0.45594000000E+02  0.51100000000E-03 0.  1.
         11   -1    0    0    0    0 -0.00000000000E+00 -0.00000000000E+00 -0.45593999997E+02  0.45594000000E+02  0.51100000000E-03 0. -1.
    9900012    2    1    2    0    0 -0.29752440185E+01  0.40280743587E+01 -0.44766458535E+02  0.46142320188E+02  0.10000022126E+02 0.  0.
        -12    1    1    2    0    0  0.29752440185E+01 -0.40280743587E+01  0.44766458535E+02  0.45045679812E+02  0.00000000000E+00 0.  1.
         11    1    3    3    0    0  0.22806363814E+01  0.23812710936E+01 -0.12865760415E+02  0.13281549068E+02  0.51100000000E-03 0. -1.
        -11    1    3    3    0    0  0.64322274341E+00  0.14340149384E+01 -0.12017571563E+02  0.12119907626E+02  0.51100000000E-03 0.  1.
         12    1    3    3    0    0 -0.58991031434E+01  0.21278832670E+00 -0.19883126557E+02  0.20740863493E+02  0.00000000000E+00 0. -1.
</event>
<event>
 7    1  0.1486782E-008  0.4614232E+02  0.7816164E-02  0.1320468E+00
        -11   -1    0    0    0    0  0.00000000000E+00  0.00000000000E+00  0.45593999997E+02  0.45594000000E+02  0.51100000000E-03 0.  1.
         11   -1    0    0    0    0 -0.00000000000E+00 -0.00000000000E+00 -0.45593999997E+02  0.45594000000E+02  0.51100000000E-03 0. -1.
    9900012    2    1    2    0    0 -0.67851439160E+01 -0.25511462681E+02 -0.36499872024E+02  0.46142316923E+02  0.99999923600E+01 0.  0.
        -12    1    1    2    0    0  0.67851439160E+01  0.25511462681E+02  0.36499872024E+02  0.45045683077E+02  0.00000000000E+00 0.  1.
         11    1    3    3    0    0 -0.66582929473E+00 -0.10141210749E+02 -0.13243847528E+02  0.16693920501E+02  0.51100000000E-03 0. -1.
        -11    1    3    3    0    0 -0.44463386273E+01 -0.12152179877E+02 -0.22156483229E+02  0.25658432382E+02  0.51100000000E-03 0.  1.
        -12    1    3    3    0    0 -0.16729759939E+01 -0.32180720546E+01 -0.10995412669E+01  0.37899640398E+01  0.00000000000E+00 0.  1.
</event>
<event>
 7    1  0.1486782E-008  0.4614232E+02  0.7816164E-02  0.1320468E+00
        -11   -1    0    0    0    0  0.00000000000E+00  0.00000000000E+00  0.45593999997E+02  0.45594000000E+02  0.51100000000E-03 0. -1.
         11   -1    0    0    0    0 -0.00000000000E+00 -0.00000000000E+00 -0.45593999997E+02  0.45594000000E+02  0.51100000000E-03 0.  1.
    9900012    2    1    2    0    0  0.16126118813E+02 -0.18278012179E+02  0.37881077345E+02  0.46142318098E+02  0.10000003072E+02 0.  0.
        -12    1    1    2    0    0 -0.16126118813E+02  0.18278012179E+02 -0.37881077345E+02  0.45045681902E+02  0.00000000000E+00 0.  1.
         11    1    3    3    0    0  0.24304366218E+01  0.15584087809E+00  0.40905721992E+01  0.47606816455E+01  0.51100000000E-03 0. -1.
        -11    1    3    3    0    0  0.53597378093E+01 -0.40672096676E+01  0.14086146143E+02  0.15610525209E+02  0.51100000000E-03 0.  1.
        -12    1    3    3    0    0  0.83359443822E+01 -0.14366643390E+02  0.19704359002E+02  0.25771111244E+02  0.00000000000E+00 0.  1.
</event>
<event>
 7    1  0.1486782E-008  0.4614232E+02  0.7816164E-02  0.1320468E+00
        -11   -1    0    0    0    0  0.00000000000E+00  0.00000000000E+00  0.45593999997E+02  0.45594000000E+02  0.51100000000E-03 0. -1.
         11   -1    0    0    0    0 -0.00000000000E+00 -0.00000000000E+00 -0.45593999997E+02  0.45594000000E+02  0.51100000000E-03 0.  1.
    9900012    2    1    2    0    0 -0.34479376209E+02 -0.85108550386E+01  0.27710133182E+02  0.46142317430E+02  0.99999969826E+01 0.  0.
        -12    1    1    2    0    0  0.34479376209E+02  0.85108550386E+01 -0.27710133182E+02  0.45045682570E+02  0.00000000000E+00 0.  1.
         11    1    3    3    0    0 -0.12091697332E+02 -0.29284201512E+01  0.11757564210E+02  0.17117976088E+02  0.51100000000E-03 0. -1.
        -11    1    3    3    0    0 -0.17532575742E+02 -0.32709527438E+01  0.83009521904E+01  0.19672217758E+02  0.51100000000E-03 0.  1.
        -12    1    3    3    0    0 -0.48551031341E+01 -0.23114821437E+01  0.76516167818E+01  0.93521235834E+01  0.00000000000E+00 0.  1.
</event>
<event>
 7    1  0.1486782E-008  0.4614232E+02  0.7816164E-02  0.1320468E+00
        -11   -1    0    0    0    0  0.00000000000E+00  0.00000000000E+00  0.45593999997E+02  0.45594000000E+02  0.51100000000E-03 0.  1.
         11   -1    0    0    0    0 -0.00000000000E+00 -0.00000000000E+00 -0.45593999997E+02  0.45594000000E+02  0.51100000000E-03 0. -1.
    9900012    2    1    2    0    0 -0.29565886302E+02  0.19399422065E+02 -0.27904018596E+02  0.46142318042E+02  0.10000002562E+02 0.  0.
        -12    1    1    2    0    0  0.29565886302E+02 -0.19399422065E+02  0.27904018596E+02  0.45045681958E+02  0.00000000000E+00 0.  1.
         11    1    3    3    0    0 -0.87226417791E+01  0.26550646774E+01 -0.81115240842E+01  0.12203715470E+02  0.51100000000E-03 0. -1.
        -11    1    3    3    0    0 -0.50653189484E+01  0.33723360408E+01 -0.13616575920E+01  0.62357211356E+01  0.51100000000E-03 0.  1.
        -12    1    3    3    0    0 -0.15777925574E+02  0.13372021347E+02 -0.18430836919E+02  0.27702881436E+02  0.00000000000E+00 0.  1.
</event>
<event>
 7    1  0.1486782E-008  0.4614233E+02  0.7816164E-02  0.1320468E+00
        -11   -1    0    0    0    0  0.00000000000E+00  0.00000000000E+00  0.45593999997E+02  0.45594000000E+02  0.51100000000E-03 0. -1.
         11   -1    0    0    0    0 -0.00000000000E+00 -0.00000000000E+00 -0.45593999997E+02  0.45594000000E+02  0.51100000000E-03 0.  1.
    9900012    2    1    2    0    0 -0.36664565541E+02 -0.16691971972E+02 -0.20154408966E+02  0.46142328783E+02  0.10000100508E+02 0.  0.
        -12    1    1    2    0    0  0.36664565541E+02  0.16691971972E+02  0.20154408966E+02  0.45045671217E+02  0.00000000000E+00 0.  1.
         11    1    3    3    0    0 -0.11012029354E+02 -0.84594440796E+00 -0.73375539625E+01  0.13259717601E+02  0.51100000000E-03 0. -1.
        -11    1    3    3    0    0 -0.11941010985E+02 -0.78896932432E+01 -0.46408741346E+01  0.15045687615E+02  0.51100000000E-03 0.  1.
         12    1    3    3    0    0 -0.13711525202E+02 -0.79563343210E+01 -0.81759808690E+01  0.17836923568E+02  0.00000000000E+00 0. -1.
</event>
<event>
 7    1  0.1486782E-008  0.4614232E+02  0.7816164E-02  0.1320468E+00
        -11   -1    0    0    0    0  0.00000000000E+00  0.00000000000E+00  0.45593999997E+02  0.45594000000E+02  0.51100000000E-03 0.  1.
         11   -1    0    0    0    0 -0.00000000000E+00 -0.00000000000E+00 -0.45593999997E+02  0.45594000000E+02  0.51100000000E-03 0. -1.
    9900012    2    1    2    0    0 -0.33142148310E+02  0.23800401834E+01 -0.30414581953E+02  0.46142318950E+02  0.10000010841E+02 0.  0.
        -12    1    1    2    0    0  0.33142148310E+02 -0.23800401834E+01  0.30414581953E+02  0.45045681050E+02  0.00000000000E+00 0.  1.
         11    1    3    3    0    0 -0.88000589532E+01 -0.16278625813E+01 -0.61383154969E+01  0.10852183723E+02  0.51100000000E-03 0. -1.
        -11    1    3    3    0    0 -0.17067324346E+00  0.21813268728E+00  0.43495943932E+00  0.51565608720E+00  0.51100000000E-03 0.  1.
         12    1    3    3    0    0 -0.24171416114E+02  0.37897700774E+01 -0.24711225895E+02  0.34774479140E+02  0.00000000000E+00 0. -1.
</event>
<event>
 7    1  0.1486782E-008  0.4614232E+02  0.7816164E-02  0.1320468E+00
        -11   -1    0    0    0    0  0.00000000000E+00  0.00000000000E+00  0.45593999997E+02  0.45594000000E+02  0.51100000000E-03 0. -1.
         11   -1    0    0    0    0 -0.00000000000E+00 -0.00000000000E+00 -0.45593999997E+02  0.45594000000E+02  0.51100000000E-03 0.  1.
    9900012    2    1    2    0    0 -0.92123661418E+01 -0.17407087221E+01  0.44059226353E+02  0.46142321144E+02  0.10000030844E+02 0.  0.
        -12    1    1    2    0    0  0.92123661418E+01  0.17407087221E+01 -0.44059226353E+02  0.45045678856E+02  0.00000000000E+00 0.  1.
         11    1    3    3    0    0 -0.58548081540E+01 -0.16296360262E+01  0.31576149529E+02  0.32155679303E+02  0.51100000000E-03 0. -1.
        -11    1    3    3    0    0 -0.69338556059E+00  0.23042905354E+01  0.72352778758E+01  0.76249448922E+01  0.51100000000E-03 0.  1.
         12    1    3    3    0    0 -0.26641724272E+01 -0.24153632314E+01  0.52477989489E+01  0.63616969488E+01  0.00000000000E+00 0. -1.
</event>
<event>
 7    1  0.1486782E-008  0.4614232E+02  0.7816164E-02  0.1320468E+00
        -11   -1    0    0    0    0  0.00000000000E+00  0.00000000000E+00  0.45593999997E+02  0.45594000000E+02  0.51100000000E-03 0. -1.
         11   -1    0    0    0    0 -0.00000000000E+00 -0.00000000000E+00 -0.45593999997E+02  0.45594000000E+02  0.51100000000E-03 0.  1.
    9900012    2    1    2    0    0 -0.11277633603E+00  0.33753069240E+01  0.44918906888E+02  0.46142316396E+02  0.99999875548E+01 0.  0.
        -12    1    1    2    0    0  0.11277633603E+00 -0.33753069240E+01 -0.44918906888E+02  0.45045683604E+02  0.00000000000E+00 0.  1.
         11    1    3    3    0    0  0.21426765544E+01 -0.40408361506E+00  0.33184585205E+01  0.39707069394E+01  0.51100000000E-03 0. -1.
        -11    1    3    3    0    0  0.12697784785E+01 -0.50695579591E+00  0.81086184473E+01  0.82230794079E+01  0.51100000000E-03 0.  1.
         12    1    3    3    0    0 -0.35252313689E+01  0.42863463350E+01  0.33491829920E+02  0.33948530049E+02  0.00000000000E+00 0. -1.
</event>
<event>
 7    1  0.1486782E-008  0.4614232E+02  0.7816164E-02  0.1320468E+00
        -11   -1    0    0    0    0  0.00000000000E+00  0.00000000000E+00  0.45593999997E+02  0.45594000000E+02  0.51100000000E-03 0. -1.
         11   -1    0    0    0    0 -0.00000000000E+00 -0.00000000000E+00 -0.45593999997E+02  0.45594000000E+02  0.51100000000E-03 0.  1.
    9900012    2    1    2    0    0 -0.29896616717E+02 -0.29571969411E+02  0.16149439850E+02  0.46142317927E+02  0.10000001511E+02 0.  0.
        -12    1    1    2    0    0  0.29896616717E+02  0.29571969411E+02 -0.16149439850E+02  0.45045682073E+02  0.00000000000E+00 0.  1.
         11    1    3    3    0    0 -0.16406161479E+02 -0.15532276597E+02  0.46896312167E+01  0.23073933171E+02  0.51100000000E-03 0. -1.
        -11    1    3    3    0    0 -0.20956514364E+01 -0.37620630122E+01  0.78962192005E+00  0.43781704043E+01  0.51100000000E-03 0.  1.
         12    1    3    3    0    0 -0.11394803802E+02 -0.10277629802E+02  0.10670186713E+02  0.18690214352E+02  0.00000000000E+00 0. -1.
</event>
<event>
 7    1  0.1486782E-008  0.4614232E+02  0.7816164E-02  0.1320468E+00
        -11   -1    0    0    0    0  0.00000000000E+00  0.00000000000E+00  0.45593999997E+02  0.45594000000E+02  0.51100000000E-03 0.  1.
         11   -1    0    0    0    0 -0.00000000000E+00 -0.00000000000E+00 -0.45593999997E+02  0.45594000000E+02  0.51100000000E-03 0. -1.
    9900012    2    1    2    0    0 -0.93317387684E+01  0.30991821693E+02 -0.31329526192E+02  0.46142316836E+02  0.99999915597E+01 0.  0.
        -12    1    1    2    0    0  0.93317387684E+01 -0.30991821693E+02  0.31329526192E+02  0.45045683164E+02  0.00000000000E+00 0.  1.
         11    1    3    3    0    0 -0.20647626348E+01  0.86593282828E+00 -0.32787526592E+01  0.39703027167E+01  0.51100000000E-03 0. -1.
        -11    1    3    3    0    0 -0.24220616446E+00  0.37104146462E+01 -0.13345912508E+01  0.39505663823E+01  0.51100000000E-03 0.  1.
         12    1    3    3    0    0 -0.70247699691E+01  0.26415474219E+02 -0.26716182282E+02  0.38221447737E+02  0.00000000000E+00 0. -1.
</event>
<event>
 7    1  0.1486782E-008  0.4614232E+02  0.7816164E-02  0.1320468E+00
        -11   -1    0    0    0    0  0.00000000000E+00  0.00000000000E+00  0.45593999997E+02  0.45594000000E+02  0.51100000000E-03 0.  1.
         11   -1    0    0    0    0 -0.00000000000E+00 -0.00000000000E+00 -0.45593999997E+02  0.45594000000E+02  0.51100000000E-03 0. -1.
    9900012    2    1    2    0    0  0.17958689496E+02 -0.28258742783E+02 -0.30133745938E+02  0.46142315231E+02  0.99999769261E+01 0.  0.
        -12    1    1    2    0    0 -0.17958689496E+02  0.28258742783E+02  0.30133745938E+02  0.45045684769E+02  0.00000000000E+00 0.  1.
         11    1    3    3    0    0  0.15967222020E+02 -0.24942014734E+02 -0.23541726893E+02  0.37832118410E+02  0.51100000000E-03 0. -1.
        -11    1    3    3    0    0  0.99269658578E+00  0.81531261578E-01 -0.33972829789E+01  0.35402861125E+01  0.51100000000E-03 0.  1.
         12    1    3    3    0    0  0.99877088970E+00 -0.33982593106E+01 -0.31947360663E+01  0.47699107083E+01  0.00000000000E+00 0. -1.
</event>
<event>
 7    1  0.1486782E-008  0.4614232E+02  0.7816164E-02  0.1320468E+00
        -11   -1    0    0    0    0  0.00000000000E+00  0.00000000000E+00  0.45593999997E+02  0.45594000000E+02  0.51100000000E-03 0. -1.
         11   -1    0    0    0    0 -0.00000000000E+00 -0.00000000000E+00 -0.45593999997E+02  0.45594000000E+02  0.51100000000E-03 0.  1.
    9900012    2    1    2    0    0 -0.14051322402E+02 -0.21153625938E+02  0.37204809892E+02  0.46142318401E+02  0.10000005834E+02 0.  0.
        -12    1    1    2    0    0  0.14051322402E+02  0.21153625938E+02 -0.37204809892E+02  0.45045681599E+02  0.00000000000E+00 0.  1.
         11    1    3    3    0    0 -0.13186200113E+02 -0.19397449823E+02  0.31729393675E+02  0.39457462619E+02  0.51100000000E-03 0. -1.
        -11    1    3    3    0    0  0.51706929908E+00 -0.19083250438E+00 -0.23906468346E+00  0.60077440756E+00  0.51100000000E-03 0.  1.
        -12    1    3    3    0    0 -0.13821915880E+01 -0.15653436111E+01  0.57144809005E+01  0.60840813743E+01  0.00000000000E+00 0.  1.
</event>
<event>
 7    1  0.1486782E-008  0.4614232E+02  0.7816164E-02  0.1320468E+00
        -11   -1    0    0    0    0  0.00000000000E+00  0.00000000000E+00  0.45593999997E+02  0.45594000000E+02  0.51100000000E-03 0.  1.
         11   -1    0    0    0    0 -0.00000000000E+00 -0.00000000000E+00 -0.45593999997E+02  0.45594000000E+02  0.51100000000E-03 0. -1.
    9900012    2    1    2    0    0  0.92802127186E+00 -0.29370361770E+02 -0.34141384442E+02  0.46142317570E+02  0.99999982549E+01 0.  0.
        -12    1    1    2    0    0 -0.92802127186E+00  0.29370361770E+02  0.34141384442E+02  0.45045682430E+02  0.00000000000E+00 0.  1.
         11    1    3    3    0    0  0.16485267947E+01 -0.17603025063E+02 -0.20939713108E+02  0.27405395769E+02  0.51100000000E-03 0. -1.
        -11    1    3    3    0    0 -0.26057542981E+01 -0.42552786959E+01 -0.26555937550E+01  0.56523915907E+01  0.51100000000E-03 0.  1.
        -12    1    3    3    0    0  0.18852487752E+01 -0.75120580113E+01 -0.10546077579E+02  0.13084530210E+02  0.00000000000E+00 0.  1.
</event>
<event>
 7    1  0.1486782E-008  0.4614232E+02  0.7816164E-02  0.1320468E+00
        -11   -1    0    0    0    0  0.00000000000E+00  0.00000000000E+00  0.45593999997E+02  0.45594000000E+02  0.51100000000E-03 0.  1.
         11   -1    0    0    0    0 -0.00000000000E+00 -0.00000000000E+00 -0.45593999997E+02  0.45594000000E+02  0.51100000000E-03 0. -1.
    9900012    2    1    2    0    0 -0.44850293409E+02  0.36264602449E+00 -0.41753046226E+01  0.46142317636E+02  0.99999988563E+01 0.  0.
        -12    1    1    2    0    0  0.44850293409E+02 -0.36264602449E+00  0.41753046226E+01  0.45045682364E+02  0.00000000000E+00 0.  1.
         11    1    3    3    0    0 -0.46936677964E+01 -0.18135206771E+01 -0.16213813044E+01  0.52866106557E+01  0.51100000000E-03 0. -1.
        -11    1    3    3    0    0 -0.19099416971E+02  0.43360898739E+01 -0.54684217886E+00  0.19593071241E+02  0.51100000000E-03 0.  1.
        -12    1    3    3    0    0 -0.21057208641E+02 -0.21599231723E+01 -0.20070811393E+01  0.21262635739E+02  0.00000000000E+00 0.  1.
</event>
<event>
 7    1  0.1488429E-008  0.4614232E+02  0.7816164E-02  0.1320468E+00
        -11   -1    0    0    0    0  0.00000000000E+00  0.00000000000E+00  0.45593999997E+02  0.45594000000E+02  0.51100000000E-03 0.  1.
         11   -1    0    0    0    0 -0.00000000000E+00 -0.00000000000E+00 -0.45593999997E+02  0.45594000000E+02  0.51100000000E-03 0. -1.
    9900012    2    1    2    0    0 -0.49045947353E+01 -0.34912068025E+02 -0.28039363919E+02  0.46142317939E+02  0.10000001623E+02 0.  0.
        -12    1    1    2    0    0  0.49045947353E+01  0.34912068025E+02  0.28039363919E+02  0.45045682061E+02  0.00000000000E+00 0.  1.
         11    1    3    3    0    0 -0.31140774931E+01 -0.25429013381E+02 -0.17644572520E+02  0.31107284354E+02  0.51100000000E-03 0. -1.
        -11    1    3    3    0    0 -0.48870602809E+00 -0.81181318809E+00  0.48272533882E+00  0.10634369977E+01  0.51100000000E-03 0.  1.
         12    1    3    3    0    0 -0.13018112142E+01 -0.86712414565E+01 -0.10877516738E+02  0.13971596588E+02  0.00000000000E+00 0. -1.
</event>
<event>
 7    1  0.1486782E-008  0.4614232E+02  0.7816164E-02  0.1320468E+00
        -11   -1    0    0    0    0  0.00000000000E+00  0.00000000000E+00  0.45593999997E+02  0.45594000000E+02  0.51100000000E-03 0.  1.
         11   -1    0    0    0    0 -0.00000000000E+00 -0.00000000000E+00 -0.45593999997E+02  0.45594000000E+02  0.51100000000E-03 0. -1.
    9900012    2    1    2    0    0  0.14383232874E+02 -0.38953565036E+02 -0.17460112840E+02  0.46142321436E+02  0.10000033510E+02 0.  0.
        -12    1    1    2    0    0 -0.14383232874E+02  0.38953565036E+02  0.17460112840E+02  0.45045678564E+02  0.00000000000E+00 0.  1.
         11    1    3    3    0    0  0.46485109563E+01 -0.14993063420E+02 -0.83479540909E+01  0.17778890364E+02  0.51100000000E-03 0. -1.
        -11    1    3    3    0    0  0.47929143637E+01 -0.39796235750E+01 -0.14152156574E+01  0.63884479739E+01  0.51100000000E-03 0.  1.
        -12    1    3    3    0    0  0.49418075536E+01 -0.19980878041E+02 -0.76969430921E+01  0.21974983098E+02  0.00000000000E+00 0.  1.
</event>
<event>
 7    1  0.1486782E-008  0.4614232E+02  0.7816164E-02  0.1320468E+00
        -11   -1    0    0    0    0  0.00000000000E+00  0.00000000000E+00  0.45593999997E+02  0.45594000000E+02  0.51100000000E-03 0.  1.
         11   -1    0    0    0    0 -0.00000000000E+00 -0.00000000000E+00 -0.45593999997E+02  0.45594000000E+02  0.51100000000E-03 0. -1.
    9900012    2    1    2    0    0 -0.39336683484E+02 -0.45917994068E+01 -0.21462856564E+02  0.46142317619E+02  0.99999986998E+01 0.  0.
        -12    1    1    2    0    0  0.39336683484E+02  0.45917994068E+01  0.21462856564E+02  0.45045682381E+02  0.00000000000E+00 0.  1.
         11    1    3    3    0    0 -0.98526892524E+01 -0.30005436930E+01 -0.45565578697E+01  0.11262369548E+02  0.51100000000E-03 0. -1.
        -11    1    3    3    0    0 -0.13322585687E+02 -0.84562350653E+00 -0.33267993665E+01  0.13757687407E+02  0.51100000000E-03 0.  1.
        -12    1    3    3    0    0 -0.16161408545E+02 -0.74563220728E+00 -0.13579499328E+02  0.21122260664E+02  0.00000000000E+00 0.  1.
</event>
<event>
 7    1  0.1486782E-008  0.4614232E+02  0.7816164E-02  0.1320468E+00
        -11   -1    0    0    0    0  0.00000000000E+00  0.00000000000E+00  0.45593999997E+02  0.45594000000E+02  0.51100000000E-03 0.  1.
         11   -1    0    0    0    0 -0.00000000000E+00 -0.00000000000E+00 -0.45593999997E+02  0.45594000000E+02  0.51100000000E-03 0. -1.
    9900012    2    1    2    0    0  0.33464941424E+02 -0.27160106084E+02  0.13097328737E+02  0.46142315556E+02  0.99999798916E+01 0.  0.
        -12    1    1    2    0    0 -0.33464941424E+02  0.27160106084E+02 -0.13097328737E+02  0.45045684444E+02  0.00000000000E+00 0.  1.
         11    1    3    3    0    0  0.15378282348E+02 -0.11924829616E+02  0.80106234341E+01  0.21044315560E+02  0.51100000000E-03 0. -1.
        -11    1    3    3    0    0  0.14767980901E+02 -0.13948807849E+02  0.64088368750E+01  0.21301072523E+02  0.51100000000E-03 0.  1.
        -12    1    3    3    0    0  0.33186781744E+01 -0.12864686196E+01 -0.13221315721E+01  0.37969274721E+01  0.00000000000E+00 0.  1.
</event>
<event>
 7    1  0.1486782E-008  0.4614232E+02  0.7816164E-02  0.1320468E+00
        -11   -1    0    0    0    0  0.00000000000E+00  0.00000000000E+00  0.45593999997E+02  0.45594000000E+02  0.51100000000E-03 0.  1.
         11   -1    0    0    0    0 -0.00000000000E+00 -0.00000000000E+00 -0.45593999997E+02  0.45594000000E+02  0.51100000000E-03 0. -1.
    9900012    2    1    2    0    0 -0.99997078244E+00 -0.67911428223E+01 -0.44519590360E+02  0.46142317763E+02  0.10000000016E+02 0.  0.
        -12    1    1    2    0    0  0.99997078244E+00  0.67911428223E+01  0.44519590360E+02  0.45045682237E+02  0.00000000000E+00 0.  1.
         11    1    3    3    0    0  0.14408776763E+01 -0.20699038326E+01 -0.26691630405E+02  0.26810515927E+02  0.51100000000E-03 0. -1.
        -11    1    3    3    0    0  0.95698958278E+00 -0.31102195943E+01 -0.50135693494E+01  0.59770538620E+01  0.51100000000E-03 0.  1.
        -12    1    3    3    0    0 -0.33978380415E+01 -0.16110193953E+01 -0.12814390606E+02  0.13354747974E+02  0.00000000000E+00 0.  1.
</event>
<event>
 7    1  0.1486782E-008  0.4614232E+02  0.7816164E-02  0.1320468E+00
        -11   -1    0    0    0    0  0.00000000000E+00  0.00000000000E+00  0.45593999997E+02  0.45594000000E+02  0.51100000000E-03 0. -1.
         11   -1    0    0    0    0 -0.00000000000E+00 -0.00000000000E+00 -0.45593999997E+02  0.45594000000E+02  0.51100000000E-03 0.  1.
    9900012    2    1    2    0    0 -0.94913563113E+01  0.43761048964E+02  0.48987867945E+01  0.46142319151E+02  0.10000012674E+02 0.  0.
        -12    1    1    2    0    0  0.94913563113E+01 -0.43761048964E+02 -0.48987867945E+01  0.45045680849E+02  0.00000000000E+00 0.  1.
         11    1    3    3    0    0 -0.55307759884E+01  0.32721388586E+02  0.83771818453E+00  0.33196092030E+02  0.51100000000E-03 0. -1.
        -11    1    3    3    0    0 -0.94883572147E+00  0.40316109370E+00  0.10877585035E+01  0.14986817264E+01  0.51100000000E-03 0.  1.
         12    1    3    3    0    0 -0.30117446014E+01  0.10636499285E+02  0.29733101064E+01  0.11447545395E+02  0.00000000000E+00 0. -1.
</event>
<event>
 7    1  0.1486782E-008  0.4614232E+02  0.7816164E-02  0.1320468E+00
        -11   -1    0    0    0    0  0.00000000000E+00  0.00000000000E+00  0.45593999997E+02  0.45594000000E+02  0.51100000000E-03 0. -1.
         11   -1    0    0    0    0 -0.00000000000E+00 -0.00000000000E+00 -0.45593999997E+02  0.45594000000E+02  0.51100000000E-03 0.  1.
    9900012    2    1    2    0    0  0.35596795075E+02 -0.26626749205E+02  0.72799580201E+01  0.46142318946E+02  0.10000010808E+02 0.  0.
        -12    1    1    2    0    0 -0.35596795075E+02  0.26626749205E+02 -0.72799580201E+01  0.45045681054E+02  0.00000000000E+00 0.  1.
         11    1    3    3    0    0  0.17706532957E+02 -0.14453870593E+02  0.18345226661E+01  0.22930354514E+02  0.51100000000E-03 0. -1.
        -11    1    3    3    0    0  0.87479344048E+01 -0.24622936330E+01  0.34775035072E+01  0.97304818580E+01  0.51100000000E-03 0.  1.
        -12    1    3    3    0    0  0.91423277132E+01 -0.97105849788E+01  0.19679318468E+01  0.13481482574E+02  0.00000000000E+00 0.  1.
</event>
<event>
 7    1  0.1486782E-008  0.4614232E+02  0.7816164E-02  0.1320468E+00
        -11   -1    0    0    0    0  0.00000000000E+00  0.00000000000E+00  0.45593999997E+02  0.45594000000E+02  0.51100000000E-03 0.  1.
         11   -1    0    0    0    0 -0.00000000000E+00 -0.00000000000E+00 -0.45593999997E+02  0.45594000000E+02  0.51100000000E-03 0. -1.
    9900012    2    1    2    0    0  0.39059938375E+02  0.22234673540E+02 -0.30089804426E+01  0.46142318113E+02  0.10000003211E+02 0.  0.
        -12    1    1    2    0    0 -0.39059938375E+02 -0.22234673540E+02  0.30089804426E+01  0.45045681887E+02  0.00000000000E+00 0.  1.
         11    1    3    3    0    0  0.46368901898E+01  0.22729100354E+01  0.26300260341E-01  0.51640645452E+01  0.51100000000E-03 0. -1.
        -11    1    3    3    0    0  0.92261110168E+01  0.98604871807E+01 -0.29953102967E+01  0.13831927413E+02  0.51100000000E-03 0.  1.
        -12    1    3    3    0    0  0.25196937169E+02  0.10101276324E+02 -0.39970406176E-01  0.27146326155E+02  0.00000000000E+00 0.  1.
</event>
<event>
 7    1  0.1486782E-008  0.4614232E+02  0.7816164E-02  0.1320468E+00
        -11   -1    0    0    0    0  0.00000000000E+00  0.00000000000E+00  0.45593999997E+02  0.45594000000E+02  0.51100000000E-03 0.  1.
         11   -1    0    0    0    0 -0.00000000000E+00 -0.00000000000E+00 -0.45593999997E+02  0.45594000000E+02  0.51100000000E-03 0. -1.
    9900012    2    1    2    0    0 -0.29498362983E+02 -0.30678174862E+02 -0.14758382780E+02  0.46142315481E+02  0.99999792084E+01 0.  0.
        -12    1    1    2    0    0  0.29498362983E+02  0.30678174862E+02  0.14758382780E+02  0.45045684519E+02  0.00000000000E+00 0.  1.
         11    1    3    3    0    0 -0.11970978940E+02 -0.92934039276E+01 -0.33245185900E+01  0.15515286574E+02  0.51100000000E-03 0. -1.
        -11    1    3    3    0    0 -0.16236128395E+02 -0.21255350552E+02 -0.11863621277E+02  0.29259994915E+02  0.51100000000E-03 0.  1.
        -12    1    3    3    0    0 -0.12912556476E+01 -0.12942038193E+00  0.42975708697E+00  0.13670339925E+01  0.00000000000E+00 0.  1.
</event>
<event>
 7    1  0.1486782E-008  0.4614232E+02  0.7816164E-02  0.1320468E+00
        -11   -1    0    0    0    0  0.00000000000E+00  0.00000000000E+00  0.45593999997E+02  0.45594000000E+02  0.51100000000E-03 0.  1.
         11   -1    0    0    0    0 -0.00000000000E+00 -0.00000000000E+00 -0.45593999997E+02  0.45594000000E+02  0.51100000000E-03 0. -1.
    9900012    2    1    2    0    0  0.17361374335E+02 -0.65074130091E+01 -0.41053011794E+02  0.46142317407E+02  0.99999967753E+01 0.  0.
        -12    1    1    2    0    0 -0.17361374335E+02  0.65074130091E+01  0.41053011794E+02  0.45045682593E+02  0.00000000000E+00 0.  1.
         11    1    3    3    0    0  0.36274923702E+01 -0.29134484822E+01 -0.15275695476E+02  0.15968523898E+02  0.51100000000E-03 0. -1.
        -11    1    3    3    0    0  0.29457962594E+01  0.17068970568E+01 -0.36426521138E+01  0.49859931656E+01  0.51100000000E-03 0.  1.
         12    1    3    3    0    0  0.10788085705E+02 -0.53008615838E+01 -0.22134664205E+02  0.25187800344E+02  0.00000000000E+00 0. -1.
</event>
<event>
 7    1  0.1486782E-008  0.4614232E+02  0.7816164E-02  0.1320468E+00
        -11   -1    0    0    0    0  0.00000000000E+00  0.00000000000E+00  0.45593999997E+02  0.45594000000E+02  0.51100000000E-03 0. -1.
         11   -1    0    0    0    0 -0.00000000000E+00 -0.00000000000E+00 -0.45593999997E+02  0.45594000000E+02  0.51100000000E-03 0.  1.
    9900012    2    1    2    0    0 -0.27600169080E+02  0.15793184238E+02  0.31904853111E+02  0.46142315926E+02  0.99999832702E+01 0.  0.
        -12    1    1    2    0    0  0.27600169080E+02 -0.15793184238E+02 -0.31904853111E+02  0.45045684074E+02  0.00000000000E+00 0.  1.
         11    1    3    3    0    0 -0.84337541430E+01  0.99289434698E+00  0.10557201155E+02  0.13548746976E+02  0.51100000000E-03 0. -1.
        -11    1    3    3    0    0 -0.11444812324E+02  0.10765012472E+02  0.11669721171E+02  0.19571704452E+02  0.51100000000E-03 0.  1.
         12    1    3    3    0    0 -0.77216026130E+01  0.40352774188E+01  0.96779307841E+01  0.13021864499E+02  0.00000000000E+00 0. -1.
</event>
<event>
 7    1  0.1486782E-008  0.4614232E+02  0.7816164E-02  0.1320468E+00
        -11   -1    0    0    0    0  0.00000000000E+00  0.00000000000E+00  0.45593999997E+02  0.45594000000E+02  0.51100000000E-03 0.  1.
         11   -1    0    0    0    0 -0.00000000000E+00 -0.00000000000E+00 -0.45593999997E+02  0.45594000000E+02  0.51100000000E-03 0. -1.
    9900012    2    1    2    0    0 -0.75183398017E-01  0.52273604326E+01 -0.44741283980E+02  0.46142318278E+02  0.10000004715E+02 0.  0.
        -12    1    1    2    0    0  0.75183398017E-01 -0.52273604326E+01  0.44741283980E+02  0.45045681722E+02  0.00000000000E+00 0.  1.
         11    1    3    3    0    0 -0.24946574643E+01 -0.47667355623E+00 -0.13138364370E+02  0.13381597518E+02  0.51100000000E-03 0. -1.
        -11    1    3    3    0    0  0.25999151641E+01  0.64297231893E+01 -0.31089381040E+02  0.31853579279E+02  0.51100000000E-03 0.  1.
        -12    1    3    3    0    0 -0.18044109779E+00 -0.72568920048E+00 -0.51353856925E+00  0.90714148156E+00  0.00000000000E+00 0.  1.
</event>
<event>
 7    1  0.1486782E-008  0.4614232E+02  0.7816164E-02  0.1320468E+00
        -11   -1    0    0    0    0  0.00000000000E+00  0.00000000000E+00  0.45593999997E+02  0.45594000000E+02  0.51100000000E-03 0. -1.
         11   -1    0    0    0    0 -0.00000000000E+00 -0.00000000000E+00 -0.45593999997E+02  0.45594000000E+02  0.51100000000E-03 0.  1.
    9900012    2    1    2    0    0 -0.47791570378E+01 -0.25183997589E+02  0.37041050420E+02  0.46142317712E+02  0.99999995565E+01 0.  0.
        -12    1    1    2    0    0  0.47791570378E+01  0.25183997589E+02 -0.37041050420E+02  0.45045682288E+02  0.00000000000E+00 0.  1.
         11    1    3    3    0    0 -0.19492491305E+01 -0.19105247967E+00  0.36166690590E+01  0.41129513206E+01  0.51100000000E-03 0. -1.
        -11    1    3    3    0    0  0.33778500186E+00 -0.75409077002E+00  0.23585179619E+01  0.24990715946E+01  0.51100000000E-03 0.  1.
         12    1    3    3    0    0 -0.31676929092E+01 -0.24238854339E+02  0.31065863399E+02  0.39530294797E+02  0.00000000000E+00 0. -1.
</event>
<event>
 7    1  0.1486782E-008  0.4614232E+02  0.7816164E-02  0.1320468E+00
        -11   -1    0    0    0    0  0.00000000000E+00  0.00000000000E+00  0.45593999997E+02  0.45594000000E+02  0.51100000000E-03 0.  1.
         11   -1    0    0    0    0 -0.00000000000E+00 -0.00000000000E+00 -0.45593999997E+02  0.45594000000E+02  0.51100000000E-03 0. -1.
    9900012    2    1    2    0    0 -0.24308924451E+02  0.17777882149E+02 -0.33498304484E+02  0.46142319797E+02  0.10000018568E+02 0.  0.
        -12    1    1    2    0    0  0.24308924451E+02 -0.17777882149E+02  0.33498304484E+02  0.45045680203E+02  0.00000000000E+00 0.  1.
         11    1    3    3    0    0 -0.85169058297E+01  0.68377468236E+01 -0.12694888895E+02  0.16746721197E+02  0.51100000000E-03 0. -1.
        -11    1    3    3    0    0 -0.13974833696E+02  0.57425276999E+01 -0.13594459592E+02  0.20324417165E+02  0.51100000000E-03 0.  1.
        -12    1    3    3    0    0 -0.18171849247E+01  0.51976076253E+01 -0.72089559963E+01  0.90711814354E+01  0.00000000000E+00 0.  1.
</event>
<event>
 7    1  0.1486782E-008  0.4614232E+02  0.7816164E-02  0.1320468E+00
        -11   -1    0    0    0    0  0.00000000000E+00  0.00000000000E+00  0.45593999997E+02  0.45594000000E+02  0.51100000000E-03 0. -1.
         11   -1    0    0    0    0 -0.00000000000E+00 -0.00000000000E+00 -0.45593999997E+02  0.45594000000E+02  0.51100000000E-03 0.  1.
    9900012    2    1    2    0    0 -0.29819219418E+02  0.23357109330E+02  0.24379765637E+02  0.46142319015E+02  0.10000011431E+02 0.  0.
        -12    1    1    2    0    0  0.29819219418E+02 -0.23357109330E+02 -0.24379765637E+02  0.45045680985E+02  0.00000000000E+00 0.  1.
         11    1    3    3    0    0 -0.80621197072E+01  0.38030315820E+01  0.74814217582E+01  0.11637546785E+02  0.51100000000E-03 0.  1.
        -11    1    3    3    0    0 -0.10732229767E+02  0.73869179080E+01  0.11022811657E+02  0.17066039055E+02  0.51100000000E-03 0. -1.
        -12    1    3    3    0    0 -0.11024869944E+02  0.12167159840E+02  0.58755322214E+01  0.17438733174E+02  0.00000000000E+00 0.  1.
</event>
<event>
 7    1  0.1486782E-008  0.4614232E+02  0.7816164E-02  0.1320468E+00
        -11   -1    0    0    0    0  0.00000000000E+00  0.00000000000E+00  0.45593999997E+02  0.45594000000E+02  0.51100000000E-03 0.  1.
         11   -1    0    0    0    0 -0.00000000000E+00 -0.00000000000E+00 -0.45593999997E+02  0.45594000000E+02  0.51100000000E-03 0. -1.
    9900012    2    1    2    0    0  0.22780527545E+02 -0.26673485751E+02 -0.28261038126E+02  0.46142317040E+02  0.99999934239E+01 0.  0.
        -12    1    1    2    0    0 -0.22780527545E+02  0.26673485751E+02  0.28261038126E+02  0.45045682960E+02  0.00000000000E+00 0.  1.
         11    1    3    3    0    0  0.66059041598E+01 -0.55604107269E+01 -0.59584832237E+01  0.10490932266E+02  0.51100000000E-03 0. -1.
        -11    1    3    3    0    0  0.96034516118E+01 -0.16305509368E+02 -0.11571029224E+02  0.22180726683E+02  0.51100000000E-03 0.  1.
        -12    1    3    3    0    0  0.65711717738E+01 -0.48075656562E+01 -0.10731525679E+02  0.13470658091E+02  0.00000000000E+00 0.  1.
</event>
<event>
 7    1  0.1486782E-008  0.4614232E+02  0.7816164E-02  0.1320468E+00
        -11   -1    0    0    0    0  0.00000000000E+00  0.00000000000E+00  0.45593999997E+02  0.45594000000E+02  0.51100000000E-03 0. -1.
         11   -1    0    0    0    0 -0.00000000000E+00 -0.00000000000E+00 -0.45593999997E+02  0.45594000000E+02  0.51100000000E-03 0.  1.
    9900012    2    1    2    0    0  0.32531339160E+02 -0.29561787785E+02  0.98451112750E+01  0.46142317181E+02  0.99999947135E+01 0.  0.
        -12    1    1    2    0    0 -0.32531339160E+02  0.29561787785E+02 -0.98451112750E+01  0.45045682819E+02  0.00000000000E+00 0.  1.
         11    1    3    3    0    0  0.92070995301E+01 -0.84391791983E+01  0.38707914807E+01  0.13075681789E+02  0.51100000000E-03 0. -1.
        -11    1    3    3    0    0  0.83775320398E+01 -0.94334336649E+01  0.62723794514E+01  0.14089551378E+02  0.51100000000E-03 0.  1.
        -12    1    3    3    0    0  0.14946707590E+02 -0.11689174921E+02 -0.29805965699E+00  0.18977084015E+02  0.00000000000E+00 0.  1.
</event>
<event>
 7    1  0.1486782E-008  0.4614232E+02  0.7816164E-02  0.1320468E+00
        -11   -1    0    0    0    0  0.00000000000E+00  0.00000000000E+00  0.45593999997E+02  0.45594000000E+02  0.51100000000E-03 0.  1.
         11   -1    0    0    0    0 -0.00000000000E+00 -0.00000000000E+00 -0.45593999997E+02  0.45594000000E+02  0.51100000000E-03 0. -1.
    9900012    2    1    2    0    0  0.25160064553E+02 -0.19631058724E+02 -0.31791604620E+02  0.46142318306E+02  0.10000004972E+02 0.  0.
        -12    1    1    2    0    0 -0.25160064553E+02  0.19631058724E+02  0.31791604620E+02  0.45045681694E+02  0.00000000000E+00 0.  1.
         11    1    3    3    0    0  0.44077478761E+01 -0.74419238050E+01 -0.10496628817E+02  0.13601091428E+02  0.51100000000E-03 0. -1.
        -11    1    3    3    0    0  0.41614728895E+00  0.28825532533E+00  0.74347998557E-01  0.51166159197E+00  0.51100000000E-03 0.  1.
         12    1    3    3    0    0  0.20336169388E+02 -0.12477390244E+02 -0.21369323802E+02  0.32029565286E+02  0.00000000000E+00 0. -1.
</event>
<event>
 7    1  0.1486782E-008  0.4614232E+02  0.7816164E-02  0.1320468E+00
        -11   -1    0    0    0    0  0.00000000000E+00  0.00000000000E+00  0.45593999997E+02  0.45594000000E+02  0.51100000000E-03 0.  1.
         11   -1    0    0    0    0 -0.00000000000E+00 -0.00000000000E+00 -0.45593999997E+02  0.45594000000E+02  0.51100000000E-03 0. -1.
    9900012    2    1    2    0    0  0.16645764714E+01 -0.36451172414E+02 -0.26413156542E+02  0.46142316259E+02  0.99999863025E+01 0.  0.
        -12    1    1    2    0    0 -0.16645764714E+01  0.36451172414E+02  0.26413156542E+02  0.45045683741E+02  0.00000000000E+00 0.  1.
         11    1    3    3    0    0  0.26162120146E+01 -0.47317133397E+01 -0.17475426167E+01  0.56822162835E+01  0.51100000000E-03 0. -1.
        -11    1    3    3    0    0 -0.28087883968E+01 -0.20562364714E+02 -0.16402645961E+02  0.26452730099E+02  0.51100000000E-03 0.  1.
         12    1    3    3    0    0  0.18571528536E+01 -0.11157094360E+02 -0.82629679644E+01  0.14007369877E+02  0.00000000000E+00 0. -1.
</event>
<event>
 7    1  0.1486782E-008  0.4614232E+02  0.7816164E-02  0.1320468E+00
        -11   -1    0    0    0    0  0.00000000000E+00  0.00000000000E+00  0.45593999997E+02  0.45594000000E+02  0.51100000000E-03 0. -1.
         11   -1    0    0    0    0 -0.00000000000E+00 -0.00000000000E+00 -0.45593999997E+02  0.45594000000E+02  0.51100000000E-03 0.  1.
    9900012    2    1    2    0    0  0.15163333376E+02  0.49713443485E+01  0.42124488988E+02  0.46142317453E+02  0.99999971869E+01 0.  0.
        -12    1    1    2    0    0 -0.15163333376E+02 -0.49713443485E+01 -0.42124488988E+02  0.45045682547E+02  0.00000000000E+00 0.  1.
         11    1    3    3    0    0  0.10373091423E+02 -0.73961996198E-01  0.29160551751E+02  0.30950674867E+02  0.51100000000E-03 0. -1.
        -11    1    3    3    0    0  0.18641336090E+01  0.44465227748E+01  0.91981689101E+01  0.10385223660E+02  0.51100000000E-03 0.  1.
        -12    1    3    3    0    0  0.29261083438E+01  0.59878356986E+00  0.37657683267E+01  0.48064189261E+01  0.00000000000E+00 0.  1.
</event>
<event>
 7    1  0.1486782E-008  0.4614232E+02  0.7816164E-02  0.1320468E+00
        -11   -1    0    0    0    0  0.00000000000E+00  0.00000000000E+00  0.45593999997E+02  0.45594000000E+02  0.51100000000E-03 0.  1.
         11   -1    0    0    0    0 -0.00000000000E+00 -0.00000000000E+00 -0.45593999997E+02  0.45594000000E+02  0.51100000000E-03 0. -1.
    9900012    2    1    2    0    0 -0.11290317301E+02  0.29495627642E+02 -0.32119312184E+02  0.46142317300E+02  0.99999957940E+01 0.  0.
        -12    1    1    2    0    0  0.11290317301E+02 -0.29495627642E+02  0.32119312184E+02  0.45045682700E+02  0.00000000000E+00 0.  1.
         11    1    3    3    0    0 -0.42386975808E+01  0.34630569029E+01 -0.50793124521E+01  0.74671772138E+01  0.51100000000E-03 0. -1.
        -11    1    3    3    0    0 -0.60282707323E+01  0.22697855968E+02 -0.20116582362E+02  0.30922638952E+02  0.51100000000E-03 0.  1.
        -12    1    3    3    0    0 -0.10233489881E+01  0.33347147704E+01 -0.69234173699E+01  0.77525011338E+01  0.00000000000E+00 0.  1.
</event>
<event>
 7    1  0.1486782E-008  0.4614232E+02  0.7816164E-02  0.1320468E+00
        -11   -1    0    0    0    0  0.00000000000E+00  0.00000000000E+00  0.45593999997E+02  0.45594000000E+02  0.51100000000E-03 0.  1.
         11   -1    0    0    0    0 -0.00000000000E+00 -0.00000000000E+00 -0.45593999997E+02  0.45594000000E+02  0.51100000000E-03 0. -1.
    9900012    2    1    2    0    0 -0.85426903383E+01  0.43934959692E+02  0.50848021470E+01  0.46142318141E+02  0.10000003460E+02 0.  0.
        -12    1    1    2    0    0  0.85426903383E+01 -0.43934959692E+02 -0.50848021470E+01  0.45045681859E+02  0.00000000000E+00 0.  1.
         11    1    3    3    0    0 -0.39098567554E+01  0.33831650353E+02  0.11198795723E+01  0.34075235523E+02  0.51100000000E-03 0. -1.
        -11    1    3    3    0    0 -0.42549562075E+01  0.64738766629E+01  0.26181974910E+01  0.81774500755E+01  0.51100000000E-03 0.  1.
        -12    1    3    3    0    0 -0.37787737544E+00  0.36294326756E+01  0.13467250838E+01  0.38896325416E+01  0.00000000000E+00 0.  1.
</event>
<event>
 7    1  0.1486782E-008  0.4614232E+02  0.7816164E-02  0.1320468E+00
        -11   -1    0    0    0    0  0.00000000000E+00  0.00000000000E+00  0.45593999997E+02  0.45594000000E+02  0.51100000000E-03 0.  1.
         11   -1    0    0    0    0 -0.00000000000E+00 -0.00000000000E+00 -0.45593999997E+02  0.45594000000E+02  0.51100000000E-03 0. -1.
    9900012    2    1    2    0    0 -0.67990959979E+01  0.18420835065E+02 -0.40540827433E+02  0.46142316968E+02  0.99999927692E+01 0.  0.
        -12    1    1    2    0    0  0.67990959979E+01 -0.18420835065E+02  0.40540827433E+02  0.45045683032E+02  0.00000000000E+00 0.  1.
         11    1    3    3    0    0 -0.99455342254E+00  0.55168769106E+01 -0.14305629923E+02  0.15364768632E+02  0.51100000000E-03 0. -1.
        -11    1    3    3    0    0 -0.44943452309E+01  0.21771854692E+01 -0.57435340014E+01  0.76110090466E+01  0.51100000000E-03 0.  1.
        -12    1    3    3    0    0 -0.13101973445E+01  0.10726772685E+02 -0.20491663508E+02  0.23166539290E+02  0.00000000000E+00 0.  1.
</event>
<event>
 7    1  0.1486782E-008  0.4614232E+02  0.7816164E-02  0.1320468E+00
        -11   -1    0    0    0    0  0.00000000000E+00  0.00000000000E+00  0.45593999997E+02  0.45594000000E+02  0.51100000000E-03 0.  1.
         11   -1    0    0    0    0 -0.00000000000E+00 -0.00000000000E+00 -0.45593999997E+02  0.45594000000E+02  0.51100000000E-03 0. -1.
    9900012    2    1    2    0    0 -0.21436713198E+02 -0.97902957338E+01 -0.38389201653E+02  0.46142319110E+02  0.10000012304E+02 0.  0.
        -12    1    1    2    0    0  0.21436713198E+02  0.97902957338E+01  0.38389201653E+02  0.45045680890E+02  0.00000000000E+00 0.  1.
         11    1    3    3    0    0 -0.79423453939E+01 -0.37620637824E+01 -0.11010822447E+02  0.14088015669E+02  0.51100000000E-03 0. -1.
        -11    1    3    3    0    0 -0.12451950971E+02 -0.59186574501E+01 -0.27713804657E+02  0.30953780994E+02  0.51100000000E-03 0.  1.
        -12    1    3    3    0    0 -0.10424168328E+01 -0.10957450130E+00  0.33542545144E+00  0.11005224478E+01  0.00000000000E+00 0.  1.
</event>
<event>
 7    1  0.1486782E-008  0.4614232E+02  0.7816164E-02  0.1320468E+00
        -11   -1    0    0    0    0  0.00000000000E+00  0.00000000000E+00  0.45593999997E+02  0.45594000000E+02  0.51100000000E-03 0.  1.
         11   -1    0    0    0    0 -0.00000000000E+00 -0.00000000000E+00 -0.45593999997E+02  0.45594000000E+02  0.51100000000E-03 0. -1.
    9900012    2    1    2    0    0  0.23773853240E+02 -0.36671534698E+02 -0.10914026919E+02  0.46142317204E+02  0.99999949181E+01 0.  0.
        -12    1    1    2    0    0 -0.23773853240E+02  0.36671534698E+02  0.10914026919E+02  0.45045682796E+02  0.00000000000E+00 0.  1.
         11    1    3    3    0    0  0.12611879624E+02 -0.22180872594E+02 -0.62922118448E+01  0.26280078897E+02  0.51100000000E-03 0. -1.
        -11    1    3    3    0    0  0.78237253298E+01 -0.91943098520E+01  0.13287142609E-01  0.12072538610E+02  0.51100000000E-03 0.  1.
        -12    1    3    3    0    0  0.33382482863E+01 -0.52963522524E+01 -0.46351022168E+01  0.77896996966E+01  0.00000000000E+00 0.  1.
</event>
<event>
 7    1  0.1486782E-008  0.4614232E+02  0.7816164E-02  0.1320468E+00
        -11   -1    0    0    0    0  0.00000000000E+00  0.00000000000E+00  0.45593999997E+02  0.45594000000E+02  0.51100000000E-03 0.  1.
         11   -1    0    0    0    0 -0.00000000000E+00 -0.00000000000E+00 -0.45593999997E+02  0.45594000000E+02  0.51100000000E-03 0. -1.
    9900012    2    1    2    0    0  0.25467873236E+02  0.11386629088E+02 -0.35367295633E+02  0.46142317748E+02  0.99999998822E+01 0.  0.
        -12    1    1    2    0    0 -0.25467873236E+02 -0.11386629088E+02  0.35367295633E+02  0.45045682252E+02  0.00000000000E+00 0.  1.
         11    1    3    3    0    0  0.12910596565E+02  0.81226062334E+01 -0.16112268832E+02  0.22187055751E+02  0.51100000000E-03 0. -1.
        -11    1    3    3    0    0  0.87190352596E+01  0.27597916773E+01 -0.83514690053E+01  0.12384872255E+02  0.51100000000E-03 0.  1.
        -12    1    3    3    0    0  0.38382414112E+01  0.50423117772E+00 -0.10903557795E+02  0.11570389743E+02  0.00000000000E+00 0.  1.
</event>
<event>
 7    1  0.1486782E-008  0.4614232E+02  0.7816164E-02  0.1320468E+00
        -11   -1    0    0    0    0  0.00000000000E+00  0.00000000000E+00  0.45593999997E+02  0.45594000000E+02  0.51100000000E-03 0.  1.
         11   -1    0    0    0    0 -0.00000000000E+00 -0.00000000000E+00 -0.45593999997E+02  0.45594000000E+02  0.51100000000E-03 0. -1.
    9900012    2    1    2    0    0  0.15702155506E+02 -0.10328439645E+02 -0.40937502794E+02  0.46142317765E+02  0.10000000035E+02 0.  0.
        -12    1    1    2    0    0 -0.15702155506E+02  0.10328439645E+02  0.40937502794E+02  0.45045682235E+02  0.00000000000E+00 0.  1.
         11    1    3    3    0    0  0.63530307208E+01 -0.18390144025E+01 -0.14975420917E+02  0.16370895065E+02  0.51100000000E-03 0. -1.
        -11    1    3    3    0    0  0.93476038902E+01 -0.47325609210E+01 -0.21652415147E+02  0.24054145449E+02  0.51100000000E-03 0.  1.
        -12    1    3    3    0    0  0.15208952360E-02 -0.37568643211E+01 -0.43096667300E+01  0.57172772509E+01  0.00000000000E+00 0.  1.
</event>
<event>
 7    1  0.1486782E-008  0.4614232E+02  0.7816164E-02  0.1320468E+00
        -11   -1    0    0    0    0  0.00000000000E+00  0.00000000000E+00  0.45593999997E+02  0.45594000000E+02  0.51100000000E-03 0.  1.
         11   -1    0    0    0    0 -0.00000000000E+00 -0.00000000000E+00 -0.45593999997E+02  0.45594000000E+02  0.51100000000E-03 0. -1.
    9900012    2    1    2    0    0 -0.23615810974E+02 -0.26294922838E+02 -0.27928195177E+02  0.46142316735E+02  0.99999906398E+01 0.  0.
        -12    1    1    2    0    0  0.23615810974E+02  0.26294922838E+02  0.27928195177E+02  0.45045683265E+02  0.00000000000E+00 0.  1.
         11    1    3    3    0    0 -0.23220855420E+02 -0.22575877939E+02 -0.26261586030E+02  0.41695914575E+02  0.51100000000E-03 0. -1.
        -11    1    3    3    0    0  0.26653330931E+00  0.64140133491E-01 -0.46348756255E-01  0.27803314555E+00  0.51100000000E-03 0.  1.
         12    1    3    3    0    0 -0.66148886290E+00 -0.37831850323E+01 -0.16202603906E+01  0.41683690141E+01  0.00000000000E+00 0. -1.
</event>
<event>
 7    1  0.1486782E-008  0.4614232E+02  0.7816164E-02  0.1320468E+00
        -11   -1    0    0    0    0  0.00000000000E+00  0.00000000000E+00  0.45593999997E+02  0.45594000000E+02  0.51100000000E-03 0.  1.
         11   -1    0    0    0    0 -0.00000000000E+00 -0.00000000000E+00 -0.45593999997E+02  0.45594000000E+02  0.51100000000E-03 0. -1.
    9900012    2    1    2    0    0  0.24513585607E+02 -0.28880750253E+01 -0.37680984035E+02  0.46142318581E+02  0.10000007477E+02 0.  0.
        -12    1    1    2    0    0 -0.24513585607E+02  0.28880750253E+01  0.37680984035E+02  0.45045681419E+02  0.00000000000E+00 0.  1.
         11    1    3    3    0    0  0.43016756986E+01 -0.41128570062E+00 -0.10722238115E+02  0.11560275092E+02  0.51100000000E-03 0. -1.
        -11    1    3    3    0    0  0.94051586595E+01  0.18274360575E+00 -0.69837975084E+01  0.11715964857E+02  0.51100000000E-03 0.  1.
        -12    1    3    3    0    0  0.10806751249E+02 -0.26595329305E+01 -0.19974948411E+02  0.22866078632E+02  0.00000000000E+00 0.  1.
</event>
<event>
 7    1  0.1486782E-008  0.4614232E+02  0.7816164E-02  0.1320468E+00
        -11   -1    0    0    0    0  0.00000000000E+00  0.00000000000E+00  0.45593999997E+02  0.45594000000E+02  0.51100000000E-03 0.  1.
         11   -1    0    0    0    0 -0.00000000000E+00 -0.00000000000E+00 -0.45593999997E+02  0.45594000000E+02  0.51100000000E-03 0. -1.
    9900012    2    1    2    0    0 -0.29785397116E+02 -0.33636155069E+02 -0.32484982307E+01  0.46142317078E+02  0.99999937727E+01 0.  0.
        -12    1    1    2    0    0  0.29785397116E+02  0.33636155069E+02  0.32484982307E+01  0.45045682922E+02  0.00000000000E+00 0.  1.
         11    1    3    3    0    0 -0.14635561138E+02 -0.17741442173E+02 -0.15436080035E+01  0.23050838295E+02  0.51100000000E-03 0. -1.
        -11    1    3    3    0    0 -0.97581019077E+01 -0.91867324989E+01  0.23016479057E+01  0.13598315712E+02  0.51100000000E-03 0.  1.
        -12    1    3    3    0    0 -0.53917340703E+01 -0.67079803972E+01 -0.40065381330E+01  0.94931630716E+01  0.00000000000E+00 0.  1.
</event>
<event>
 7    1  0.1486782E-008  0.4614232E+02  0.7816164E-02  0.1320468E+00
        -11   -1    0    0    0    0  0.00000000000E+00  0.00000000000E+00  0.45593999997E+02  0.45594000000E+02  0.51100000000E-03 0. -1.
         11   -1    0    0    0    0 -0.00000000000E+00 -0.00000000000E+00 -0.45593999997E+02  0.45594000000E+02  0.51100000000E-03 0.  1.
    9900012    2    1    2    0    0 -0.12498351291E+02  0.31799923708E+02 -0.29354207684E+02  0.46142318281E+02  0.10000004737E+02 0.  0.
        -12    1    1    2    0    0  0.12498351291E+02 -0.31799923708E+02  0.29354207684E+02  0.45045681719E+02  0.00000000000E+00 0.  1.
         11    1    3    3    0    0 -0.86106628682E+01  0.28143156198E+02 -0.23377226423E+02  0.37585575309E+02  0.51100000000E-03 0.  1.
        -11    1    3    3    0    0 -0.26169875108E+01  0.31643158215E+01 -0.59045587389E+01  0.71920325648E+01  0.51100000000E-03 0. -1.
        -12    1    3    3    0    0 -0.12707009116E+01  0.49245168798E+00 -0.72422522065E-01  0.13647104064E+01  0.00000000000E+00 0.  1.
</event>
<event>
 7    1  0.1486782E-008  0.4614232E+02  0.7816164E-02  0.1320468E+00
        -11   -1    0    0    0    0  0.00000000000E+00  0.00000000000E+00  0.45593999997E+02  0.45594000000E+02  0.51100000000E-03 0. -1.
         11   -1    0    0    0    0 -0.00000000000E+00 -0.00000000000E+00 -0.45593999997E+02  0.45594000000E+02  0.51100000000E-03 0.  1.
    9900012    2    1    2    0    0 -0.10548449284E+02  0.28180944251E+02  0.33521305620E+02  0.46142319501E+02  0.10000015867E+02 0.  0.
        -12    1    1    2    0    0  0.10548449284E+02 -0.28180944251E+02 -0.33521305620E+02  0.45045680499E+02  0.00000000000E+00 0.  1.
         11    1    3    3    0    0  0.21283794018E+00  0.23388371043E+01  0.66822082800E+01  0.70828925410E+01  0.51100000000E-03 0. -1.
        -11    1    3    3    0    0 -0.44653245920E+01  0.55043527021E+01  0.67340793165E+01  0.97767503232E+01  0.51100000000E-03 0.  1.
         12    1    3    3    0    0 -0.62959626321E+01  0.20337754445E+02  0.20105018023E+02  0.29282676637E+02  0.00000000000E+00 0. -1.
</event>
<event>
 7    1  0.1486782E-008  0.4614232E+02  0.7816164E-02  0.1320468E+00
        -11   -1    0    0    0    0  0.00000000000E+00  0.00000000000E+00  0.45593999997E+02  0.45594000000E+02  0.51100000000E-03 0.  1.
         11   -1    0    0    0    0 -0.00000000000E+00 -0.00000000000E+00 -0.45593999997E+02  0.45594000000E+02  0.51100000000E-03 0. -1.
    9900012    2    1    2    0    0  0.14549627849E+02 -0.40836650659E+02 -0.12238865593E+02  0.46142317203E+02  0.99999949130E+01 0.  0.
        -12    1    1    2    0    0 -0.14549627849E+02  0.40836650659E+02  0.12238865593E+02  0.45045682797E+02  0.00000000000E+00 0.  1.
         11    1    3    3    0    0  0.48027075705E+01 -0.23150566729E+02 -0.36721350028E+01  0.23926957927E+02  0.51100000000E-03 0. -1.
        -11    1    3    3    0    0  0.46946435910E+00  0.39597438230E-01 -0.59088936992E-01  0.47482260390E+00  0.51100000000E-03 0.  1.
         12    1    3    3    0    0  0.92774559191E+01 -0.17725681369E+02 -0.85076416537E+01  0.21740536673E+02  0.00000000000E+00 0. -1.
</event>
<event>
 7    1  0.1486782E-008  0.4614232E+02  0.7816164E-02  0.1320468E+00
        -11   -1    0    0    0    0  0.00000000000E+00  0.00000000000E+00  0.45593999997E+02  0.45594000000E+02  0.51100000000E-03 0.  1.
         11   -1    0    0    0    0 -0.00000000000E+00 -0.00000000000E+00 -0.45593999997E+02  0.45594000000E+02  0.51100000000E-03 0. -1.
    9900012    2    1    2    0    0  0.23191269062E+02 -0.37184565844E+02 -0.10420485189E+02  0.46142318639E+02  0.10000008007E+02 0.  0.
        -12    1    1    2    0    0 -0.23191269062E+02  0.37184565844E+02  0.10420485189E+02  0.45045681361E+02  0.00000000000E+00 0.  1.
         11    1    3    3    0    0  0.16139916461E+01 -0.38807136029E+01 -0.31968648252E+01  0.52806109564E+01  0.51100000000E-03 0. -1.
        -11    1    3    3    0    0 -0.23232704976E+00 -0.68010980788E+00 -0.83660045938E+00  0.11029169500E+01  0.51100000000E-03 0.  1.
         12    1    3    3    0    0  0.21809604465E+02 -0.32623742433E+02 -0.63870199048E+01  0.39758790733E+02  0.00000000000E+00 0. -1.
</event>
<event>
 7    1  0.1486782E-008  0.4614232E+02  0.7816164E-02  0.1320468E+00
        -11   -1    0    0    0    0  0.00000000000E+00  0.00000000000E+00  0.45593999997E+02  0.45594000000E+02  0.51100000000E-03 0.  1.
         11   -1    0    0    0    0 -0.00000000000E+00 -0.00000000000E+00 -0.45593999997E+02  0.45594000000E+02  0.51100000000E-03 0. -1.
    9900012    2    1    2    0    0 -0.64234369699E+01  0.34182336735E+02 -0.28625524759E+02  0.46142319243E+02  0.10000013513E+02 0.  0.
        -12    1    1    2    0    0  0.64234369699E+01 -0.34182336735E+02  0.28625524759E+02  0.45045680757E+02  0.00000000000E+00 0.  1.
         11    1    3    3    0    0 -0.87634272593E+01  0.26491653713E+02 -0.20000542030E+02  0.34331138279E+02  0.51100000000E-03 0. -1.
        -11    1    3    3    0    0  0.19087760264E+01  0.66874066810E+01 -0.77415675034E+01  0.10406570122E+02  0.51100000000E-03 0.  1.
         12    1    3    3    0    0  0.43121426297E+00  0.10032763403E+01 -0.88341522575E+00  0.14046108417E+01  0.00000000000E+00 0. -1.
</event>
<event>
 7    1  0.1486782E-008  0.4614231E+02  0.7816164E-02  0.1320468E+00
        -11   -1    0    0    0    0  0.00000000000E+00  0.00000000000E+00  0.45593999997E+02  0.45594000000E+02  0.51100000000E-03 0. -1.
         11   -1    0    0    0    0 -0.00000000000E+00 -0.00000000000E+00 -0.45593999997E+02  0.45594000000E+02  0.51100000000E-03 0.  1.
    9900012    2    1    2    0    0  0.15831629652E+02  0.42117718586E+02  0.21380857925E+01  0.46142310670E+02  0.99999353386E+01 0.  0.
        -12    1    1    2    0    0 -0.15831629652E+02 -0.42117718586E+02 -0.21380857925E+01  0.45045689330E+02  0.00000000000E+00 0.  1.
         11    1    3    3    0    0  0.78063468801E+00  0.55203125740E+01 -0.17126714120E+01  0.58323653056E+01  0.51100000000E-03 0.  1.
        -11    1    3    3    0    0  0.12593673614E+02  0.22247971795E+02  0.26566086873E+01  0.25702732035E+02  0.51100000000E-03 0. -1.
        -12    1    3    3    0    0  0.24573213496E+01  0.14349434217E+02  0.11941485171E+01  0.14607213329E+02  0.00000000000E+00 0.  1.
</event>
<event>
 7    1  0.1486782E-008  0.4614232E+02  0.7816164E-02  0.1320468E+00
        -11   -1    0    0    0    0  0.00000000000E+00  0.00000000000E+00  0.45593999997E+02  0.45594000000E+02  0.51100000000E-03 0.  1.
         11   -1    0    0    0    0 -0.00000000000E+00 -0.00000000000E+00 -0.45593999997E+02  0.45594000000E+02  0.51100000000E-03 0. -1.
    9900012    2    1    2    0    0 -0.13515301759E+02  0.23762019304E+02 -0.35802466117E+02  0.46142317375E+02  0.99999964817E+01 0.  0.
        -12    1    1    2    0    0  0.13515301759E+02 -0.23762019304E+02  0.35802466117E+02  0.45045682625E+02  0.00000000000E+00 0.  1.
         11    1    3    3    0    0 -0.16008354372E+01  0.51746764339E+01 -0.29817021420E+01  0.61830816117E+01  0.51100000000E-03 0.  1.
        -11    1    3    3    0    0 -0.12370396770E+02  0.16557562362E+02 -0.29042984403E+02  0.35646522003E+02  0.51100000000E-03 0. -1.
         12    1    3    3    0    0  0.45593044769E+00  0.20297805079E+01 -0.37777795723E+01  0.43127137605E+01  0.00000000000E+00 0. -1.
</event>
<event>
 7    1  0.1486782E-008  0.4614231E+02  0.7816164E-02  0.1320468E+00
        -11   -1    0    0    0    0  0.00000000000E+00  0.00000000000E+00  0.45593999997E+02  0.45594000000E+02  0.51100000000E-03 0.  1.
         11   -1    0    0    0    0 -0.00000000000E+00 -0.00000000000E+00 -0.45593999997E+02  0.45594000000E+02  0.51100000000E-03 0. -1.
    9900012    2    1    2    0    0 -0.18418676926E+02  0.79121919258E+01 -0.40339356600E+02  0.46142310621E+02  0.99999348868E+01 0.  0.
        -12    1    1    2    0    0  0.18418676926E+02 -0.79121919258E+01  0.40339356600E+02  0.45045689379E+02  0.00000000000E+00 0.  1.
         11    1    3    3    0    0 -0.11019566530E+02  0.34174922098E+01 -0.14585137479E+02  0.18596675376E+02  0.51100000000E-03 0. -1.
        -11    1    3    3    0    0 -0.36614637090E+01  0.37183899885E+01 -0.93961193493E+01  0.10748013755E+02  0.51100000000E-03 0.  1.
         12    1    3    3    0    0 -0.37376466876E+01  0.77630972746E+00 -0.16358099771E+02  0.16797621489E+02  0.00000000000E+00 0. -1.
</event>
<event>
 7    1  0.1486782E-008  0.4614232E+02  0.7816164E-02  0.1320468E+00
        -11   -1    0    0    0    0  0.00000000000E+00  0.00000000000E+00  0.45593999997E+02  0.45594000000E+02  0.51100000000E-03 0.  1.
         11   -1    0    0    0    0 -0.00000000000E+00 -0.00000000000E+00 -0.45593999997E+02  0.45594000000E+02  0.51100000000E-03 0. -1.
    9900012    2    1    2    0    0  0.25741262389E+02 -0.35876284595E+02 -0.89102793646E+01  0.46142318031E+02  0.10000002458E+02 0.  0.
        -12    1    1    2    0    0 -0.25741262389E+02  0.35876284595E+02  0.89102793646E+01  0.45045681969E+02  0.00000000000E+00 0.  1.
         11    1    3    3    0    0  0.96917767070E+01 -0.18726826771E+02 -0.53386090141E+01  0.21751444161E+02  0.51100000000E-03 0. -1.
        -11    1    3    3    0    0  0.13517640325E+02 -0.12373297365E+02 -0.86638844845E+00  0.18346000023E+02  0.51100000000E-03 0.  1.
         12    1    3    3    0    0  0.25318453565E+01 -0.47761604600E+01 -0.27052819020E+01  0.60448738463E+01  0.00000000000E+00 0. -1.
</event>
<event>
 7    1  0.1486782E-008  0.4614232E+02  0.7816164E-02  0.1320468E+00
        -11   -1    0    0    0    0  0.00000000000E+00  0.00000000000E+00  0.45593999997E+02  0.45594000000E+02  0.51100000000E-03 0.  1.
         11   -1    0    0    0    0 -0.00000000000E+00 -0.00000000000E+00 -0.45593999997E+02  0.45594000000E+02  0.51100000000E-03 0. -1.
    9900012    2    1    2    0    0 -0.27190891482E+02 -0.32918560503E+02 -0.14357483567E+02  0.46142317193E+02  0.99999948228E+01 0.  0.
        -12    1    1    2    0    0  0.27190891482E+02  0.32918560503E+02  0.14357483567E+02  0.45045682807E+02  0.00000000000E+00 0.  1.
         11    1    3    3    0    0 -0.13875333187E+02 -0.10826649003E+02 -0.48148528022E+01  0.18246205290E+02  0.51100000000E-03 0. -1.
        -11    1    3    3    0    0 -0.11141936555E+00 -0.20922075857E+00  0.40611438372E+00  0.47023053349E+00  0.51100000000E-03 0.  1.
         12    1    3    3    0    0 -0.13204138929E+02 -0.21882690741E+02 -0.99487451486E+01  0.27425881370E+02  0.00000000000E+00 0. -1.
</event>
<event>
 7    1  0.1486782E-008  0.4614232E+02  0.7816164E-02  0.1320468E+00
        -11   -1    0    0    0    0  0.00000000000E+00  0.00000000000E+00  0.45593999997E+02  0.45594000000E+02  0.51100000000E-03 0. -1.
         11   -1    0    0    0    0 -0.00000000000E+00 -0.00000000000E+00 -0.45593999997E+02  0.45594000000E+02  0.51100000000E-03 0.  1.
    9900012    2    1    2    0    0 -0.13056743109E+01 -0.70023456940E+01  0.44478937366E+02  0.46142317634E+02  0.99999988380E+01 0.  0.
        -12    1    1    2    0    0  0.13056743109E+01  0.70023456940E+01 -0.44478937366E+02  0.45045682366E+02  0.00000000000E+00 0.  1.
         11    1    3    3    0    0 -0.33327115521E+01 -0.24845291452E+01  0.17789112501E+02  0.18268343527E+02  0.51100000000E-03 0. -1.
        -11    1    3    3    0    0  0.31277012502E+01 -0.15245717924E+01  0.21520870948E+02  0.21800337632E+02  0.51100000000E-03 0.  1.
        -12    1    3    3    0    0 -0.11006640090E+01 -0.29932447564E+01  0.51689539168E+01  0.60736364747E+01  0.00000000000E+00 0.  1.
</event>
<event>
 7    1  0.1486782E-008  0.4614232E+02  0.7816164E-02  0.1320468E+00
        -11   -1    0    0    0    0  0.00000000000E+00  0.00000000000E+00  0.45593999997E+02  0.45594000000E+02  0.51100000000E-03 0.  1.
         11   -1    0    0    0    0 -0.00000000000E+00 -0.00000000000E+00 -0.45593999997E+02  0.45594000000E+02  0.51100000000E-03 0. -1.
    9900012    2    1    2    0    0 -0.17344179685E+02 -0.15113032822E+02 -0.38728400372E+02  0.46142319570E+02  0.10000016497E+02 0.  0.
        -12    1    1    2    0    0  0.17344179685E+02  0.15113032822E+02  0.38728400372E+02  0.45045680430E+02  0.00000000000E+00 0.  1.
         11    1    3    3    0    0  0.60610789856E+00 -0.59281843002E-01 -0.66756917873E+00  0.90362049065E+00  0.51100000000E-03 0.  1.
        -11    1    3    3    0    0 -0.66035349079E+01 -0.23621893308E+01 -0.15155983278E+02  0.16700013206E+02  0.51100000000E-03 0. -1.
         12    1    3    3    0    0 -0.11346752676E+02 -0.12691561648E+02 -0.22904847916E+02  0.28538685873E+02  0.00000000000E+00 0. -1.
</event>
<event>
 7    1  0.1486782E-008  0.4614232E+02  0.7816164E-02  0.1320468E+00
        -11   -1    0    0    0    0  0.00000000000E+00  0.00000000000E+00  0.45593999997E+02  0.45594000000E+02  0.51100000000E-03 0.  1.
         11   -1    0    0    0    0 -0.00000000000E+00 -0.00000000000E+00 -0.45593999997E+02  0.45594000000E+02  0.51100000000E-03 0. -1.
    9900012    2    1    2    0    0  0.35230652639E+02 -0.10375989097E+02 -0.26081669447E+02  0.46142317451E+02  0.99999971727E+01 0.  0.
        -12    1    1    2    0    0 -0.35230652639E+02  0.10375989097E+02  0.26081669447E+02  0.45045682549E+02  0.00000000000E+00 0.  1.
         11    1    3    3    0    0  0.14239185439E+02 -0.37732780647E+01 -0.63027054045E+01  0.16022363277E+02  0.51100000000E-03 0. -1.
        -11    1    3    3    0    0  0.20533669255E+02 -0.57493178691E+01 -0.19871310093E+02  0.29147130118E+02  0.51100000000E-03 0.  1.
         12    1    3    3    0    0  0.45779794541E+00 -0.85339316333E+00  0.92346050406E-01  0.97282405556E+00  0.00000000000E+00 0. -1.
</event>
<event>
 7    1  0.1486782E-008  0.4614232E+02  0.7816164E-02  0.1320468E+00
        -11   -1    0    0    0    0  0.00000000000E+00  0.00000000000E+00  0.45593999997E+02  0.45594000000E+02  0.51100000000E-03 0. -1.
         11   -1    0    0    0    0 -0.00000000000E+00 -0.00000000000E+00 -0.45593999997E+02  0.45594000000E+02  0.51100000000E-03 0.  1.
    9900012    2    1    2    0    0 -0.36240895903E+02 -0.21343340653E+02  0.16129865719E+02  0.46142319917E+02  0.10000019656E+02 0.  0.
        -12    1    1    2    0    0  0.36240895903E+02  0.21343340653E+02 -0.16129865719E+02  0.45045680083E+02  0.00000000000E+00 0.  1.
         11    1    3    3    0    0 -0.13773846427E+02 -0.95765205214E+01  0.48522102521E+01  0.17463462867E+02  0.51100000000E-03 0. -1.
        -11    1    3    3    0    0 -0.82074297897E+01 -0.48934892608E+01  0.57947094660E+00  0.95730835021E+01  0.51100000000E-03 0.  1.
         12    1    3    3    0    0 -0.14259619686E+02 -0.68733308707E+01  0.10698184520E+02  0.19105773548E+02  0.00000000000E+00 0. -1.
</event>
<event>
 7    1  0.1486782E-008  0.4614232E+02  0.7816164E-02  0.1320468E+00
        -11   -1    0    0    0    0  0.00000000000E+00  0.00000000000E+00  0.45593999997E+02  0.45594000000E+02  0.51100000000E-03 0.  1.
         11   -1    0    0    0    0 -0.00000000000E+00 -0.00000000000E+00 -0.45593999997E+02  0.45594000000E+02  0.51100000000E-03 0. -1.
    9900012    2    1    2    0    0 -0.35832749268E+01 -0.21143645648E+02 -0.39613380249E+02  0.46142317574E+02  0.99999982901E+01 0.  0.
        -12    1    1    2    0    0  0.35832749268E+01  0.21143645648E+02  0.39613380249E+02  0.45045682426E+02  0.00000000000E+00 0.  1.
         11    1    3    3    0    0 -0.41316880276E+01 -0.89548031071E+01 -0.19604077491E+02  0.21944912832E+02  0.51100000000E-03 0. -1.
        -11    1    3    3    0    0  0.20961050037E+01 -0.84862653794E+01 -0.17215606217E+02  0.19307704523E+02  0.51100000000E-03 0.  1.
         12    1    3    3    0    0 -0.15476919029E+01 -0.37025771618E+01 -0.27936965405E+01  0.48897002184E+01  0.00000000000E+00 0. -1.
</event>
<event>
 7    1  0.1486782E-008  0.4614232E+02  0.7816164E-02  0.1320468E+00
        -11   -1    0    0    0    0  0.00000000000E+00  0.00000000000E+00  0.45593999997E+02  0.45594000000E+02  0.51100000000E-03 0.  1.
         11   -1    0    0    0    0 -0.00000000000E+00 -0.00000000000E+00 -0.45593999997E+02  0.45594000000E+02  0.51100000000E-03 0. -1.
    9900012    2    1    2    0    0 -0.75105652643E+01 -0.10981409903E+02 -0.43036188431E+02  0.46142317979E+02  0.10000001987E+02 0.  0.
        -12    1    1    2    0    0  0.75105652643E+01  0.10981409903E+02  0.43036188431E+02  0.45045682021E+02  0.00000000000E+00 0.  1.
         11    1    3    3    0    0 -0.77699736711E+01 -0.33713669787E+01 -0.28013982062E+02  0.29266393651E+02  0.51100000000E-03 0. -1.
        -11    1    3    3    0    0  0.64865850584E+00 -0.33875581613E+01 -0.66910286754E+01  0.75276937470E+01  0.51100000000E-03 0.  1.
         12    1    3    3    0    0 -0.38925009904E+00 -0.42224847630E+01 -0.83311776943E+01  0.93482305806E+01  0.00000000000E+00 0. -1.
</event>
<event>
 7    1  0.1486782E-008  0.4614232E+02  0.7816164E-02  0.1320468E+00
        -11   -1    0    0    0    0  0.00000000000E+00  0.00000000000E+00  0.45593999997E+02  0.45594000000E+02  0.51100000000E-03 0. -1.
         11   -1    0    0    0    0 -0.00000000000E+00 -0.00000000000E+00 -0.45593999997E+02  0.45594000000E+02  0.51100000000E-03 0.  1.
    9900012    2    1    2    0    0  0.38983822310E+02  0.21103738426E+02 -0.80004600477E+01  0.46142317205E+02  0.99999949314E+01 0.  0.
        -12    1    1    2    0    0 -0.38983822310E+02 -0.21103738426E+02  0.80004600477E+01  0.45045682795E+02  0.00000000000E+00 0.  1.
         11    1    3    3    0    0  0.12574745537E+02  0.11476787941E+02 -0.41763296066E+01  0.17529478486E+02  0.51100000000E-03 0. -1.
        -11    1    3    3    0    0  0.23061639031E+02  0.70621428844E+01 -0.36391134402E+01  0.24391724084E+02  0.51100000000E-03 0.  1.
        -12    1    3    3    0    0  0.33474377426E+01  0.25648076013E+01 -0.18501700081E+00  0.42211146351E+01  0.00000000000E+00 0.  1.
</event>
<event>
 7    1  0.1486782E-008  0.4614232E+02  0.7816164E-02  0.1320468E+00
        -11   -1    0    0    0    0  0.00000000000E+00  0.00000000000E+00  0.45593999997E+02  0.45594000000E+02  0.51100000000E-03 0. -1.
         11   -1    0    0    0    0 -0.00000000000E+00 -0.00000000000E+00 -0.45593999997E+02  0.45594000000E+02  0.51100000000E-03 0.  1.
    9900012    2    1    2    0    0  0.75848738769E+01  0.44358319436E+02  0.19805727767E+01  0.46142317816E+02  0.10000000499E+02 0.  0.
        -12    1    1    2    0    0 -0.75848738769E+01 -0.44358319436E+02 -0.19805727767E+01  0.45045682184E+02  0.00000000000E+00 0.  1.
         11    1    3    3    0    0  0.62132500612E+01  0.24443588638E+02  0.55605354295E+01  0.25826595911E+02  0.51100000000E-03 0. -1.
        -11    1    3    3    0    0  0.53352232142E+00  0.33397159203E+01 -0.94546730672E+00  0.35117313657E+01  0.51100000000E-03 0.  1.
         12    1    3    3    0    0  0.83810149427E+00  0.16575014877E+02 -0.26344953461E+01  0.16803990539E+02  0.00000000000E+00 0. -1.
</event>
<event>
 7    1  0.1486782E-008  0.4614232E+02  0.7816164E-02  0.1320468E+00
        -11   -1    0    0    0    0  0.00000000000E+00  0.00000000000E+00  0.45593999997E+02  0.45594000000E+02  0.51100000000E-03 0.  1.
         11   -1    0    0    0    0 -0.00000000000E+00 -0.00000000000E+00 -0.45593999997E+02  0.45594000000E+02  0.51100000000E-03 0. -1.
    9900012    2    1    2    0    0  0.77339894295E+01 -0.39826380296E+02 -0.19574432938E+02  0.46142316690E+02  0.99999902366E+01 0.  0.
        -12    1    1    2    0    0 -0.77339894295E+01  0.39826380296E+02  0.19574432938E+02  0.45045683310E+02  0.00000000000E+00 0.  1.
         11    1    3    3    0    0  0.37436762596E+00 -0.75910536679E+01 -0.54524229857E+01  0.93537780380E+01  0.51100000000E-03 0. -1.
        -11    1    3    3    0    0  0.84985347096E+01 -0.26011829067E+02 -0.13242911508E+02  0.30400905399E+02  0.51100000000E-03 0.  1.
        -12    1    3    3    0    0 -0.11389129061E+01 -0.62234975611E+01 -0.87909844389E+00  0.63876332530E+01  0.00000000000E+00 0.  1.
</event>
<event>
 7    1  0.1486782E-008  0.4614232E+02  0.7816164E-02  0.1320468E+00
        -11   -1    0    0    0    0  0.00000000000E+00  0.00000000000E+00  0.45593999997E+02  0.45594000000E+02  0.51100000000E-03 0.  1.
         11   -1    0    0    0    0 -0.00000000000E+00 -0.00000000000E+00 -0.45593999997E+02  0.45594000000E+02  0.51100000000E-03 0. -1.
    9900012    2    1    2    0    0  0.47186610839E+01  0.77766944943E+01 -0.44117691443E+02  0.46142318321E+02  0.10000005105E+02 0.  0.
        -12    1    1    2    0    0 -0.47186610839E+01 -0.77766944943E+01  0.44117691443E+02  0.45045681679E+02  0.00000000000E+00 0.  1.
         11    1    3    3    0    0  0.40629517820E+00  0.77667171402E+00 -0.16886772170E+02  0.16909505294E+02  0.51100000000E-03 0. -1.
        -11    1    3    3    0    0 -0.14955117458E+00 -0.38040966533E+00  0.21635217092E+00  0.46247766463E+00  0.51100000000E-03 0.  1.
        -12    1    3    3    0    0  0.44619170802E+01  0.73804324456E+01 -0.27447271444E+02  0.28770335362E+02  0.00000000000E+00 0.  1.
</event>
<event>
 7    1  0.1486782E-008  0.4614232E+02  0.7816164E-02  0.1320468E+00
        -11   -1    0    0    0    0  0.00000000000E+00  0.00000000000E+00  0.45593999997E+02  0.45594000000E+02  0.51100000000E-03 0.  1.
         11   -1    0    0    0    0 -0.00000000000E+00 -0.00000000000E+00 -0.45593999997E+02  0.45594000000E+02  0.51100000000E-03 0. -1.
    9900012    2    1    2    0    0 -0.30684408771E+02 -0.40315487533E+01 -0.32731131984E+02  0.46142319541E+02  0.10000016234E+02 0.  0.
        -12    1    1    2    0    0  0.30684408771E+02  0.40315487533E+01  0.32731131984E+02  0.45045680459E+02  0.00000000000E+00 0.  1.
         11    1    3    3    0    0 -0.26479766986E+01  0.20178424169E+01 -0.41139373513E+01  0.52922537172E+01  0.51100000000E-03 0. -1.
        -11    1    3    3    0    0 -0.28234041678E+02 -0.61390217564E+01 -0.28557852613E+02  0.40625110999E+02  0.51100000000E-03 0.  1.
        -12    1    3    3    0    0  0.19760960487E+00  0.89630586234E-01 -0.59342020289E-01  0.22495482501E+00  0.00000000000E+00 0.  1.
</event>
<event>
 7    1  0.1486782E-008  0.4614232E+02  0.7816164E-02  0.1320468E+00
        -11   -1    0    0    0    0  0.00000000000E+00  0.00000000000E+00  0.45593999997E+02  0.45594000000E+02  0.51100000000E-03 0. -1.
         11   -1    0    0    0    0 -0.00000000000E+00 -0.00000000000E+00 -0.45593999997E+02  0.45594000000E+02  0.51100000000E-03 0.  1.
    9900012    2    1    2    0    0 -0.97441371842E+01  0.35360860902E+02  0.26149087280E+02  0.46142318090E+02  0.10000002996E+02 0.  0.
        -12    1    1    2    0    0  0.97441371842E+01 -0.35360860902E+02 -0.26149087280E+02  0.45045681910E+02  0.00000000000E+00 0.  1.
         11    1    3    3    0    0  0.60214078217E+00  0.66048035161E+01  0.63476020434E+01  0.91803079998E+01  0.51100000000E-03 0. -1.
        -11    1    3    3    0    0 -0.81879483796E+01  0.14154729963E+02  0.11866648826E+02  0.20204361747E+02  0.51100000000E-03 0.  1.
        -12    1    3    3    0    0 -0.21583295868E+01  0.14601327423E+02  0.79348364110E+01  0.16757648343E+02  0.00000000000E+00 0.  1.
</event>
<event>
 7    1  0.1486782E-008  0.4614232E+02  0.7816164E-02  0.1320468E+00
        -11   -1    0    0    0    0  0.00000000000E+00  0.00000000000E+00  0.45593999997E+02  0.45594000000E+02  0.51100000000E-03 0. -1.
         11   -1    0    0    0    0 -0.00000000000E+00 -0.00000000000E+00 -0.45593999997E+02  0.45594000000E+02  0.51100000000E-03 0.  1.
    9900012    2    1    2    0    0  0.32669627392E+02  0.22757659033E+02  0.21068883750E+02  0.46142318064E+02  0.10000002762E+02 0.  0.
        -12    1    1    2    0    0 -0.32669627392E+02 -0.22757659033E+02 -0.21068883750E+02  0.45045681936E+02  0.00000000000E+00 0.  1.
         11    1    3    3    0    0  0.13447036782E+02  0.60404165903E+01  0.74900610884E+01  0.16535127643E+02  0.51100000000E-03 0. -1.
        -11    1    3    3    0    0  0.25987906243E+01  0.10640476102E+01  0.39026366494E+01  0.48079603892E+01  0.51100000000E-03 0.  1.
        -12    1    3    3    0    0  0.16623799986E+02  0.15653194833E+02  0.96761860126E+01  0.24799230032E+02  0.00000000000E+00 0.  1.
</event>
<event>
 7    1  0.1486782E-008  0.4614232E+02  0.7816164E-02  0.1320468E+00
        -11   -1    0    0    0    0  0.00000000000E+00  0.00000000000E+00  0.45593999997E+02  0.45594000000E+02  0.51100000000E-03 0. -1.
         11   -1    0    0    0    0 -0.00000000000E+00 -0.00000000000E+00 -0.45593999997E+02  0.45594000000E+02  0.51100000000E-03 0.  1.
    9900012    2    1    2    0    0 -0.60687185669E+01 -0.21667225253E+02  0.39023267974E+02  0.46142318314E+02  0.10000005039E+02 0.  0.
        -12    1    1    2    0    0  0.60687185669E+01  0.21667225253E+02 -0.39023267974E+02  0.45045681686E+02  0.00000000000E+00 0.  1.
         11    1    3    3    0    0 -0.53934948265E+00 -0.40473797575E+00  0.33578650768E+01  0.34249042072E+01  0.51100000000E-03 0. -1.
        -11    1    3    3    0    0  0.21345049134E+01 -0.43699262829E+01  0.59136788169E+01  0.76566287852E+01  0.51100000000E-03 0.  1.
         12    1    3    3    0    0 -0.76638739977E+01 -0.16892560995E+02  0.29751724080E+02  0.35060785321E+02  0.00000000000E+00 0. -1.
</event>
<event>
 7    1  0.1486782E-008  0.4614232E+02  0.7816164E-02  0.1320468E+00
        -11   -1    0    0    0    0  0.00000000000E+00  0.00000000000E+00  0.45593999997E+02  0.45594000000E+02  0.51100000000E-03 0.  1.
         11   -1    0    0    0    0 -0.00000000000E+00 -0.00000000000E+00 -0.45593999997E+02  0.45594000000E+02  0.51100000000E-03 0. -1.
    9900012    2    1    2    0    0  0.35980634481E+02 -0.11507988834E+02 -0.24537188524E+02  0.46142317795E+02  0.10000000307E+02 0.  0.
        -12    1    1    2    0    0 -0.35980634481E+02  0.11507988834E+02  0.24537188524E+02  0.45045682205E+02  0.00000000000E+00 0.  1.
         11    1    3    3    0    0  0.19362587878E+02 -0.20037405172E+01 -0.12185662555E+02  0.22965521060E+02  0.51100000000E-03 0. -1.
        -11    1    3    3    0    0  0.13885973539E+02 -0.84904842830E+01 -0.85445963499E+01  0.18382565423E+02  0.51100000000E-03 0.  1.
        -12    1    3    3    0    0  0.27320730643E+01 -0.10137640341E+01 -0.38069296196E+01  0.47942313121E+01  0.00000000000E+00 0.  1.
</event>
<event>
 7    1  0.1486782E-008  0.4614231E+02  0.7816164E-02  0.1320468E+00
        -11   -1    0    0    0    0  0.00000000000E+00  0.00000000000E+00  0.45593999997E+02  0.45594000000E+02  0.51100000000E-03 0.  1.
         11   -1    0    0    0    0 -0.00000000000E+00 -0.00000000000E+00 -0.45593999997E+02  0.45594000000E+02  0.51100000000E-03 0. -1.
    9900012    2    1    2    0    0 -0.24970237356E+02  0.14670031457E+02 -0.34502046870E+02  0.46142314138E+02  0.99999669608E+01 0.  0.
        -12    1    1    2    0    0  0.24970237356E+02 -0.14670031457E+02  0.34502046870E+02  0.45045685862E+02  0.00000000000E+00 0.  1.
         11    1    3    3    0    0 -0.12451168898E+02  0.22836585466E+01 -0.17529435460E+02  0.21622391428E+02  0.51100000000E-03 0. -1.
        -11    1    3    3    0    0 -0.52176548790E+01  0.39852312856E+01 -0.62485490668E+01  0.90636833869E+01  0.51100000000E-03 0.  1.
         12    1    3    3    0    0 -0.73014135791E+01  0.84011416249E+01 -0.10724062343E+02  0.15456239323E+02  0.00000000000E+00 0. -1.
</event>
<event>
 7    1  0.1486782E-008  0.4614232E+02  0.7816164E-02  0.1320468E+00
        -11   -1    0    0    0    0  0.00000000000E+00  0.00000000000E+00  0.45593999997E+02  0.45594000000E+02  0.51100000000E-03 0.  1.
         11   -1    0    0    0    0 -0.00000000000E+00 -0.00000000000E+00 -0.45593999997E+02  0.45594000000E+02  0.51100000000E-03 0. -1.
    9900012    2    1    2    0    0 -0.34044499999E+02 -0.26548580743E+02 -0.12855284321E+02  0.46142318136E+02  0.10000003414E+02 0.  0.
        -12    1    1    2    0    0  0.34044499999E+02  0.26548580743E+02  0.12855284321E+02  0.45045681864E+02  0.00000000000E+00 0.  1.
         11    1    3    3    0    0 -0.34209058551E+01 -0.19158007618E+01  0.13616670526E+01  0.41505453680E+01  0.51100000000E-03 0. -1.
        -11    1    3    3    0    0 -0.24120501478E+01 -0.23518568601E+01 -0.24515282920E+01  0.41664382671E+01  0.51100000000E-03 0.  1.
         12    1    3    3    0    0 -0.28211543997E+02 -0.22280923121E+02 -0.11765423081E+02  0.37825334501E+02  0.00000000000E+00 0. -1.
</event>
<event>
 7    1  0.1486782E-008  0.4614232E+02  0.7816164E-02  0.1320468E+00
        -11   -1    0    0    0    0  0.00000000000E+00  0.00000000000E+00  0.45593999997E+02  0.45594000000E+02  0.51100000000E-03 0.  1.
         11   -1    0    0    0    0 -0.00000000000E+00 -0.00000000000E+00 -0.45593999997E+02  0.45594000000E+02  0.51100000000E-03 0. -1.
    9900012    2    1    2    0    0 -0.25987781183E+00  0.26323013842E+02 -0.36553314803E+02  0.46142318550E+02  0.10000007192E+02 0.  0.
        -12    1    1    2    0    0  0.25987781183E+00 -0.26323013842E+02  0.36553314803E+02  0.45045681450E+02  0.00000000000E+00 0.  1.
         11    1    3    3    0    0  0.25783957578E+01  0.29943219989E+01 -0.30185762133E+01  0.49725136032E+01  0.51100000000E-03 0. -1.
        -11    1    3    3    0    0  0.41087291672E+00  0.12462698886E+01 -0.35858278066E+01  0.38183984220E+01  0.51100000000E-03 0.  1.
         12    1    3    3    0    0 -0.32491464864E+01  0.22082421955E+02 -0.29948910783E+02  0.37351406525E+02  0.00000000000E+00 0. -1.
</event>
<event>
 7    1  0.1486782E-008  0.4614232E+02  0.7816164E-02  0.1320468E+00
        -11   -1    0    0    0    0  0.00000000000E+00  0.00000000000E+00  0.45593999997E+02  0.45594000000E+02  0.51100000000E-03 0.  1.
         11   -1    0    0    0    0 -0.00000000000E+00 -0.00000000000E+00 -0.45593999997E+02  0.45594000000E+02  0.51100000000E-03 0. -1.
    9900012    2    1    2    0    0  0.65889637900E+01 -0.42113326618E+02 -0.14565944504E+02  0.46142318054E+02  0.10000002674E+02 0.  0.
        -12    1    1    2    0    0 -0.65889637900E+01  0.42113326618E+02  0.14565944504E+02  0.45045681946E+02  0.00000000000E+00 0.  1.
         11    1    3    3    0    0  0.52464858254E+01 -0.17376209337E+02 -0.22308317344E+01  0.18287560661E+02  0.51100000000E-03 0. -1.
        -11    1    3    3    0    0 -0.21572564009E-01 -0.81092972058E+00 -0.11517579459E+01  0.14087650671E+01  0.51100000000E-03 0.  1.
         12    1    3    3    0    0  0.13640505287E+01 -0.23926187560E+02 -0.11183354823E+02  0.26445992326E+02  0.00000000000E+00 0. -1.
</event>
<event>
 7    1  0.1486782E-008  0.4614232E+02  0.7816164E-02  0.1320468E+00
        -11   -1    0    0    0    0  0.00000000000E+00  0.00000000000E+00  0.45593999997E+02  0.45594000000E+02  0.51100000000E-03 0.  1.
         11   -1    0    0    0    0 -0.00000000000E+00 -0.00000000000E+00 -0.45593999997E+02  0.45594000000E+02  0.51100000000E-03 0. -1.
    9900012    2    1    2    0    0  0.11886685123E+02  0.34701201672E+02 -0.26146640413E+02  0.46142317792E+02  0.10000000283E+02 0.  0.
        -12    1    1    2    0    0 -0.11886685123E+02 -0.34701201672E+02  0.26146640413E+02  0.45045682208E+02  0.00000000000E+00 0.  1.
         11    1    3    3    0    0  0.47097337673E+01  0.16786351706E+02 -0.10302791427E+02  0.20251190267E+02  0.51100000000E-03 0. -1.
        -11    1    3    3    0    0  0.77594824896E+01  0.11833963163E+02 -0.12731118526E+02  0.19035063221E+02  0.51100000000E-03 0.  1.
        -12    1    3    3    0    0 -0.58253113386E+00  0.60808868028E+01 -0.31127304606E+01  0.68560643047E+01  0.00000000000E+00 0.  1.
</event>
<event>
 7    1  0.1486782E-008  0.4614232E+02  0.7816164E-02  0.1320468E+00
        -11   -1    0    0    0    0  0.00000000000E+00  0.00000000000E+00  0.45593999997E+02  0.45594000000E+02  0.51100000000E-03 0.  1.
         11   -1    0    0    0    0 -0.00000000000E+00 -0.00000000000E+00 -0.45593999997E+02  0.45594000000E+02  0.51100000000E-03 0. -1.
    9900012    2    1    2    0    0 -0.72542775040E+01  0.27679899767E+02 -0.34789540042E+02  0.46142317748E+02  0.99999998820E+01 0.  0.
        -12    1    1    2    0    0  0.72542775040E+01 -0.27679899767E+02  0.34789540042E+02  0.45045682252E+02  0.00000000000E+00 0.  1.
         11    1    3    3    0    0  0.12607812093E+01  0.11954026900E+02 -0.13749135887E+02  0.18262723409E+02  0.51100000000E-03 0. -1.
        -11    1    3    3    0    0 -0.85558637784E+01  0.15446145524E+02 -0.21171123409E+02  0.27568146169E+02  0.51100000000E-03 0.  1.
        -12    1    3    3    0    0  0.40805064984E-01  0.27972734260E+00  0.13071925424E+00  0.31144817057E+00  0.00000000000E+00 0.  1.
</event>
<event>
 7    1  0.1486782E-008  0.4614232E+02  0.7816164E-02  0.1320468E+00
        -11   -1    0    0    0    0  0.00000000000E+00  0.00000000000E+00  0.45593999997E+02  0.45594000000E+02  0.51100000000E-03 0.  1.
         11   -1    0    0    0    0 -0.00000000000E+00 -0.00000000000E+00 -0.45593999997E+02  0.45594000000E+02  0.51100000000E-03 0. -1.
    9900012    2    1    2    0    0  0.21383753388E+02 -0.10231361732E+02 -0.38303625195E+02  0.46142319021E+02  0.10000011485E+02 0.  0.
        -12    1    1    2    0    0 -0.21383753388E+02  0.10231361732E+02  0.38303625195E+02  0.45045680979E+02  0.00000000000E+00 0.  1.
         11    1    3    3    0    0  0.45448700923E+01  0.11069559032E+01 -0.79926590481E+01  0.92608743889E+01  0.51100000000E-03 0.  1.
        -11    1    3    3    0    0  0.13138540642E+02 -0.60716617766E+01 -0.22595662818E+02  0.26833753099E+02  0.51100000000E-03 0. -1.
        -12    1    3    3    0    0  0.37003426530E+01 -0.52666558583E+01 -0.77153033290E+01  0.10047691533E+02  0.00000000000E+00 0.  1.
</event>
<event>
 7    1  0.1486782E-008  0.4614232E+02  0.7816164E-02  0.1320468E+00
        -11   -1    0    0    0    0  0.00000000000E+00  0.00000000000E+00  0.45593999997E+02  0.45594000000E+02  0.51100000000E-03 0.  1.
         11   -1    0    0    0    0 -0.00000000000E+00 -0.00000000000E+00 -0.45593999997E+02  0.45594000000E+02  0.51100000000E-03 0. -1.
    9900012    2    1    2    0    0 -0.27559520860E+02 -0.35512629478E+02  0.29050751915E+01  0.46142317584E+02  0.99999983838E+01 0.  0.
        -12    1    1    2    0    0  0.27559520860E+02  0.35512629478E+02 -0.29050751915E+01  0.45045682416E+02  0.00000000000E+00 0.  1.
         11    1    3    3    0    0 -0.14822331105E+02 -0.24082286184E+02  0.20655984583E+01  0.28353565993E+02  0.51100000000E-03 0. -1.
        -11    1    3    3    0    0 -0.85856463005E+01 -0.82395828210E+01 -0.16098327357E+01  0.12008147616E+02  0.51100000000E-03 0.  1.
        -12    1    3    3    0    0 -0.41515434543E+01 -0.31907604727E+01  0.24493094689E+01  0.57806039755E+01  0.00000000000E+00 0.  1.
</event>
<event>
 7    1  0.1486782E-008  0.4614232E+02  0.7816164E-02  0.1320468E+00
        -11   -1    0    0    0    0  0.00000000000E+00  0.00000000000E+00  0.45593999997E+02  0.45594000000E+02  0.51100000000E-03 0.  1.
         11   -1    0    0    0    0 -0.00000000000E+00 -0.00000000000E+00 -0.45593999997E+02  0.45594000000E+02  0.51100000000E-03 0. -1.
    9900012    2    1    2    0    0  0.40204879783E+02  0.94388352775E+00  0.20292613641E+02  0.46142318266E+02  0.10000004607E+02 0.  0.
        -12    1    1    2    0    0 -0.40204879783E+02 -0.94388352775E+00 -0.20292613641E+02  0.45045681734E+02  0.00000000000E+00 0.  1.
         11    1    3    3    0    0  0.17151436434E+02 -0.82299308095E+00  0.92038552730E+01  0.19482300725E+02  0.51100000000E-03 0. -1.
        -11    1    3    3    0    0  0.88779313592E+01 -0.28296353952E+01  0.36865757752E+01  0.10020745626E+02  0.51100000000E-03 0.  1.
         12    1    3    3    0    0  0.14175511989E+02  0.45965120039E+01  0.74021825930E+01  0.16639271916E+02  0.00000000000E+00 0. -1.
</event>
<event>
 7    1  0.1486782E-008  0.4614232E+02  0.7816164E-02  0.1320468E+00
        -11   -1    0    0    0    0  0.00000000000E+00  0.00000000000E+00  0.45593999997E+02  0.45594000000E+02  0.51100000000E-03 0.  1.
         11   -1    0    0    0    0 -0.00000000000E+00 -0.00000000000E+00 -0.45593999997E+02  0.45594000000E+02  0.51100000000E-03 0. -1.
    9900012    2    1    2    0    0  0.24122639816E+02  0.14201454663E+02 -0.35292072475E+02  0.46142318233E+02  0.10000004304E+02 0.  0.
        -12    1    1    2    0    0 -0.24122639816E+02 -0.14201454663E+02  0.35292072475E+02  0.45045681767E+02  0.00000000000E+00 0.  1.
         11    1    3    3    0    0  0.54464225394E+01 -0.40902214674E+00 -0.53241409378E+01  0.76274041837E+01  0.51100000000E-03 0. -1.
        -11    1    3    3    0    0  0.66172987363E+01  0.74133106761E+01 -0.99507419650E+01  0.14062826304E+02  0.51100000000E-03 0.  1.
        -12    1    3    3    0    0  0.12058918541E+02  0.71971661336E+01 -0.20017189572E+02  0.24452087745E+02  0.00000000000E+00 0.  1.
</event>
<event>
 7    1  0.1486782E-008  0.4614232E+02  0.7816164E-02  0.1320468E+00
        -11   -1    0    0    0    0  0.00000000000E+00  0.00000000000E+00  0.45593999997E+02  0.45594000000E+02  0.51100000000E-03 0.  1.
         11   -1    0    0    0    0 -0.00000000000E+00 -0.00000000000E+00 -0.45593999997E+02  0.45594000000E+02  0.51100000000E-03 0. -1.
    9900012    2    1    2    0    0 -0.57974399868E+01 -0.44630407806E+02  0.19052489449E+01  0.46142316690E+02  0.99999902300E+01 0.  0.
        -12    1    1    2    0    0  0.57974399868E+01  0.44630407806E+02 -0.19052489449E+01  0.45045683310E+02  0.00000000000E+00 0.  1.
         11    1    3    3    0    0 -0.35190193609E+01 -0.65151828770E+01  0.19573267132E+01  0.76591274507E+01  0.51100000000E-03 0. -1.
        -11    1    3    3    0    0 -0.28310558881E+01 -0.20512144886E+02 -0.18012383403E+01  0.20784788310E+02  0.51100000000E-03 0.  1.
         12    1    3    3    0    0  0.55263526223E+00 -0.17603080043E+02  0.17491605719E+01  0.17698400929E+02  0.00000000000E+00 0. -1.
</event>
<event>
 7    1  0.1486782E-008  0.4614232E+02  0.7816164E-02  0.1320468E+00
        -11   -1    0    0    0    0  0.00000000000E+00  0.00000000000E+00  0.45593999997E+02  0.45594000000E+02  0.51100000000E-03 0. -1.
         11   -1    0    0    0    0 -0.00000000000E+00 -0.00000000000E+00 -0.45593999997E+02  0.45594000000E+02  0.51100000000E-03 0.  1.
    9900012    2    1    2    0    0  0.22518114763E+02  0.14685884966E+02  0.36143778756E+02  0.46142318159E+02  0.10000003630E+02 0.  0.
        -12    1    1    2    0    0 -0.22518114763E+02 -0.14685884966E+02 -0.36143778756E+02  0.45045681841E+02  0.00000000000E+00 0.  1.
         11    1    3    3    0    0  0.92643777966E+01  0.43856880805E+01  0.13712984780E+02  0.17120423702E+02  0.51100000000E-03 0. -1.
        -11    1    3    3    0    0  0.52543909896E+01  0.70952632460E+01  0.15982147820E+02  0.18258708454E+02  0.51100000000E-03 0.  1.
        -12    1    3    3    0    0  0.79993459771E+01  0.32049336392E+01  0.64486461560E+01  0.10763186003E+02  0.00000000000E+00 0.  1.
</event>
<event>
 7    1  0.1486782E-008  0.4614232E+02  0.7816164E-02  0.1320468E+00
        -11   -1    0    0    0    0  0.00000000000E+00  0.00000000000E+00  0.45593999997E+02  0.45594000000E+02  0.51100000000E-03 0. -1.
         11   -1    0    0    0    0 -0.00000000000E+00 -0.00000000000E+00 -0.45593999997E+02  0.45594000000E+02  0.51100000000E-03 0.  1.
    9900012    2    1    2    0    0 -0.24612471705E+01  0.40252316957E+02  0.20070045544E+02  0.46142317785E+02  0.10000000221E+02 0.  0.
        -12    1    1    2    0    0  0.24612471705E+01 -0.40252316957E+02 -0.20070045544E+02  0.45045682215E+02  0.00000000000E+00 0.  1.
         11    1    3    3    0    0  0.17337272487E+01  0.15054770626E+02  0.99346199523E+01  0.18120391901E+02  0.51100000000E-03 0. -1.
        -11    1    3    3    0    0 -0.44153708463E+01  0.15419450689E+02  0.41951236757E+01  0.16578721970E+02  0.51100000000E-03 0.  1.
        -12    1    3    3    0    0  0.22039642712E+00  0.97780956417E+01  0.59403019161E+01  0.11443203914E+02  0.00000000000E+00 0.  1.
</event>
<event>
 7    1  0.1486782E-008  0.4614231E+02  0.7816164E-02  0.1320468E+00
        -11   -1    0    0    0    0  0.00000000000E+00  0.00000000000E+00  0.45593999997E+02  0.45594000000E+02  0.51100000000E-03 0.  1.
         11   -1    0    0    0    0 -0.00000000000E+00 -0.00000000000E+00 -0.45593999997E+02  0.45594000000E+02  0.51100000000E-03 0. -1.
    9900012    2    1    2    0    0  0.43561077010E+02 -0.45413073939E+01 -0.10531992272E+02  0.46142314698E+02  0.99999720686E+01 0.  0.
        -12    1    1    2    0    0 -0.43561077010E+02  0.45413073939E+01  0.10531992272E+02  0.45045685302E+02  0.00000000000E+00 0.  1.
         11    1    3    3    0    0  0.37121515275E+02 -0.34515792370E+01 -0.57788006666E+01  0.37726844991E+02  0.51100000000E-03 0. -1.
        -11    1    3    3    0    0  0.27915340357E+01  0.39422206743E+00 -0.29612807190E+01  0.40886742434E+01  0.51100000000E-03 0.  1.
         12    1    3    3    0    0  0.36480276988E+01 -0.14839502243E+01 -0.17919108865E+01  0.43267954636E+01  0.00000000000E+00 0. -1.
</event>
<event>
 7    1  0.1486782E-008  0.4614232E+02  0.7816164E-02  0.1320468E+00
        -11   -1    0    0    0    0  0.00000000000E+00  0.00000000000E+00  0.45593999997E+02  0.45594000000E+02  0.51100000000E-03 0. -1.
         11   -1    0    0    0    0 -0.00000000000E+00 -0.00000000000E+00 -0.45593999997E+02  0.45594000000E+02  0.51100000000E-03 0.  1.
    9900012    2    1    2    0    0  0.10446013888E+02 -0.32926092412E+02  0.28911360008E+02  0.46142317575E+02  0.99999983009E+01 0.  0.
        -12    1    1    2    0    0 -0.10446013888E+02  0.32926092412E+02 -0.28911360008E+02  0.45045682425E+02  0.00000000000E+00 0.  1.
         11    1    3    3    0    0  0.97144524352E+00 -0.88308708364E+01  0.10565929390E+02  0.13804595239E+02  0.51100000000E-03 0.  1.
        -11    1    3    3    0    0  0.17451131836E+01 -0.12422607180E+02  0.73771928649E+01  0.14552991583E+02  0.51100000000E-03 0. -1.
         12    1    3    3    0    0  0.77294554612E+01 -0.11672614395E+02  0.10968237753E+02  0.17784730753E+02  0.00000000000E+00 0. -1.
</event>
<event>
 7    1  0.1486782E-008  0.4614232E+02  0.7816164E-02  0.1320468E+00
        -11   -1    0    0    0    0  0.00000000000E+00  0.00000000000E+00  0.45593999997E+02  0.45594000000E+02  0.51100000000E-03 0.  1.
         11   -1    0    0    0    0 -0.00000000000E+00 -0.00000000000E+00 -0.45593999997E+02  0.45594000000E+02  0.51100000000E-03 0. -1.
    9900012    2    1    2    0    0 -0.62100968336E+01 -0.19576035973E+01 -0.44572592048E+02  0.46142317894E+02  0.10000001208E+02 0.  0.
        -12    1    1    2    0    0  0.62100968336E+01  0.19576035973E+01  0.44572592048E+02  0.45045682106E+02  0.00000000000E+00 0.  1.
         11    1    3    3    0    0 -0.19677837061E+01 -0.95485433556E-01 -0.20409509054E+01  0.28366831056E+01  0.51100000000E-03 0. -1.
        -11    1    3    3    0    0  0.13923785119E+01 -0.17425365914E+01 -0.75392846159E+01  0.78623129214E+01  0.51100000000E-03 0.  1.
         12    1    3    3    0    0 -0.56346916395E+01 -0.11958157229E+00 -0.34992356527E+02  0.35443321867E+02  0.00000000000E+00 0. -1.
</event>
<event>
 7    1  0.1592879E-008  0.4614232E+02  0.7816164E-02  0.1320468E+00
        -11   -1    0    0    0    0  0.00000000000E+00  0.00000000000E+00  0.45593999997E+02  0.45594000000E+02  0.51100000000E-03 0. -1.
         11   -1    0    0    0    0 -0.00000000000E+00 -0.00000000000E+00 -0.45593999997E+02  0.45594000000E+02  0.51100000000E-03 0.  1.
    9900012    2    1    2    0    0  0.24186882739E+02 -0.12739598822E+02  0.35802386250E+02  0.46142317233E+02  0.99999951799E+01 0.  0.
        -12    1    1    2    0    0 -0.24186882739E+02  0.12739598822E+02 -0.35802386250E+02  0.45045682767E+02  0.00000000000E+00 0.  1.
         11    1    3    3    0    0  0.21225927702E+02 -0.13491788654E+02  0.34152011034E+02  0.42413774010E+02  0.51100000000E-03 0. -1.
        -11    1    3    3    0    0  0.20855091024E+01 -0.95656613520E-01  0.13043204940E+01  0.24616560719E+01  0.51100000000E-03 0.  1.
         12    1    3    3    0    0  0.87544593535E+00  0.84784644546E+00  0.34605472195E+00  0.12668871502E+01  0.00000000000E+00 0. -1.
</event>
<event>
 7    1  0.1486782E-008  0.4614232E+02  0.7816164E-02  0.1320468E+00
        -11   -1    0    0    0    0  0.00000000000E+00  0.00000000000E+00  0.45593999997E+02  0.45594000000E+02  0.51100000000E-03 0. -1.
         11   -1    0    0    0    0 -0.00000000000E+00 -0.00000000000E+00 -0.45593999997E+02  0.45594000000E+02  0.51100000000E-03 0.  1.
    9900012    2    1    2    0    0 -0.27192965434E+00 -0.33422703039E+02  0.30198715962E+02  0.46142317966E+02  0.10000001866E+02 0.  0.
        -12    1    1    2    0    0  0.27192965434E+00  0.33422703039E+02 -0.30198715962E+02  0.45045682034E+02  0.00000000000E+00 0.  1.
         11    1    3    3    0    0  0.29963915830E+01 -0.16942449003E+02  0.16177609913E+02  0.23616519716E+02  0.51100000000E-03 0.  1.
        -11    1    3    3    0    0  0.92491836646E-01 -0.87214505994E+01  0.96495461656E+01  0.13007151754E+02  0.51100000000E-03 0. -1.
         12    1    3    3    0    0 -0.33608130739E+01 -0.77588034372E+01  0.43715598826E+01  0.95186464953E+01  0.00000000000E+00 0. -1.
</event>
<event>
 7    1  0.1486782E-008  0.4614231E+02  0.7816164E-02  0.1320468E+00
        -11   -1    0    0    0    0  0.00000000000E+00  0.00000000000E+00  0.45593999997E+02  0.45594000000E+02  0.51100000000E-03 0.  1.
         11   -1    0    0    0    0 -0.00000000000E+00 -0.00000000000E+00 -0.45593999997E+02  0.45594000000E+02  0.51100000000E-03 0. -1.
    9900012    2    1    2    0    0 -0.63427366497E+01 -0.21682592403E+02 -0.38971130613E+02  0.46142310498E+02  0.99999337655E+01 0.  0.
        -12    1    1    2    0    0  0.63427366497E+01  0.21682592403E+02  0.38971130613E+02  0.45045689502E+02  0.00000000000E+00 0.  1.
         11    1    3    3    0    0 -0.16449837974E+01 -0.57305301938E+01 -0.19737414073E+02  0.20618207064E+02  0.51100000000E-03 0. -1.
        -11    1    3    3    0    0 -0.30715842397E+01 -0.10566347935E+02 -0.11060604147E+02  0.15601900614E+02  0.51100000000E-03 0.  1.
         12    1    3    3    0    0 -0.16261686126E+01 -0.53857142741E+01 -0.81731123930E+01  0.99222028193E+01  0.00000000000E+00 0. -1.
</event>
<event>
 7    1  0.1486782E-008  0.4614231E+02  0.7816164E-02  0.1320468E+00
        -11   -1    0    0    0    0  0.00000000000E+00  0.00000000000E+00  0.45593999997E+02  0.45594000000E+02  0.51100000000E-03 0.  1.
         11   -1    0    0    0    0 -0.00000000000E+00 -0.00000000000E+00 -0.45593999997E+02  0.45594000000E+02  0.51100000000E-03 0. -1.
    9900012    2    1    2    0    0  0.18223562554E+02 -0.41058459297E+02 -0.33494277492E+01  0.46142312324E+02  0.99999504172E+01 0.  0.
        -12    1    1    2    0    0 -0.18223562554E+02  0.41058459297E+02  0.33494277492E+01  0.45045687676E+02  0.00000000000E+00 0.  1.
         11    1    3    3    0    0  0.11672218202E+02 -0.26159717520E+02  0.57559974468E+00  0.28651401603E+02  0.51100000000E-03 0. -1.
        -11    1    3    3    0    0 -0.33563594551E+00 -0.99392250958E-01 -0.79711738744E+00  0.87058985633E+00  0.51100000000E-03 0.  1.
        -12    1    3    3    0    0  0.68869802973E+01 -0.14799349526E+02 -0.31279101065E+01  0.16620320865E+02  0.00000000000E+00 0.  1.
</event>
<event>
 7    1  0.1486782E-008  0.4614232E+02  0.7816164E-02  0.1320468E+00
        -11   -1    0    0    0    0  0.00000000000E+00  0.00000000000E+00  0.45593999997E+02  0.45594000000E+02  0.51100000000E-03 0.  1.
         11   -1    0    0    0    0 -0.00000000000E+00 -0.00000000000E+00 -0.45593999997E+02  0.45594000000E+02  0.51100000000E-03 0. -1.
    9900012    2    1    2    0    0  0.17455315544E+02  0.75665962598E+00 -0.41519307829E+02  0.46142317664E+02  0.99999991122E+01 0.  0.
        -12    1    1    2    0    0 -0.17455315544E+02 -0.75665962598E+00  0.41519307829E+02  0.45045682336E+02  0.00000000000E+00 0.  1.
         11    1    3    3    0    0  0.10269566296E+02  0.27042909223E+01 -0.19546544904E+02  0.22245102815E+02  0.51100000000E-03 0. -1.
        -11    1    3    3    0    0  0.59223354655E+01 -0.12486242215E+01 -0.21562947575E+02  0.22396290501E+02  0.51100000000E-03 0.  1.
        -12    1    3    3    0    0  0.12634137823E+01 -0.69900707479E+00 -0.40981534952E+00  0.15009243474E+01  0.00000000000E+00 0.  1.
</event>
<event>
 7    1  0.1486782E-008  0.4614232E+02  0.7816164E-02  0.1320468E+00
        -11   -1    0    0    0    0  0.00000000000E+00  0.00000000000E+00  0.45593999997E+02  0.45594000000E+02  0.51100000000E-03 0.  1.
         11   -1    0    0    0    0 -0.00000000000E+00 -0.00000000000E+00 -0.45593999997E+02  0.45594000000E+02  0.51100000000E-03 0. -1.
    9900012    2    1    2    0    0  0.41565703930E+02  0.98425713820E+01 -0.14301382582E+02  0.46142317651E+02  0.99999989922E+01 0.  0.
        -12    1    1    2    0    0 -0.41565703930E+02 -0.98425713820E+01  0.14301382582E+02  0.45045682349E+02  0.00000000000E+00 0.  1.
         11    1    3    3    0    0  0.18359901732E+02  0.47233815437E+01 -0.40582804826E+01  0.19387262972E+02  0.51100000000E-03 0. -1.
        -11    1    3    3    0    0  0.41862952862E+01  0.23315227263E+01 -0.47865472173E+01  0.67728945784E+01  0.51100000000E-03 0.  1.
        -12    1    3    3    0    0  0.19019506911E+02  0.27876671121E+01 -0.54565548817E+01  0.19982160100E+02  0.00000000000E+00 0.  1.
</event>
<event>
 7    1  0.1486782E-008  0.4614232E+02  0.7816164E-02  0.1320468E+00
        -11   -1    0    0    0    0  0.00000000000E+00  0.00000000000E+00  0.45593999997E+02  0.45594000000E+02  0.51100000000E-03 0.  1.
         11   -1    0    0    0    0 -0.00000000000E+00 -0.00000000000E+00 -0.45593999997E+02  0.45594000000E+02  0.51100000000E-03 0. -1.
    9900012    2    1    2    0    0 -0.23234615395E+02  0.31486038406E+02 -0.22313576403E+02  0.46142315867E+02  0.99999827325E+01 0.  0.
        -12    1    1    2    0    0  0.23234615395E+02 -0.31486038406E+02  0.22313576403E+02  0.45045684133E+02  0.00000000000E+00 0.  1.
         11    1    3    3    0    0 -0.17688645092E+01  0.88269264378E+00 -0.28581112542E+01  0.34751731120E+01  0.51100000000E-03 0. -1.
        -11    1    3    3    0    0 -0.46067850970E+00 -0.33393677137E+00 -0.41646925876E+00  0.70511372216E+00  0.51100000000E-03 0.  1.
         12    1    3    3    0    0 -0.21005072377E+02  0.30937282533E+02 -0.19038995890E+02  0.41962029033E+02  0.00000000000E+00 0. -1.
</event>
<event>
 7    1  0.1486782E-008  0.4614232E+02  0.7816164E-02  0.1320468E+00
        -11   -1    0    0    0    0  0.00000000000E+00  0.00000000000E+00  0.45593999997E+02  0.45594000000E+02  0.51100000000E-03 0. -1.
         11   -1    0    0    0    0 -0.00000000000E+00 -0.00000000000E+00 -0.45593999997E+02  0.45594000000E+02  0.51100000000E-03 0.  1.
    9900012    2    1    2    0    0  0.39928684947E+01  0.44505550408E+02 -0.56944327979E+01  0.46142316735E+02  0.99999906438E+01 0.  0.
        -12    1    1    2    0    0 -0.39928684947E+01 -0.44505550408E+02  0.56944327979E+01  0.45045683265E+02  0.00000000000E+00 0.  1.
         11    1    3    3    0    0  0.23940653306E+01  0.33238010989E+02 -0.31999490761E+01  0.33477404285E+02  0.51100000000E-03 0. -1.
        -11    1    3    3    0    0 -0.14070628386E+01  0.46345491529E+01 -0.23445935356E+01  0.53810771032E+01  0.51100000000E-03 0.  1.
        -12    1    3    3    0    0  0.30058660026E+01  0.66329902662E+01 -0.14989018624E+00  0.72838353472E+01  0.00000000000E+00 0.  1.
</event>
<event>
 7    1  0.1486782E-008  0.4614232E+02  0.7816164E-02  0.1320468E+00
        -11   -1    0    0    0    0  0.00000000000E+00  0.00000000000E+00  0.45593999997E+02  0.45594000000E+02  0.51100000000E-03 0.  1.
         11   -1    0    0    0    0 -0.00000000000E+00 -0.00000000000E+00 -0.45593999997E+02  0.45594000000E+02  0.51100000000E-03 0. -1.
    9900012    2    1    2    0    0  0.19250618813E+02  0.28303469099E+02 -0.29282092825E+02  0.46142315990E+02  0.99999838500E+01 0.  0.
        -12    1    1    2    0    0 -0.19250618813E+02 -0.28303469099E+02  0.29282092825E+02  0.45045684010E+02  0.00000000000E+00 0.  1.
         11    1    3    3    0    0  0.59343714512E+01  0.62355227230E+01 -0.89575960085E+01  0.12423245738E+02  0.51100000000E-03 0. -1.
        -11    1    3    3    0    0  0.66423902771E+01  0.12948941016E+02 -0.67094358865E+01  0.16025384620E+02  0.51100000000E-03 0.  1.
        -12    1    3    3    0    0  0.66738570846E+01  0.91190053602E+01 -0.13615060930E+02  0.17693685632E+02  0.00000000000E+00 0.  1.
</event>
<event>
 7    1  0.1486782E-008  0.4614232E+02  0.7816164E-02  0.1320468E+00
        -11   -1    0    0    0    0  0.00000000000E+00  0.00000000000E+00  0.45593999997E+02  0.45594000000E+02  0.51100000000E-03 0.  1.
         11   -1    0    0    0    0 -0.00000000000E+00 -0.00000000000E+00 -0.45593999997E+02  0.45594000000E+02  0.51100000000E-03 0. -1.
    9900012    2    1    2    0    0  0.36265351281E+02 -0.22921219735E+02 -0.13731553626E+02  0.46142316715E+02  0.99999904572E+01 0.  0.
        -12    1    1    2    0    0 -0.36265351281E+02  0.22921219735E+02  0.13731553626E+02  0.45045683285E+02  0.00000000000E+00 0.  1.
         11    1    3    3    0    0  0.78325905044E+01 -0.68692653775E+01 -0.31852683448E+01  0.10894136750E+02  0.51100000000E-03 0. -1.
        -11    1    3    3    0    0  0.19363429608E+02 -0.13849107630E+02 -0.47919586387E+01  0.24283802342E+02  0.51100000000E-03 0.  1.
        -12    1    3    3    0    0  0.90693311681E+01 -0.22028467279E+01 -0.57543266422E+01  0.10964377622E+02  0.00000000000E+00 0.  1.
</event>
<event>
 7    1  0.1486782E-008  0.4614232E+02  0.7816164E-02  0.1320468E+00
        -11   -1    0    0    0    0  0.00000000000E+00  0.00000000000E+00  0.45593999997E+02  0.45594000000E+02  0.51100000000E-03 0.  1.
         11   -1    0    0    0    0 -0.00000000000E+00 -0.00000000000E+00 -0.45593999997E+02  0.45594000000E+02  0.51100000000E-03 0. -1.
    9900012    2    1    2    0    0  0.34907321806E+02 -0.25589134325E+02 -0.12481530930E+02  0.46142317349E+02  0.99999962386E+01 0.  0.
        -12    1    1    2    0    0 -0.34907321806E+02  0.25589134325E+02  0.12481530930E+02  0.45045682651E+02  0.00000000000E+00 0.  1.
         11    1    3    3    0    0  0.19156218647E+02 -0.12937365472E+02 -0.10980473319E+02  0.25591149501E+02  0.51100000000E-03 0. -1.
        -11    1    3    3    0    0  0.12904691859E+02 -0.93128656240E+01 -0.23366445267E+01  0.16084789275E+02  0.51100000000E-03 0.  1.
         12    1    3    3    0    0  0.28464112996E+01 -0.33389032297E+01  0.83558691588E+00  0.44663785731E+01  0.00000000000E+00 0. -1.
</event>
<event>
 7    1  0.1486782E-008  0.4614232E+02  0.7816164E-02  0.1320468E+00
        -11   -1    0    0    0    0  0.00000000000E+00  0.00000000000E+00  0.45593999997E+02  0.45594000000E+02  0.51100000000E-03 0. -1.
         11   -1    0    0    0    0 -0.00000000000E+00 -0.00000000000E+00 -0.45593999997E+02  0.45594000000E+02  0.51100000000E-03 0.  1.
    9900012    2    1    2    0    0 -0.17690779017E+02 -0.30038724006E+02  0.28527615244E+02  0.46142318368E+02  0.10000005539E+02 0.  0.
        -12    1    1    2    0    0  0.17690779017E+02  0.30038724006E+02 -0.28527615244E+02  0.45045681632E+02  0.00000000000E+00 0.  1.
         11    1    3    3    0    0 -0.11265113850E+02 -0.17730014381E+02  0.16013652097E+02  0.26413883730E+02  0.51100000000E-03 0. -1.
        -11    1    3    3    0    0 -0.34465331489E+01 -0.64800890493E+01  0.24784437478E+01  0.77467947246E+01  0.51100000000E-03 0.  1.
        -12    1    3    3    0    0 -0.29791320187E+01 -0.58286205761E+01  0.10035519399E+02  0.11981639913E+02  0.00000000000E+00 0.  1.
</event>
<event>
 7    1  0.1486782E-008  0.4614232E+02  0.7816164E-02  0.1320468E+00
        -11   -1    0    0    0    0  0.00000000000E+00  0.00000000000E+00  0.45593999997E+02  0.45594000000E+02  0.51100000000E-03 0.  1.
         11   -1    0    0    0    0 -0.00000000000E+00 -0.00000000000E+00 -0.45593999997E+02  0.45594000000E+02  0.51100000000E-03 0. -1.
    9900012    2    1    2    0    0 -0.38651865326E+01  0.10755680518E+02 -0.43571655868E+02  0.46142317349E+02  0.99999962450E+01 0.  0.
        -12    1    1    2    0    0  0.38651865326E+01 -0.10755680518E+02  0.43571655868E+02  0.45045682651E+02  0.00000000000E+00 0.  1.
         11    1    3    3    0    0 -0.21793790667E+01  0.27985790436E+01 -0.67981960065E+01  0.76679336841E+01  0.51100000000E-03 0. -1.
        -11    1    3    3    0    0 -0.19329015979E+01 -0.11172197590E+01 -0.76214525943E+01  0.79417144551E+01  0.51100000000E-03 0.  1.
        -12    1    3    3    0    0  0.24709413202E+00  0.90743212338E+01 -0.29152007268E+02  0.30532669210E+02  0.00000000000E+00 0.  1.
</event>
<event>
 7    1  0.1486782E-008  0.4614232E+02  0.7816164E-02  0.1320468E+00
        -11   -1    0    0    0    0  0.00000000000E+00  0.00000000000E+00  0.45593999997E+02  0.45594000000E+02  0.51100000000E-03 0.  1.
         11   -1    0    0    0    0 -0.00000000000E+00 -0.00000000000E+00 -0.45593999997E+02  0.45594000000E+02  0.51100000000E-03 0. -1.
    9900012    2    1    2    0    0 -0.26758554761E+02  0.34967097306E+02 -0.95076463664E+01  0.46142317783E+02  0.10000000201E+02 0.  0.
        -12    1    1    2    0    0  0.26758554761E+02 -0.34967097306E+02  0.95076463664E+01  0.45045682217E+02  0.00000000000E+00 0.  1.
         11    1    3    3    0    0 -0.14021483005E+02  0.12911110274E+02 -0.38022353068E+01  0.19435939590E+02  0.51100000000E-03 0. -1.
        -11    1    3    3    0    0 -0.97019744364E+01  0.17895658845E+02 -0.21959755671E+01  0.20474501763E+02  0.51100000000E-03 0.  1.
        -12    1    3    3    0    0 -0.30350973201E+01  0.41603281872E+01 -0.35094354925E+01  0.62318764303E+01  0.00000000000E+00 0.  1.
</event>
<event>
 7    1  0.1486782E-008  0.4614232E+02  0.7816164E-02  0.1320468E+00
        -11   -1    0    0    0    0  0.00000000000E+00  0.00000000000E+00  0.45593999997E+02  0.45594000000E+02  0.51100000000E-03 0.  1.
         11   -1    0    0    0    0 -0.00000000000E+00 -0.00000000000E+00 -0.45593999997E+02  0.45594000000E+02  0.51100000000E-03 0. -1.
    9900012    2    1    2    0    0  0.77457559536E+01  0.12357602076E+02 -0.42619317551E+02  0.46142319931E+02  0.10000019785E+02 0.  0.
        -12    1    1    2    0    0 -0.77457559536E+01 -0.12357602076E+02  0.42619317551E+02  0.45045680069E+02  0.00000000000E+00 0.  1.
         11    1    3    3    0    0  0.76602305827E+01  0.10802676124E+02 -0.24352540486E+02  0.27720446829E+02  0.51100000000E-03 0. -1.
        -11    1    3    3    0    0 -0.64916682499E+00  0.11723419147E+01 -0.14663702062E+02  0.14724807692E+02  0.51100000000E-03 0.  1.
        -12    1    3    3    0    0  0.73469219592E+00  0.38258403791E+00 -0.36030750028E+01  0.36970654099E+01  0.00000000000E+00 0.  1.
</event>
<event>
 7    1  0.1486782E-008  0.4614232E+02  0.7816164E-02  0.1320468E+00
        -11   -1    0    0    0    0  0.00000000000E+00  0.00000000000E+00  0.45593999997E+02  0.45594000000E+02  0.51100000000E-03 0. -1.
         11   -1    0    0    0    0 -0.00000000000E+00 -0.00000000000E+00 -0.45593999997E+02  0.45594000000E+02  0.51100000000E-03 0.  1.
    9900012    2    1    2    0    0 -0.42428539311E+02 -0.88024679188E+01 -0.12306466477E+02  0.46142317557E+02  0.99999981432E+01 0.  0.
        -12    1    1    2    0    0  0.42428539311E+02  0.88024679188E+01  0.12306466477E+02  0.45045682443E+02  0.00000000000E+00 0.  1.
         11    1    3    3    0    0 -0.24542045497E+02 -0.10363700905E+01 -0.41063965770E+01  0.24904789765E+02  0.51100000000E-03 0. -1.
        -11    1    3    3    0    0 -0.72855446716E+01 -0.30948272049E+01 -0.43369756967E+01  0.90258780761E+01  0.51100000000E-03 0.  1.
         12    1    3    3    0    0 -0.10600949143E+02 -0.46712706234E+01 -0.38630942034E+01  0.12211649716E+02  0.00000000000E+00 0. -1.
</event>
<event>
 7    1  0.1486782E-008  0.4614232E+02  0.7816164E-02  0.1320468E+00
        -11   -1    0    0    0    0  0.00000000000E+00  0.00000000000E+00  0.45593999997E+02  0.45594000000E+02  0.51100000000E-03 0.  1.
         11   -1    0    0    0    0 -0.00000000000E+00 -0.00000000000E+00 -0.45593999997E+02  0.45594000000E+02  0.51100000000E-03 0. -1.
    9900012    2    1    2    0    0 -0.10177056048E+02  0.28131861277E+02 -0.33676985244E+02  0.46142318477E+02  0.10000006531E+02 0.  0.
        -12    1    1    2    0    0  0.10177056048E+02 -0.28131861277E+02  0.33676985244E+02  0.45045681523E+02  0.00000000000E+00 0.  1.
         11    1    3    3    0    0 -0.71059551551E+01  0.20466309241E+02 -0.26707564419E+02  0.34389800960E+02  0.51100000000E-03 0. -1.
        -11    1    3    3    0    0  0.15955603278E+00  0.61394909912E+00  0.62977964074E+00  0.89387598744E+00  0.51100000000E-03 0.  1.
        -12    1    3    3    0    0 -0.32306569253E+01  0.70516029377E+01 -0.75992004652E+01  0.10858641530E+02  0.00000000000E+00 0.  1.
</event>
<event>
 7    1  0.1486782E-008  0.4614232E+02  0.7816164E-02  0.1320468E+00
        -11   -1    0    0    0    0  0.00000000000E+00  0.00000000000E+00  0.45593999997E+02  0.45594000000E+02  0.51100000000E-03 0.  1.
         11   -1    0    0    0    0 -0.00000000000E+00 -0.00000000000E+00 -0.45593999997E+02  0.45594000000E+02  0.51100000000E-03 0. -1.
    9900012    2    1    2    0    0 -0.41951782705E+02 -0.15930418512E+02 -0.39221369900E+01  0.46142318024E+02  0.10000002399E+02 0.  0.
        -12    1    1    2    0    0  0.41951782705E+02  0.15930418512E+02  0.39221369900E+01  0.45045681976E+02  0.00000000000E+00 0.  1.
         11    1    3    3    0    0 -0.95453287508E+01 -0.37548453064E+01 -0.43584401652E+01  0.11144871698E+02  0.51100000000E-03 0. -1.
        -11    1    3    3    0    0 -0.19844416249E+02 -0.52217265130E+01  0.16608241667E+01  0.20587025555E+02  0.51100000000E-03 0.  1.
        -12    1    3    3    0    0 -0.12562037705E+02 -0.69538466925E+01 -0.12245209915E+01  0.14410420771E+02  0.00000000000E+00 0.  1.
</event>
<event>
 7    1  0.1486782E-008  0.4614232E+02  0.7816164E-02  0.1320468E+00
        -11   -1    0    0    0    0  0.00000000000E+00  0.00000000000E+00  0.45593999997E+02  0.45594000000E+02  0.51100000000E-03 0.  1.
         11   -1    0    0    0    0 -0.00000000000E+00 -0.00000000000E+00 -0.45593999997E+02  0.45594000000E+02  0.51100000000E-03 0. -1.
    9900012    2    1    2    0    0 -0.10409019774E+02 -0.25093898641E+01 -0.43754642015E+02  0.46142318431E+02  0.10000006107E+02 0.  0.
        -12    1    1    2    0    0  0.10409019774E+02  0.25093898641E+01  0.43754642015E+02  0.45045681569E+02  0.00000000000E+00 0.  1.
         11    1    3    3    0    0  0.11477934712E+01 -0.13238922511E+01 -0.37196369291E+01  0.41116687233E+01  0.51100000000E-03 0.  1.
        -11    1    3    3    0    0 -0.59883887656E+01  0.19839444582E+01 -0.17493142325E+02  0.18595882993E+02  0.51100000000E-03 0. -1.
         12    1    3    3    0    0 -0.55684244793E+01 -0.31694420713E+01 -0.22541862761E+02  0.23434766714E+02  0.00000000000E+00 0. -1.
</event>
<event>
 7    1  0.1486782E-008  0.4614231E+02  0.7816164E-02  0.1320468E+00
        -11   -1    0    0    0    0  0.00000000000E+00  0.00000000000E+00  0.45593999997E+02  0.45594000000E+02  0.51100000000E-03 0.  1.
         11   -1    0    0    0    0 -0.00000000000E+00 -0.00000000000E+00 -0.45593999997E+02  0.45594000000E+02  0.51100000000E-03 0. -1.
    9900012    2    1    2    0    0  0.31171639625E+02 -0.10993194014E+02 -0.30603796685E+02  0.46142314268E+02  0.99999681462E+01 0.  0.
        -12    1    1    2    0    0 -0.31171639625E+02  0.10993194014E+02  0.30603796685E+02  0.45045685732E+02  0.00000000000E+00 0.  1.
         11    1    3    3    0    0  0.19417939751E+02 -0.11671916383E+02 -0.21192491849E+02  0.31022761439E+02  0.51100000000E-03 0. -1.
        -11    1    3    3    0    0  0.51534721564E+01  0.14062282281E+00 -0.48530045962E+01  0.70802333236E+01  0.51100000000E-03 0.  1.
         12    1    3    3    0    0  0.66002277173E+01  0.53809954590E+00 -0.45583002394E+01  0.80393195056E+01  0.00000000000E+00 0. -1.
</event>
<event>
 7    1  0.1486782E-008  0.4614232E+02  0.7816164E-02  0.1320468E+00
        -11   -1    0    0    0    0  0.00000000000E+00  0.00000000000E+00  0.45593999997E+02  0.45594000000E+02  0.51100000000E-03 0. -1.
         11   -1    0    0    0    0 -0.00000000000E+00 -0.00000000000E+00 -0.45593999997E+02  0.45594000000E+02  0.51100000000E-03 0.  1.
    9900012    2    1    2    0    0  0.18211759289E+02  0.79687380488E+00  0.41192357095E+02  0.46142317995E+02  0.10000002136E+02 0.  0.
        -12    1    1    2    0    0 -0.18211759289E+02 -0.79687380488E+00 -0.41192357095E+02  0.45045682005E+02  0.00000000000E+00 0.  1.
         11    1    3    3    0    0  0.14250203723E+02 -0.13021552709E+01  0.31461577696E+02  0.34562910553E+02  0.51100000000E-03 0. -1.
        -11    1    3    3    0    0  0.22486365305E+01 -0.95695241899E+00  0.22627324508E+01  0.33304778311E+01  0.51100000000E-03 0.  1.
         12    1    3    3    0    0  0.17129190351E+01  0.30559814948E+01  0.74680469479E+01  0.82489296114E+01  0.00000000000E+00 0. -1.
</event>
<event>
 7    1  0.1486782E-008  0.4614232E+02  0.7816164E-02  0.1320468E+00
        -11   -1    0    0    0    0  0.00000000000E+00  0.00000000000E+00  0.45593999997E+02  0.45594000000E+02  0.51100000000E-03 0. -1.
         11   -1    0    0    0    0 -0.00000000000E+00 -0.00000000000E+00 -0.45593999997E+02  0.45594000000E+02  0.51100000000E-03 0.  1.
    9900012    2    1    2    0    0  0.19539510537E+02  0.30622816175E+02 -0.26637644681E+02  0.46142318113E+02  0.10000003207E+02 0.  0.
        -12    1    1    2    0    0 -0.19539510537E+02 -0.30622816175E+02  0.26637644681E+02  0.45045681887E+02  0.00000000000E+00 0.  1.
         11    1    3    3    0    0  0.10491769104E+02  0.14807133828E+02 -0.14022011917E+02  0.22933496235E+02  0.51100000000E-03 0. -1.
        -11    1    3    3    0    0  0.24328170929E+01  0.10557346225E+02 -0.54409057840E+01  0.12123514933E+02  0.51100000000E-03 0.  1.
        -12    1    3    3    0    0  0.66149243408E+01  0.52583361220E+01 -0.71747269802E+01  0.11085306944E+02  0.00000000000E+00 0.  1.
</event>
<event>
 7    1  0.1486782E-008  0.4614232E+02  0.7816164E-02  0.1320468E+00
        -11   -1    0    0    0    0  0.00000000000E+00  0.00000000000E+00  0.45593999997E+02  0.45594000000E+02  0.51100000000E-03 0.  1.
         11   -1    0    0    0    0 -0.00000000000E+00 -0.00000000000E+00 -0.45593999997E+02  0.45594000000E+02  0.51100000000E-03 0. -1.
    9900012    2    1    2    0    0 -0.34162769158E+02 -0.20453370217E+02 -0.21063674275E+02  0.46142317369E+02  0.99999964238E+01 0.  0.
        -12    1    1    2    0    0  0.34162769158E+02  0.20453370217E+02  0.21063674275E+02  0.45045682631E+02  0.00000000000E+00 0.  1.
         11    1    3    3    0    0 -0.43059600215E+01 -0.57494161290E+01 -0.61475498380E+01  0.94545992407E+01  0.51100000000E-03 0. -1.
        -11    1    3    3    0    0 -0.83995401379E+01 -0.21958985381E+01 -0.38686980898E+01  0.95047919540E+01  0.51100000000E-03 0.  1.
         12    1    3    3    0    0 -0.21457268999E+02 -0.12508055549E+02 -0.11047426347E+02  0.27182926174E+02  0.00000000000E+00 0. -1.
</event>
<event>
 7    1  0.1486782E-008  0.4614231E+02  0.7816164E-02  0.1320468E+00
        -11   -1    0    0    0    0  0.00000000000E+00  0.00000000000E+00  0.45593999997E+02  0.45594000000E+02  0.51100000000E-03 0.  1.
         11   -1    0    0    0    0 -0.00000000000E+00 -0.00000000000E+00 -0.45593999997E+02  0.45594000000E+02  0.51100000000E-03 0. -1.
    9900012    2    1    2    0    0 -0.35547593350E+02  0.27374407589E+02 -0.40155457956E+01  0.46142309952E+02  0.99999287932E+01 0.  0.
        -12    1    1    2    0    0  0.35547593350E+02 -0.27374407589E+02  0.40155457956E+01  0.45045690048E+02  0.00000000000E+00 0.  1.
         11    1    3    3    0    0 -0.13733084358E+02  0.12997184720E+02 -0.33225862374E+01  0.19198020632E+02  0.51100000000E-03 0. -1.
        -11    1    3    3    0    0 -0.86441280139E+01  0.83629514586E+01  0.20702948088E+01  0.12204344598E+02  0.51100000000E-03 0.  1.
        -12    1    3    3    0    0 -0.13170380978E+02  0.60142714111E+01 -0.27632543671E+01  0.14739944722E+02  0.00000000000E+00 0.  1.
</event>
<event>
 7    1  0.1486782E-008  0.4614233E+02  0.7816164E-02  0.1320468E+00
        -11   -1    0    0    0    0  0.00000000000E+00  0.00000000000E+00  0.45593999997E+02  0.45594000000E+02  0.51100000000E-03 0. -1.
         11   -1    0    0    0    0 -0.00000000000E+00 -0.00000000000E+00 -0.45593999997E+02  0.45594000000E+02  0.51100000000E-03 0.  1.
    9900012    2    1    2    0    0 -0.62402180933E+01 -0.12827256209E+02  0.42727431563E+02  0.46142331711E+02  0.10000127201E+02 0.  0.
        -12    1    1    2    0    0  0.62402180933E+01  0.12827256209E+02 -0.42727431563E+02  0.45045668289E+02  0.00000000000E+00 0.  1.
         11    1    3    3    0    0 -0.21717919351E+01  0.31710654889E+00  0.11633966462E+02  0.11839189696E+02  0.51100000000E-03 0.  1.
        -11    1    3    3    0    0 -0.44115431896E+01 -0.66527853277E+01  0.17575357458E+02  0.19303223978E+02  0.51100000000E-03 0. -1.
        -12    1    3    3    0    0  0.34311703150E+00 -0.64915774301E+01  0.13518107643E+02  0.14999918036E+02  0.00000000000E+00 0.  1.
</event>
<event>
 7    1  0.1486782E-008  0.4614231E+02  0.7816164E-02  0.1320468E+00
        -11   -1    0    0    0    0  0.00000000000E+00  0.00000000000E+00  0.45593999997E+02  0.45594000000E+02  0.51100000000E-03 0. -1.
         11   -1    0    0    0    0 -0.00000000000E+00 -0.00000000000E+00 -0.45593999997E+02  0.45594000000E+02  0.51100000000E-03 0.  1.
    9900012    2    1    2    0    0 -0.19188775938E+02  0.11044061584E+02  0.39229246080E+02  0.46142310237E+02  0.99999313857E+01 0.  0.
        -12    1    1    2    0    0  0.19188775938E+02 -0.11044061584E+02 -0.39229246080E+02  0.45045689763E+02  0.00000000000E+00 0.  1.
         11    1    3    3    0    0 -0.83270973462E+01  0.57761122110E+01  0.18297357576E+02  0.20916436528E+02  0.51100000000E-03 0. -1.
        -11    1    3    3    0    0 -0.11947434070E+02  0.49197425337E+01  0.19556353675E+02  0.23439198297E+02  0.51100000000E-03 0.  1.
        -12    1    3    3    0    0  0.10857554792E+01  0.34820683951E+00  0.13755348283E+01  0.17866754119E+01  0.00000000000E+00 0.  1.
</event>
<event>
 7    1  0.1486782E-008  0.4614232E+02  0.7816164E-02  0.1320468E+00
        -11   -1    0    0    0    0  0.00000000000E+00  0.00000000000E+00  0.45593999997E+02  0.45594000000E+02  0.51100000000E-03 0.  1.
         11   -1    0    0    0    0 -0.00000000000E+00 -0.00000000000E+00 -0.45593999997E+02  0.45594000000E+02  0.51100000000E-03 0. -1.
    9900012    2    1    2    0    0 -0.38418722219E+02  0.14544289955E+02 -0.18481854316E+02  0.46142317341E+02  0.99999961704E+01 0.  0.
        -12    1    1    2    0    0  0.38418722219E+02 -0.14544289955E+02  0.18481854316E+02  0.45045682659E+02  0.00000000000E+00 0.  1.
         11    1    3    3    0    0 -0.21664220918E+02  0.83115834465E+01 -0.12790556040E+02  0.26495645141E+02  0.51100000000E-03 0. -1.
        -11    1    3    3    0    0 -0.64713319870E+01  0.48891077617E+01 -0.43096177891E+01  0.91844606886E+01  0.51100000000E-03 0.  1.
         12    1    3    3    0    0 -0.10283169314E+02  0.13435987463E+01 -0.13816804865E+01  0.10462211511E+02  0.00000000000E+00 0. -1.
</event>
<event>
 7    1  0.1486782E-008  0.4614232E+02  0.7816164E-02  0.1320468E+00
        -11   -1    0    0    0    0  0.00000000000E+00  0.00000000000E+00  0.45593999997E+02  0.45594000000E+02  0.51100000000E-03 0. -1.
         11   -1    0    0    0    0 -0.00000000000E+00 -0.00000000000E+00 -0.45593999997E+02  0.45594000000E+02  0.51100000000E-03 0.  1.
    9900012    2    1    2    0    0 -0.36149657175E+02 -0.24752127859E+02  0.10471279245E+02  0.46142320558E+02  0.10000025502E+02 0.  0.
        -12    1    1    2    0    0  0.36149657175E+02  0.24752127859E+02 -0.10471279245E+02  0.45045679442E+02  0.00000000000E+00 0.  1.
         11    1    3    3    0    0 -0.19466347163E+02 -0.92294001829E+01  0.42352391465E+01  0.21955813592E+02  0.51100000000E-03 0. -1.
        -11    1    3    3    0    0 -0.23712938161E+01 -0.32790616604E+01 -0.71669111549E+00  0.41096138688E+01  0.51100000000E-03 0.  1.
        -12    1    3    3    0    0 -0.14312016196E+02 -0.12243666015E+02  0.69527312143E+01  0.20076893097E+02  0.00000000000E+00 0.  1.
</event>
<event>
 7    1  0.1486782E-008  0.4614232E+02  0.7816164E-02  0.1320468E+00
        -11   -1    0    0    0    0  0.00000000000E+00  0.00000000000E+00  0.45593999997E+02  0.45594000000E+02  0.51100000000E-03 0.  1.
         11   -1    0    0    0    0 -0.00000000000E+00 -0.00000000000E+00 -0.45593999997E+02  0.45594000000E+02  0.51100000000E-03 0. -1.
    9900012    2    1    2    0    0  0.40168700901E+01 -0.37940129061E+02 -0.23948368893E+02  0.46142323058E+02  0.10000048304E+02 0.  0.
        -12    1    1    2    0    0 -0.40168700901E+01  0.37940129061E+02  0.23948368893E+02  0.45045676942E+02  0.00000000000E+00 0.  1.
         11    1    3    3    0    0  0.89150050560E+00 -0.24880672811E+02 -0.17014702390E+02  0.30155310484E+02  0.51100000000E-03 0. -1.
        -11    1    3    3    0    0  0.44093765724E+01 -0.11298720870E+02 -0.65160342267E+01  0.13768166086E+02  0.51100000000E-03 0.  1.
         12    1    3    3    0    0 -0.12840069880E+01 -0.17607353799E+01 -0.41763227655E+00  0.22188464890E+01  0.00000000000E+00 0. -1.
</event>
<event>
 7    1  0.1486782E-008  0.4614232E+02  0.7816164E-02  0.1320468E+00
        -11   -1    0    0    0    0  0.00000000000E+00  0.00000000000E+00  0.45593999997E+02  0.45594000000E+02  0.51100000000E-03 0. -1.
         11   -1    0    0    0    0 -0.00000000000E+00 -0.00000000000E+00 -0.45593999997E+02  0.45594000000E+02  0.51100000000E-03 0.  1.
    9900012    2    1    2    0    0 -0.12641418694E+02 -0.37183838075E+02  0.22060601064E+02  0.46142318743E+02  0.10000008949E+02 0.  0.
        -12    1    1    2    0    0  0.12641418694E+02  0.37183838075E+02 -0.22060601064E+02  0.45045681257E+02  0.00000000000E+00 0.  1.
         11    1    3    3    0    0 -0.55142486133E+01 -0.15567760874E+02  0.83607604449E+01  0.18511197473E+02  0.51100000000E-03 0. -1.
        -11    1    3    3    0    0 -0.75513513630E+01 -0.14026486374E+02  0.11717766461E+02  0.19775522206E+02  0.51100000000E-03 0.  1.
        -12    1    3    3    0    0  0.42418128193E+00 -0.75895908266E+01  0.19820741584E+01  0.78555990634E+01  0.00000000000E+00 0.  1.
</event>
<event>
 7    1  0.1486782E-008  0.4614232E+02  0.7816164E-02  0.1320468E+00
        -11   -1    0    0    0    0  0.00000000000E+00  0.00000000000E+00  0.45593999997E+02  0.45594000000E+02  0.51100000000E-03 0.  1.
         11   -1    0    0    0    0 -0.00000000000E+00 -0.00000000000E+00 -0.45593999997E+02  0.45594000000E+02  0.51100000000E-03 0. -1.
    9900012    2    1    2    0    0 -0.42508870877E+02 -0.60162461133E+01 -0.13635035331E+02  0.46142317532E+02  0.99999979098E+01 0.  0.
        -12    1    1    2    0    0  0.42508870877E+02  0.60162461133E+01  0.13635035331E+02  0.45045682468E+02  0.00000000000E+00 0.  1.
         11    1    3    3    0    0 -0.24055220343E+02 -0.57645970776E+01 -0.75083516626E+01  0.25850716628E+02  0.51100000000E-03 0. -1.
        -11    1    3    3    0    0 -0.16498032350E+02  0.19038219543E+00 -0.32997614408E+01  0.16825865286E+02  0.51100000000E-03 0.  1.
        -12    1    3    3    0    0 -0.19556181838E+01 -0.44203123113E+00 -0.28269222278E+01  0.34657356178E+01  0.00000000000E+00 0.  1.
</event>
<event>
 7    1  0.1486782E-008  0.4614232E+02  0.7816164E-02  0.1320468E+00
        -11   -1    0    0    0    0  0.00000000000E+00  0.00000000000E+00  0.45593999997E+02  0.45594000000E+02  0.51100000000E-03 0. -1.
         11   -1    0    0    0    0 -0.00000000000E+00 -0.00000000000E+00 -0.45593999997E+02  0.45594000000E+02  0.51100000000E-03 0.  1.
    9900012    2    1    2    0    0  0.15266869201E+01 -0.34990976004E+02  0.28326921936E+02  0.46142315623E+02  0.99999805029E+01 0.  0.
        -12    1    1    2    0    0 -0.15266869201E+01  0.34990976004E+02 -0.28326921936E+02  0.45045684377E+02  0.00000000000E+00 0.  1.
         11    1    3    3    0    0 -0.96027650484E+00 -0.85209901773E+01  0.26139157962E+01  0.89644832878E+01  0.51100000000E-03 0. -1.
        -11    1    3    3    0    0  0.33608808969E+00 -0.12266302167E+02  0.14204958489E+02  0.18771147274E+02  0.51100000000E-03 0.  1.
         12    1    3    3    0    0  0.21508753353E+01 -0.14203683660E+02  0.11508047651E+02  0.18406685061E+02  0.00000000000E+00 0. -1.
</event>
<event>
 7    1  0.1486782E-008  0.4614231E+02  0.7816164E-02  0.1320468E+00
        -11   -1    0    0    0    0  0.00000000000E+00  0.00000000000E+00  0.45593999997E+02  0.45594000000E+02  0.51100000000E-03 0. -1.
         11   -1    0    0    0    0 -0.00000000000E+00 -0.00000000000E+00 -0.45593999997E+02  0.45594000000E+02  0.51100000000E-03 0.  1.
    9900012    2    1    2    0    0 -0.32155998468E+02  0.19891434603E+02 -0.24483391282E+02  0.46142313672E+02  0.99999627153E+01 0.  0.
        -12    1    1    2    0    0  0.32155998468E+02 -0.19891434603E+02  0.24483391282E+02  0.45045686328E+02  0.00000000000E+00 0.  1.
         11    1    3    3    0    0 -0.18425097664E+02  0.64887639087E+01 -0.13487050698E+02  0.23737919407E+02  0.51100000000E-03 0. -1.
        -11    1    3    3    0    0 -0.95622070730E+01  0.11335640436E+02 -0.77707249770E+01  0.16742661530E+02  0.51100000000E-03 0.  1.
        -12    1    3    3    0    0 -0.41686937317E+01  0.20670302589E+01 -0.32256156069E+01  0.56617327351E+01  0.00000000000E+00 0.  1.
</event>
<event>
 7    1  0.1486782E-008  0.4614232E+02  0.7816164E-02  0.1320468E+00
        -11   -1    0    0    0    0  0.00000000000E+00  0.00000000000E+00  0.45593999997E+02  0.45594000000E+02  0.51100000000E-03 0.  1.
         11   -1    0    0    0    0 -0.00000000000E+00 -0.00000000000E+00 -0.45593999997E+02  0.45594000000E+02  0.51100000000E-03 0. -1.
    9900012    2    1    2    0    0  0.15752774623E+02 -0.31634007390E+02 -0.27933011627E+02  0.46142317960E+02  0.10000001818E+02 0.  0.
        -12    1    1    2    0    0 -0.15752774623E+02  0.31634007390E+02  0.27933011627E+02  0.45045682040E+02  0.00000000000E+00 0.  1.
         11    1    3    3    0    0  0.95373130547E+01 -0.21071577286E+02 -0.21863634061E+02  0.31827507038E+02  0.51100000000E-03 0. -1.
        -11    1    3    3    0    0  0.40006543694E+01 -0.34359377072E+01 -0.12137577393E+01  0.54114795964E+01  0.51100000000E-03 0.  1.
         12    1    3    3    0    0  0.22148071990E+01 -0.71264923961E+01 -0.48556198259E+01  0.89033313256E+01  0.00000000000E+00 0. -1.
</event>
<event>
 7    1  0.1486782E-008  0.4614232E+02  0.7816164E-02  0.1320468E+00
        -11   -1    0    0    0    0  0.00000000000E+00  0.00000000000E+00  0.45593999997E+02  0.45594000000E+02  0.51100000000E-03 0.  1.
         11   -1    0    0    0    0 -0.00000000000E+00 -0.00000000000E+00 -0.45593999997E+02  0.45594000000E+02  0.51100000000E-03 0. -1.
    9900012    2    1    2    0    0 -0.44312606987E+02  0.34774518061E+01 -0.73084683165E+01  0.46142317430E+02  0.99999969824E+01 0.  0.
        -12    1    1    2    0    0  0.44312606987E+02 -0.34774518061E+01  0.73084683165E+01  0.45045682570E+02  0.00000000000E+00 0.  1.
         11    1    3    3    0    0 -0.10004601578E+02 -0.73697895521E+00  0.82655832400E+00  0.10065703634E+02  0.51100000000E-03 0. -1.
        -11    1    3    3    0    0 -0.28424483556E+01  0.65563945179E+00  0.10579950972E+01  0.31030194379E+01  0.51100000000E-03 0.  1.
         12    1    3    3    0    0 -0.31465557053E+02  0.35587913095E+01 -0.91930217377E+01  0.32973594359E+02  0.00000000000E+00 0. -1.
</event>
<event>
 7    1  0.1486782E-008  0.4614232E+02  0.7816164E-02  0.1320468E+00
        -11   -1    0    0    0    0  0.00000000000E+00  0.00000000000E+00  0.45593999997E+02  0.45594000000E+02  0.51100000000E-03 0.  1.
         11   -1    0    0    0    0 -0.00000000000E+00 -0.00000000000E+00 -0.45593999997E+02  0.45594000000E+02  0.51100000000E-03 0. -1.
    9900012    2    1    2    0    0  0.24685191177E+02 -0.33958473130E+01 -0.37526297421E+02  0.46142318292E+02  0.10000004840E+02 0.  0.
        -12    1    1    2    0    0 -0.24685191177E+02  0.33958473130E+01  0.37526297421E+02  0.45045681708E+02  0.00000000000E+00 0.  1.
         11    1    3    3    0    0  0.19885981707E+02 -0.32789681934E+00 -0.30290880081E+02  0.36236683086E+02  0.51100000000E-03 0. -1.
        -11    1    3    3    0    0  0.30927420536E+01 -0.38062996322E+01 -0.51481288915E+01  0.71102884361E+01  0.51100000000E-03 0.  1.
        -12    1    3    3    0    0  0.17064674163E+01  0.73834913849E+00 -0.20872884488E+01  0.27953467695E+01  0.00000000000E+00 0.  1.
</event>
<event>
 7    1  0.1486782E-008  0.4614232E+02  0.7816164E-02  0.1320468E+00
        -11   -1    0    0    0    0  0.00000000000E+00  0.00000000000E+00  0.45593999997E+02  0.45594000000E+02  0.51100000000E-03 0.  1.
         11   -1    0    0    0    0 -0.00000000000E+00 -0.00000000000E+00 -0.45593999997E+02  0.45594000000E+02  0.51100000000E-03 0. -1.
    9900012    2    1    2    0    0 -0.19477049983E+02  0.29259338031E+02 -0.28171779120E+02  0.46142317889E+02  0.10000001166E+02 0.  0.
        -12    1    1    2    0    0  0.19477049983E+02 -0.29259338031E+02  0.28171779120E+02  0.45045682111E+02  0.00000000000E+00 0.  1.
         11    1    3    3    0    0 -0.33523425132E+01  0.71166739036E+00 -0.28435815694E+01  0.44531592385E+01  0.51100000000E-03 0.  1.
        -11    1    3    3    0    0 -0.13890026505E+02  0.21686129022E+02 -0.21329705711E+02  0.33439159294E+02  0.51100000000E-03 0. -1.
         12    1    3    3    0    0 -0.22346809647E+01  0.68615416186E+01 -0.39984918388E+01  0.82499993566E+01  0.00000000000E+00 0. -1.
</event>
<event>
 7    1  0.1486782E-008  0.4614231E+02  0.7816164E-02  0.1320468E+00
        -11   -1    0    0    0    0  0.00000000000E+00  0.00000000000E+00  0.45593999997E+02  0.45594000000E+02  0.51100000000E-03 0. -1.
         11   -1    0    0    0    0 -0.00000000000E+00 -0.00000000000E+00 -0.45593999997E+02  0.45594000000E+02  0.51100000000E-03 0.  1.
    9900012    2    1    2    0    0 -0.23086291852E+02 -0.38003096814E+02  0.72042972139E+01  0.46142310558E+02  0.99999343178E+01 0.  0.
        -12    1    1    2    0    0  0.23086291852E+02  0.38003096814E+02 -0.72042972139E+01  0.45045689442E+02  0.00000000000E+00 0.  1.
         11    1    3    3    0    0 -0.38276284019E+01 -0.44593623996E+01  0.42532776053E+01  0.72544484865E+01  0.51100000000E-03 0. -1.
        -11    1    3    3    0    0 -0.16359593472E+02 -0.27788000906E+02  0.34159253855E+01  0.32426499031E+02  0.51100000000E-03 0.  1.
         12    1    3    3    0    0 -0.28990699782E+01 -0.57557335086E+01 -0.46490577690E+00  0.64613630405E+01  0.00000000000E+00 0. -1.
</event>
<event>
 7    1  0.1486782E-008  0.4614232E+02  0.7816164E-02  0.1320468E+00
        -11   -1    0    0    0    0  0.00000000000E+00  0.00000000000E+00  0.45593999997E+02  0.45594000000E+02  0.51100000000E-03 0. -1.
         11   -1    0    0    0    0 -0.00000000000E+00 -0.00000000000E+00 -0.45593999997E+02  0.45594000000E+02  0.51100000000E-03 0.  1.
    9900012    2    1    2    0    0 -0.42604121738E+02 -0.12067922819E+02  0.82684644559E+01  0.46142318135E+02  0.10000003413E+02 0.  0.
        -12    1    1    2    0    0  0.42604121738E+02  0.12067922819E+02 -0.82684644559E+01  0.45045681865E+02  0.00000000000E+00 0.  1.
         11    1    3    3    0    0 -0.45121899543E-01 -0.95800529487E+00  0.52845159186E+00  0.10950212221E+01  0.51100000000E-03 0. -1.
        -11    1    3    3    0    0 -0.12623890031E+01  0.65433467860E+00  0.37781377660E-01  0.14223950086E+01  0.51100000000E-03 0.  1.
         12    1    3    3    0    0 -0.41296610835E+02 -0.11764252202E+02  0.77022314863E+01  0.43624901905E+02  0.00000000000E+00 0. -1.
</event>
<event>
 7    1  0.1486782E-008  0.4614232E+02  0.7816164E-02  0.1320468E+00
        -11   -1    0    0    0    0  0.00000000000E+00  0.00000000000E+00  0.45593999997E+02  0.45594000000E+02  0.51100000000E-03 0. -1.
         11   -1    0    0    0    0 -0.00000000000E+00 -0.00000000000E+00 -0.45593999997E+02  0.45594000000E+02  0.51100000000E-03 0.  1.
    9900012    2    1    2    0    0 -0.28888037301E+02  0.10938959771E+02  0.32786185426E+02  0.46142317690E+02  0.99999993526E+01 0.  0.
        -12    1    1    2    0    0  0.28888037301E+02 -0.10938959771E+02 -0.32786185426E+02  0.45045682310E+02  0.00000000000E+00 0.  1.
         11    1    3    3    0    0 -0.15791456053E+02  0.97995711046E+01  0.15420357571E+02  0.24149308602E+02  0.51100000000E-03 0. -1.
        -11    1    3    3    0    0 -0.39625448558E+01  0.69511459161E-01  0.76457616765E+01  0.86118677099E+01  0.51100000000E-03 0.  1.
         12    1    3    3    0    0 -0.91340363926E+01  0.10698772075E+01  0.97200661788E+01  0.13381141378E+02  0.00000000000E+00 0. -1.
</event>
<event>
 7    1  0.1486782E-008  0.4614232E+02  0.7816164E-02  0.1320468E+00
        -11   -1    0    0    0    0  0.00000000000E+00  0.00000000000E+00  0.45593999997E+02  0.45594000000E+02  0.51100000000E-03 0. -1.
         11   -1    0    0    0    0 -0.00000000000E+00 -0.00000000000E+00 -0.45593999997E+02  0.45594000000E+02  0.51100000000E-03 0.  1.
    9900012    2    1    2    0    0 -0.19882262498E+02  0.24811544845E+02  0.31909184054E+02  0.46142321554E+02  0.10000034589E+02 0.  0.
        -12    1    1    2    0    0  0.19882262498E+02 -0.24811544845E+02 -0.31909184054E+02  0.45045678446E+02  0.00000000000E+00 0.  1.
         11    1    3    3    0    0 -0.83821703042E+00 -0.21399373681E+00  0.15052548101E+01  0.17361432585E+01  0.51100000000E-03 0. -1.
        -11    1    3    3    0    0 -0.12659300929E+02  0.17803141487E+02  0.16015645769E+02  0.27087093910E+02  0.51100000000E-03 0.  1.
         12    1    3    3    0    0 -0.63847445386E+01  0.72223970947E+01  0.14388283474E+02  0.17319084386E+02  0.00000000000E+00 0. -1.
</event>
<event>
 7    1  0.1486782E-008  0.4614232E+02  0.7816164E-02  0.1320468E+00
        -11   -1    0    0    0    0  0.00000000000E+00  0.00000000000E+00  0.45593999997E+02  0.45594000000E+02  0.51100000000E-03 0.  1.
         11   -1    0    0    0    0 -0.00000000000E+00 -0.00000000000E+00 -0.45593999997E+02  0.45594000000E+02  0.51100000000E-03 0. -1.
    9900012    2    1    2    0    0  0.33557602474E+02 -0.65976085146E+01 -0.29316758562E+02  0.46142318137E+02  0.10000003427E+02 0.  0.
        -12    1    1    2    0    0 -0.33557602474E+02  0.65976085146E+01  0.29316758562E+02  0.45045681863E+02  0.00000000000E+00 0.  1.
         11    1    3    3    0    0  0.13144044587E+01 -0.99851513442E+00  0.59637042100E+00  0.17550924462E+01  0.51100000000E-03 0. -1.
        -11    1    3    3    0    0  0.95995592570E+01 -0.78856245617E+00 -0.82275051202E+01  0.12667486311E+02  0.51100000000E-03 0.  1.
         12    1    3    3    0    0  0.22643638759E+02 -0.48105309240E+01 -0.21685623863E+02  0.31719739380E+02  0.00000000000E+00 0. -1.
</event>
<event>
 7    1  0.1486782E-008  0.4614231E+02  0.7816164E-02  0.1320468E+00
        -11   -1    0    0    0    0  0.00000000000E+00  0.00000000000E+00  0.45593999997E+02  0.45594000000E+02  0.51100000000E-03 0.  1.
         11   -1    0    0    0    0 -0.00000000000E+00 -0.00000000000E+00 -0.45593999997E+02  0.45594000000E+02  0.51100000000E-03 0. -1.
    9900012    2    1    2    0    0 -0.15762762008E+02  0.20111464351E+02 -0.37096878361E+02  0.46142311542E+02  0.99999432914E+01 0.  0.
        -12    1    1    2    0    0  0.15762762008E+02 -0.20111464351E+02  0.37096878361E+02  0.45045688458E+02  0.00000000000E+00 0.  1.
         11    1    3    3    0    0 -0.37222945001E+01  0.11603585780E+02 -0.16017840275E+02  0.20126348070E+02  0.51100000000E-03 0. -1.
        -11    1    3    3    0    0 -0.78992054000E+00 -0.15232066407E+00 -0.31912107393E+00  0.86545627571E+00  0.51100000000E-03 0.  1.
         12    1    3    3    0    0 -0.11250546968E+02  0.86601992347E+01 -0.20759917012E+02  0.25150507196E+02  0.00000000000E+00 0. -1.
</event>
<event>
 7    1  0.1486782E-008  0.4614233E+02  0.7816164E-02  0.1320468E+00
        -11   -1    0    0    0    0  0.00000000000E+00  0.00000000000E+00  0.45593999997E+02  0.45594000000E+02  0.51100000000E-03 0. -1.
         11   -1    0    0    0    0 -0.00000000000E+00 -0.00000000000E+00 -0.45593999997E+02  0.45594000000E+02  0.51100000000E-03 0.  1.
    9900012    2    1    2    0    0 -0.38711110809E+02  0.12730350779E+02  0.19196372773E+02  0.46142326971E+02  0.10000083980E+02 0.  0.
        -12    1    1    2    0    0  0.38711110809E+02 -0.12730350779E+02 -0.19196372773E+02  0.45045673029E+02  0.00000000000E+00 0.  1.
         11    1    3    3    0    0 -0.21930971884E+02  0.96474433655E+01  0.11116087867E+02  0.26412271788E+02  0.51100000000E-03 0. -1.
        -11    1    3    3    0    0 -0.17152444662E+02  0.31820855707E+01  0.82636405104E+01  0.19303361914E+02  0.51100000000E-03 0.  1.
         12    1    3    3    0    0  0.37230573629E+00 -0.99178156997E-01 -0.18335560435E+00  0.42669326893E+00  0.00000000000E+00 0. -1.
</event>
<event>
 7    1  0.1486782E-008  0.4614232E+02  0.7816164E-02  0.1320468E+00
        -11   -1    0    0    0    0  0.00000000000E+00  0.00000000000E+00  0.45593999997E+02  0.45594000000E+02  0.51100000000E-03 0.  1.
         11   -1    0    0    0    0 -0.00000000000E+00 -0.00000000000E+00 -0.45593999997E+02  0.45594000000E+02  0.51100000000E-03 0. -1.
    9900012    2    1    2    0    0 -0.27959601220E+02 -0.35318032009E+02 -0.10395776731E+00  0.46142317714E+02  0.99999995705E+01 0.  0.
        -12    1    1    2    0    0  0.27959601220E+02  0.35318032009E+02  0.10395776731E+00  0.45045682286E+02  0.00000000000E+00 0.  1.
         11    1    3    3    0    0 -0.16803406775E+02 -0.17259462448E+02  0.22884655088E+01  0.24196706343E+02  0.51100000000E-03 0. -1.
        -11    1    3    3    0    0 -0.45106543078E+01 -0.10204894980E+02 -0.32524143657E+01  0.11621707418E+02  0.51100000000E-03 0.  1.
        -12    1    3    3    0    0 -0.66455401378E+01 -0.78536745811E+01  0.85999108960E+00  0.10323903953E+02  0.00000000000E+00 0.  1.
</event>
<event>
 7    1  0.1486782E-008  0.4614232E+02  0.7816164E-02  0.1320468E+00
        -11   -1    0    0    0    0  0.00000000000E+00  0.00000000000E+00  0.45593999997E+02  0.45594000000E+02  0.51100000000E-03 0. -1.
         11   -1    0    0    0    0 -0.00000000000E+00 -0.00000000000E+00 -0.45593999997E+02  0.45594000000E+02  0.51100000000E-03 0.  1.
    9900012    2    1    2    0    0  0.11291158894E+02 -0.48931359122E+01  0.43332210483E+02  0.46142317482E+02  0.99999974506E+01 0.  0.
        -12    1    1    2    0    0 -0.11291158894E+02  0.48931359122E+01 -0.43332210483E+02  0.45045682518E+02  0.00000000000E+00 0.  1.
         11    1    3    3    0    0  0.35231947117E+01 -0.32729151214E+01  0.48444309854E+01  0.68259348225E+01  0.51100000000E-03 0.  1.
        -11    1    3    3    0    0  0.42540307281E+01 -0.12766931274E+01  0.19086491122E+02  0.19596450351E+02  0.51100000000E-03 0. -1.
        -12    1    3    3    0    0  0.35139334546E+01 -0.34352766341E+00  0.19401288376E+02  0.19719932308E+02  0.00000000000E+00 0.  1.
</event>
<event>
 7    1  0.1486782E-008  0.4614232E+02  0.7816164E-02  0.1320468E+00
        -11   -1    0    0    0    0  0.00000000000E+00  0.00000000000E+00  0.45593999997E+02  0.45594000000E+02  0.51100000000E-03 0.  1.
         11   -1    0    0    0    0 -0.00000000000E+00 -0.00000000000E+00 -0.45593999997E+02  0.45594000000E+02  0.51100000000E-03 0. -1.
    9900012    2    1    2    0    0  0.91003750082E+01 -0.32774262823E+02 -0.29532091091E+02  0.46142317265E+02  0.99999954731E+01 0.  0.
        -12    1    1    2    0    0 -0.91003750082E+01  0.32774262823E+02  0.29532091091E+02  0.45045682735E+02  0.00000000000E+00 0.  1.
         11    1    3    3    0    0  0.62621713471E+01 -0.22567709392E+02 -0.18269458304E+02  0.29703356783E+02  0.51100000000E-03 0. -1.
        -11    1    3    3    0    0 -0.10585575689E+01 -0.60984734729E+01 -0.70495367381E+01  0.93812521184E+01  0.51100000000E-03 0.  1.
        -12    1    3    3    0    0  0.38967612300E+01 -0.41080799583E+01 -0.42130960482E+01  0.70577083631E+01  0.00000000000E+00 0.  1.
</event>
<event>
 7    1  0.1486782E-008  0.4614233E+02  0.7816164E-02  0.1320468E+00
        -11   -1    0    0    0    0  0.00000000000E+00  0.00000000000E+00  0.45593999997E+02  0.45594000000E+02  0.51100000000E-03 0. -1.
         11   -1    0    0    0    0 -0.00000000000E+00 -0.00000000000E+00 -0.45593999997E+02  0.45594000000E+02  0.51100000000E-03 0.  1.
    9900012    2    1    2    0    0  0.20273338647E+02 -0.36829106373E+02  0.16177806256E+02  0.46142325942E+02  0.10000074597E+02 0.  0.
        -12    1    1    2    0    0 -0.20273338647E+02  0.36829106373E+02 -0.16177806256E+02  0.45045674058E+02  0.00000000000E+00 0.  1.
         11    1    3    3    0    0  0.10591580460E+02 -0.16750576445E+02  0.31502006564E+01  0.20067066360E+02  0.51100000000E-03 0. -1.
        -11    1    3    3    0    0  0.53483050400E+01 -0.13352951289E+02  0.66667003565E+01  0.15854039511E+02  0.51100000000E-03 0.  1.
        -12    1    3    3    0    0  0.43334531475E+01 -0.67255786388E+01  0.63609052429E+01  0.10221220070E+02  0.00000000000E+00 0.  1.
</event>
<event>
 7    1  0.1486782E-008  0.4614232E+02  0.7816164E-02  0.1320468E+00
        -11   -1    0    0    0    0  0.00000000000E+00  0.00000000000E+00  0.45593999997E+02  0.45594000000E+02  0.51100000000E-03 0.  1.
         11   -1    0    0    0    0 -0.00000000000E+00 -0.00000000000E+00 -0.45593999997E+02  0.45594000000E+02  0.51100000000E-03 0. -1.
    9900012    2    1    2    0    0 -0.35587950112E+02  0.19873734041E+02 -0.19174098746E+02  0.46142316959E+02  0.99999926848E+01 0.  0.
        -12    1    1    2    0    0  0.35587950112E+02 -0.19873734041E+02  0.19174098746E+02  0.45045683041E+02  0.00000000000E+00 0.  1.
         11    1    3    3    0    0 -0.18722540548E+02  0.88018328821E+01 -0.78591924867E+01  0.22130808694E+02  0.51100000000E-03 0. -1.
        -11    1    3    3    0    0 -0.11513225827E+01  0.34292249518E+01 -0.27932600553E+01  0.45702767375E+01  0.51100000000E-03 0.  1.
        -12    1    3    3    0    0 -0.15714086981E+02  0.76426762066E+01 -0.85216462041E+01  0.19441231527E+02  0.00000000000E+00 0.  1.
</event>
<event>
 7    1  0.1486782E-008  0.4614232E+02  0.7816164E-02  0.1320468E+00
        -11   -1    0    0    0    0  0.00000000000E+00  0.00000000000E+00  0.45593999997E+02  0.45594000000E+02  0.51100000000E-03 0.  1.
         11   -1    0    0    0    0 -0.00000000000E+00 -0.00000000000E+00 -0.45593999997E+02  0.45594000000E+02  0.51100000000E-03 0. -1.
    9900012    2    1    2    0    0  0.33923472543E+02  0.54586498749E+01 -0.29129274796E+02  0.46142317654E+02  0.99999990223E+01 0.  0.
        -12    1    1    2    0    0 -0.33923472543E+02 -0.54586498749E+01  0.29129274796E+02  0.45045682346E+02  0.00000000000E+00 0.  1.
         11    1    3    3    0    0  0.14281587670E+02  0.30419696015E+00 -0.12367831483E+02  0.18894960652E+02  0.51100000000E-03 0. -1.
        -11    1    3    3    0    0  0.13146499957E+02  0.52199120871E+00 -0.12735267160E+02  0.18310924768E+02  0.51100000000E-03 0.  1.
         12    1    3    3    0    0  0.64953849162E+01  0.46324617060E+01 -0.40261761529E+01  0.89364322345E+01  0.00000000000E+00 0. -1.
</event>
<event>
 7    1  0.1486782E-008  0.4614232E+02  0.7816164E-02  0.1320468E+00
        -11   -1    0    0    0    0  0.00000000000E+00  0.00000000000E+00  0.45593999997E+02  0.45594000000E+02  0.51100000000E-03 0.  1.
         11   -1    0    0    0    0 -0.00000000000E+00 -0.00000000000E+00 -0.45593999997E+02  0.45594000000E+02  0.51100000000E-03 0. -1.
    9900012    2    1    2    0    0 -0.10631320857E+02  0.25593580417E+02 -0.35511366400E+02  0.46142317795E+02  0.10000000309E+02 0.  0.
        -12    1    1    2    0    0  0.10631320857E+02 -0.25593580417E+02  0.35511366400E+02  0.45045682205E+02  0.00000000000E+00 0.  1.
         11    1    3    3    0    0  0.57463564033E+00  0.15090790505E-01  0.75361656595E-01  0.57975295731E+00  0.51100000000E-03 0. -1.
        -11    1    3    3    0    0 -0.38785266969E-01  0.52221683703E+01 -0.70508733220E+01  0.87742442210E+01  0.51100000000E-03 0.  1.
         12    1    3    3    0    0 -0.11167171230E+02  0.20356321256E+02 -0.28535854735E+02  0.36788320617E+02  0.00000000000E+00 0. -1.
</event>
<event>
 7    1  0.1486782E-008  0.4614232E+02  0.7816164E-02  0.1320468E+00
        -11   -1    0    0    0    0  0.00000000000E+00  0.00000000000E+00  0.45593999997E+02  0.45594000000E+02  0.51100000000E-03 0. -1.
         11   -1    0    0    0    0 -0.00000000000E+00 -0.00000000000E+00 -0.45593999997E+02  0.45594000000E+02  0.51100000000E-03 0.  1.
    9900012    2    1    2    0    0 -0.20830528963E+02  0.36548727603E+02  0.16105682976E+02  0.46142318183E+02  0.10000003844E+02 0.  0.
        -12    1    1    2    0    0  0.20830528963E+02 -0.36548727603E+02 -0.16105682976E+02  0.45045681817E+02  0.00000000000E+00 0.  1.
         11    1    3    3    0    0 -0.25821240402E+01  0.10617703287E+02  0.40762650241E+01  0.11662715141E+02  0.51100000000E-03 0. -1.
        -11    1    3    3    0    0 -0.17073452249E+02  0.25910100322E+02  0.12092860375E+02  0.33302752780E+02  0.51100000000E-03 0.  1.
        -12    1    3    3    0    0 -0.11749526735E+01  0.20923994078E-01 -0.63442423022E-01  0.11768502621E+01  0.00000000000E+00 0.  1.
</event>
<event>
 7    1  0.1486782E-008  0.4614232E+02  0.7816164E-02  0.1320468E+00
        -11   -1    0    0    0    0  0.00000000000E+00  0.00000000000E+00  0.45593999997E+02  0.45594000000E+02  0.51100000000E-03 0.  1.
         11   -1    0    0    0    0 -0.00000000000E+00 -0.00000000000E+00 -0.45593999997E+02  0.45594000000E+02  0.51100000000E-03 0. -1.
    9900012    2    1    2    0    0  0.63932018889E+01  0.91320193923E+01 -0.43644549917E+02  0.46142317121E+02  0.99999941604E+01 0.  0.
        -12    1    1    2    0    0 -0.63932018889E+01 -0.91320193923E+01  0.43644549917E+02  0.45045682879E+02  0.00000000000E+00 0.  1.
         11    1    3    3    0    0  0.33478618382E+01  0.16812708836E+01 -0.57185966646E+01  0.68364609810E+01  0.51100000000E-03 0. -1.
        -11    1    3    3    0    0 -0.43907434993E+00  0.13844634114E+01 -0.11017294699E+01  0.18230011816E+01  0.51100000000E-03 0.  1.
         12    1    3    3    0    0  0.34844144006E+01  0.60662850974E+01 -0.36824223783E+02  0.37482854958E+02  0.00000000000E+00 0. -1.
</event>
<event>
 7    1  0.1486782E-008  0.4614232E+02  0.7816164E-02  0.1320468E+00
        -11   -1    0    0    0    0  0.00000000000E+00  0.00000000000E+00  0.45593999997E+02  0.45594000000E+02  0.51100000000E-03 0. -1.
         11   -1    0    0    0    0 -0.00000000000E+00 -0.00000000000E+00 -0.45593999997E+02  0.45594000000E+02  0.51100000000E-03 0.  1.
    9900012    2    1    2    0    0  0.39489299529E+01  0.36806907334E+02  0.25666534827E+02  0.46142317796E+02  0.10000000315E+02 0.  0.
        -12    1    1    2    0    0 -0.39489299529E+01 -0.36806907334E+02 -0.25666534827E+02  0.45045682204E+02  0.00000000000E+00 0.  1.
         11    1    3    3    0    0  0.52102109040E+01  0.15920753721E+02  0.10416564796E+02  0.19726163315E+02  0.51100000000E-03 0. -1.
        -11    1    3    3    0    0 -0.29328487346E+01  0.17971798660E+02  0.12936576228E+02  0.22337013084E+02  0.51100000000E-03 0.  1.
        -12    1    3    3    0    0  0.16715677835E+01  0.29143549528E+01  0.23133938024E+01  0.40791413963E+01  0.00000000000E+00 0.  1.
</event>
<event>
 7    1  0.1486782E-008  0.4614232E+02  0.7816164E-02  0.1320468E+00
        -11   -1    0    0    0    0  0.00000000000E+00  0.00000000000E+00  0.45593999997E+02  0.45594000000E+02  0.51100000000E-03 0. -1.
         11   -1    0    0    0    0 -0.00000000000E+00 -0.00000000000E+00 -0.45593999997E+02  0.45594000000E+02  0.51100000000E-03 0.  1.
    9900012    2    1    2    0    0 -0.25151054334E+02 -0.17007182962E+02  0.33276022504E+02  0.46142317853E+02  0.10000000841E+02 0.  0.
        -12    1    1    2    0    0  0.25151054334E+02  0.17007182962E+02 -0.33276022504E+02  0.45045682147E+02  0.00000000000E+00 0.  1.
         11    1    3    3    0    0 -0.16394085538E+01 -0.13907967522E+01  0.74772856149E+01  0.77802169918E+01  0.51100000000E-03 0. -1.
        -11    1    3    3    0    0 -0.19444523362E+02 -0.12731332457E+02  0.22719063813E+02  0.32501264218E+02  0.51100000000E-03 0.  1.
        -12    1    3    3    0    0 -0.40671224177E+01 -0.28850537528E+01  0.30796730752E+01  0.58608366439E+01  0.00000000000E+00 0.  1.
</event>
<event>
 7    1  0.1486782E-008  0.4614232E+02  0.7816164E-02  0.1320468E+00
        -11   -1    0    0    0    0  0.00000000000E+00  0.00000000000E+00  0.45593999997E+02  0.45594000000E+02  0.51100000000E-03 0. -1.
         11   -1    0    0    0    0 -0.00000000000E+00 -0.00000000000E+00 -0.45593999997E+02  0.45594000000E+02  0.51100000000E-03 0.  1.
    9900012    2    1    2    0    0 -0.14674455910E+02  0.38438785849E+02  0.18336672595E+02  0.46142317902E+02  0.10000001284E+02 0.  0.
        -12    1    1    2    0    0  0.14674455910E+02 -0.38438785849E+02 -0.18336672595E+02  0.45045682098E+02  0.00000000000E+00 0.  1.
         11    1    3    3    0    0 -0.36075678246E+01  0.11412056216E+02  0.71036358631E+01  0.13918017654E+02  0.51100000000E-03 0. -1.
        -11    1    3    3    0    0 -0.10660807945E+02  0.20241082686E+02  0.11094198480E+02  0.25425095762E+02  0.51100000000E-03 0.  1.
        -12    1    3    3    0    0 -0.40608014027E+00  0.67856469474E+01  0.13883825183E+00  0.67992044855E+01  0.00000000000E+00 0.  1.
</event>
<event>
 7    1  0.1486782E-008  0.4614232E+02  0.7816164E-02  0.1320468E+00
        -11   -1    0    0    0    0  0.00000000000E+00  0.00000000000E+00  0.45593999997E+02  0.45594000000E+02  0.51100000000E-03 0.  1.
         11   -1    0    0    0    0 -0.00000000000E+00 -0.00000000000E+00 -0.45593999997E+02  0.45594000000E+02  0.51100000000E-03 0. -1.
    9900012    2    1    2    0    0  0.17616682182E+02 -0.24994105750E+01 -0.41382592232E+02  0.46142317807E+02  0.10000000423E+02 0.  0.
        -12    1    1    2    0    0 -0.17616682182E+02  0.24994105750E+01  0.41382592232E+02  0.45045682193E+02  0.00000000000E+00 0.  1.
         11    1    3    3    0    0  0.53951621546E+01  0.16613553034E+01 -0.13669637559E+02  0.14789417411E+02  0.51100000000E-03 0. -1.
        -11    1    3    3    0    0 -0.46474391597E+00 -0.12622866504E+01 -0.11343367647E+01  0.17595666092E+01  0.51100000000E-03 0.  1.
        -12    1    3    3    0    0  0.12686263943E+02 -0.28984792281E+01 -0.26578617909E+02  0.29593333787E+02  0.00000000000E+00 0.  1.
</event>
<event>
 7    1  0.1486782E-008  0.4614232E+02  0.7816164E-02  0.1320468E+00
        -11   -1    0    0    0    0  0.00000000000E+00  0.00000000000E+00  0.45593999997E+02  0.45594000000E+02  0.51100000000E-03 0.  1.
         11   -1    0    0    0    0 -0.00000000000E+00 -0.00000000000E+00 -0.45593999997E+02  0.45594000000E+02  0.51100000000E-03 0. -1.
    9900012    2    1    2    0    0  0.27479080433E+02 -0.29340695440E+02 -0.20325777613E+02  0.46142317566E+02  0.99999982229E+01 0.  0.
        -12    1    1    2    0    0 -0.27479080433E+02  0.29340695440E+02  0.20325777613E+02  0.45045682434E+02  0.00000000000E+00 0.  1.
         11    1    3    3    0    0  0.19440487910E+02 -0.15906261786E+02 -0.97741900890E+01  0.26953228496E+02  0.51100000000E-03 0. -1.
        -11    1    3    3    0    0  0.20484697451E+01 -0.12637242257E+01 -0.10415736301E+01  0.26226137923E+01  0.51100000000E-03 0.  1.
         12    1    3    3    0    0  0.59901227779E+01 -0.12170709428E+02 -0.95100138939E+01  0.16566475278E+02  0.00000000000E+00 0. -1.
</event>
<event>
 7    1  0.1486782E-008  0.4614232E+02  0.7816164E-02  0.1320468E+00
        -11   -1    0    0    0    0  0.00000000000E+00  0.00000000000E+00  0.45593999997E+02  0.45594000000E+02  0.51100000000E-03 0.  1.
         11   -1    0    0    0    0 -0.00000000000E+00 -0.00000000000E+00 -0.45593999997E+02  0.45594000000E+02  0.51100000000E-03 0. -1.
    9900012    2    1    2    0    0  0.24909326098E+02 -0.28674761818E+02 -0.24215634318E+02  0.46142318327E+02  0.10000005163E+02 0.  0.
        -12    1    1    2    0    0 -0.24909326098E+02  0.28674761818E+02  0.24215634318E+02  0.45045681673E+02  0.00000000000E+00 0.  1.
         11    1    3    3    0    0  0.51311303781E+01 -0.10827502784E+02 -0.40263605466E+01  0.12640209452E+02  0.51100000000E-03 0. -1.
        -11    1    3    3    0    0  0.14722076143E-01 -0.16162492754E+00  0.13002801998E-01  0.16281489707E+00  0.51100000000E-03 0.  1.
         12    1    3    3    0    0  0.19763473643E+02 -0.17685634106E+02 -0.20202276573E+02  0.33339293978E+02  0.00000000000E+00 0. -1.
</event>
<event>
 7    1  0.1486782E-008  0.4614232E+02  0.7816164E-02  0.1320468E+00
        -11   -1    0    0    0    0  0.00000000000E+00  0.00000000000E+00  0.45593999997E+02  0.45594000000E+02  0.51100000000E-03 0. -1.
         11   -1    0    0    0    0 -0.00000000000E+00 -0.00000000000E+00 -0.45593999997E+02  0.45594000000E+02  0.51100000000E-03 0.  1.
    9900012    2    1    2    0    0  0.20846328109E+02  0.84416425142E+01  0.39029255506E+02  0.46142317528E+02  0.99999978778E+01 0.  0.
        -12    1    1    2    0    0 -0.20846328109E+02 -0.84416425142E+01 -0.39029255506E+02  0.45045682472E+02  0.00000000000E+00 0.  1.
         11    1    3    3    0    0  0.99754689004E+01  0.57231758066E+01  0.22710567824E+02  0.25456523962E+02  0.51100000000E-03 0. -1.
        -11    1    3    3    0    0  0.95057372297E+01  0.12665424933E+01  0.91845203239E+01  0.13278500819E+02  0.51100000000E-03 0.  1.
        -12    1    3    3    0    0  0.13651219793E+01  0.14519242144E+01  0.71341673579E+01  0.74072927466E+01  0.00000000000E+00 0.  1.
</event>
<event>
 7    1  0.1486782E-008  0.4614232E+02  0.7816164E-02  0.1320468E+00
        -11   -1    0    0    0    0  0.00000000000E+00  0.00000000000E+00  0.45593999997E+02  0.45594000000E+02  0.51100000000E-03 0. -1.
         11   -1    0    0    0    0 -0.00000000000E+00 -0.00000000000E+00 -0.45593999997E+02  0.45594000000E+02  0.51100000000E-03 0.  1.
    9900012    2    1    2    0    0  0.14756356212E+02  0.22928023660E+02  0.35856230987E+02  0.46142316320E+02  0.99999868556E+01 0.  0.
        -12    1    1    2    0    0 -0.14756356212E+02 -0.22928023660E+02 -0.35856230987E+02  0.45045683680E+02  0.00000000000E+00 0.  1.
         11    1    3    3    0    0  0.10703443094E+02  0.18761396553E+02  0.26938246699E+02  0.34528579903E+02  0.51100000000E-03 0. -1.
        -11    1    3    3    0    0  0.45108392925E+01  0.31754593418E+01  0.89589598580E+01  0.10521129937E+02  0.51100000000E-03 0.  1.
         12    1    3    3    0    0 -0.45792617449E+00  0.99116776576E+00 -0.40975569593E-01  0.10926064792E+01  0.00000000000E+00 0. -1.
</event>
<event>
 7    1  0.1486782E-008  0.4614232E+02  0.7816164E-02  0.1320468E+00
        -11   -1    0    0    0    0  0.00000000000E+00  0.00000000000E+00  0.45593999997E+02  0.45594000000E+02  0.51100000000E-03 0.  1.
         11   -1    0    0    0    0 -0.00000000000E+00 -0.00000000000E+00 -0.45593999997E+02  0.45594000000E+02  0.51100000000E-03 0. -1.
    9900012    2    1    2    0    0  0.97096159641E+01  0.43170905362E+02  0.84326597879E+01  0.46142318042E+02  0.10000002559E+02 0.  0.
        -12    1    1    2    0    0 -0.97096159641E+01 -0.43170905362E+02 -0.84326597879E+01  0.45045681958E+02  0.00000000000E+00 0.  1.
         11    1    3    3    0    0  0.88216515570E+01  0.22276922539E+02  0.62355913685E+01  0.24758138339E+02  0.51100000000E-03 0.  1.
        -11    1    3    3    0    0  0.19770296270E+01  0.18167700751E+02  0.13311089876E+01  0.18323368907E+02  0.51100000000E-03 0. -1.
         12    1    3    3    0    0 -0.10890652198E+01  0.27262820726E+01  0.86595943171E+00  0.30608107961E+01  0.00000000000E+00 0. -1.
</event>
<event>
 7    1  0.1486782E-008  0.4614232E+02  0.7816164E-02  0.1320468E+00
        -11   -1    0    0    0    0  0.00000000000E+00  0.00000000000E+00  0.45593999997E+02  0.45594000000E+02  0.51100000000E-03 0. -1.
         11   -1    0    0    0    0 -0.00000000000E+00 -0.00000000000E+00 -0.45593999997E+02  0.45594000000E+02  0.51100000000E-03 0.  1.
    9900012    2    1    2    0    0 -0.30387153700E+02  0.33244581506E+02  0.72958620178E+00  0.46142316461E+02  0.99999881416E+01 0.  0.
        -12    1    1    2    0    0  0.30387153700E+02 -0.33244581506E+02 -0.72958620178E+00  0.45045683539E+02  0.00000000000E+00 0.  1.
         11    1    3    3    0    0 -0.20497010353E+02  0.23864686136E+02  0.31857527320E+01  0.31619609399E+02  0.51100000000E-03 0. -1.
        -11    1    3    3    0    0 -0.60720650857E+01  0.29720870507E+01 -0.19984091182E+01  0.70496038971E+01  0.51100000000E-03 0.  1.
         12    1    3    3    0    0 -0.38180782610E+01  0.64078083194E+01 -0.45775741204E+00  0.74731031650E+01  0.00000000000E+00 0. -1.
</event>
<event>
 7    1  0.1486782E-008  0.4614232E+02  0.7816164E-02  0.1320468E+00
        -11   -1    0    0    0    0  0.00000000000E+00  0.00000000000E+00  0.45593999997E+02  0.45594000000E+02  0.51100000000E-03 0.  1.
         11   -1    0    0    0    0 -0.00000000000E+00 -0.00000000000E+00 -0.45593999997E+02  0.45594000000E+02  0.51100000000E-03 0. -1.
    9900012    2    1    2    0    0 -0.16190777451E+02  0.37047535301E+02  0.19860826355E+02  0.46142316856E+02  0.99999917504E+01 0.  0.
        -12    1    1    2    0    0  0.16190777451E+02 -0.37047535301E+02 -0.19860826355E+02  0.45045683144E+02  0.00000000000E+00 0.  1.
         11    1    3    3    0    0 -0.37951232929E+01  0.87494432515E+01  0.26543554033E+01  0.98995616513E+01  0.51100000000E-03 0. -1.
        -11    1    3    3    0    0 -0.64145173314E+01  0.15771123080E+02  0.13884041481E+02  0.21969091103E+02  0.51100000000E-03 0.  1.
        -12    1    3    3    0    0 -0.59811368268E+01  0.12526968970E+02  0.33224294716E+01  0.14273664102E+02  0.00000000000E+00 0.  1.
</event>
<event>
 7    1  0.1486782E-008  0.4614232E+02  0.7816164E-02  0.1320468E+00
        -11   -1    0    0    0    0  0.00000000000E+00  0.00000000000E+00  0.45593999997E+02  0.45594000000E+02  0.51100000000E-03 0.  1.
         11   -1    0    0    0    0 -0.00000000000E+00 -0.00000000000E+00 -0.45593999997E+02  0.45594000000E+02  0.51100000000E-03 0. -1.
    9900012    2    1    2    0    0 -0.14333302405E+02  0.29279696873E+02 -0.31086481223E+02  0.46142317392E+02  0.99999966353E+01 0.  0.
        -12    1    1    2    0    0  0.14333302405E+02 -0.29279696873E+02  0.31086481223E+02  0.45045682608E+02  0.00000000000E+00 0.  1.
         11    1    3    3    0    0  0.70519380260E+00  0.13638765804E+01 -0.31401299385E+01  0.34954075467E+01  0.51100000000E-03 0. -1.
        -11    1    3    3    0    0 -0.70577840560E+01  0.98261729299E+01 -0.76607959713E+01  0.14319699208E+02  0.51100000000E-03 0.  1.
         12    1    3    3    0    0 -0.79807121512E+01  0.18089647363E+02 -0.20285555313E+02  0.28327210638E+02  0.00000000000E+00 0. -1.
</event>
<event>
 7    1  0.1486782E-008  0.4614232E+02  0.7816164E-02  0.1320468E+00
        -11   -1    0    0    0    0  0.00000000000E+00  0.00000000000E+00  0.45593999997E+02  0.45594000000E+02  0.51100000000E-03 0.  1.
         11   -1    0    0    0    0 -0.00000000000E+00 -0.00000000000E+00 -0.45593999997E+02  0.45594000000E+02  0.51100000000E-03 0. -1.
    9900012    2    1    2    0    0  0.64317082714E+00  0.16759837118E+02 -0.41806788347E+02  0.46142319177E+02  0.10000012913E+02 0.  0.
        -12    1    1    2    0    0 -0.64317082714E+00 -0.16759837118E+02  0.41806788347E+02  0.45045680823E+02  0.00000000000E+00 0.  1.
         11    1    3    3    0    0  0.15763316108E+00  0.83144829685E+01 -0.10190171997E+02  0.13152759438E+02  0.51100000000E-03 0. -1.
        -11    1    3    3    0    0 -0.45873925089E+00 -0.26929161641E+00 -0.34417602515E+01  0.34826245225E+01  0.51100000000E-03 0.  1.
         12    1    3    3    0    0  0.94427691695E+00  0.87146457657E+01 -0.28174856098E+02  0.29506935217E+02  0.00000000000E+00 0. -1.
</event>
<event>
 7    1  0.1486782E-008  0.4614232E+02  0.7816164E-02  0.1320468E+00
        -11   -1    0    0    0    0  0.00000000000E+00  0.00000000000E+00  0.45593999997E+02  0.45594000000E+02  0.51100000000E-03 0.  1.
         11   -1    0    0    0    0 -0.00000000000E+00 -0.00000000000E+00 -0.45593999997E+02  0.45594000000E+02  0.51100000000E-03 0. -1.
    9900012    2    1    2    0    0  0.37100342267E+02 -0.18743468113E+02 -0.17359738891E+02  0.46142317326E+02  0.99999960315E+01 0.  0.
        -12    1    1    2    0    0 -0.37100342267E+02  0.18743468113E+02  0.17359738891E+02  0.45045682674E+02  0.00000000000E+00 0.  1.
         11    1    3    3    0    0  0.13359515176E+02 -0.36254332010E+01 -0.48052680841E+01  0.14653020619E+02  0.51100000000E-03 0. -1.
        -11    1    3    3    0    0  0.21295591766E+02 -0.13159265491E+02 -0.13185155696E+02  0.28293406085E+02  0.51100000000E-03 0.  1.
        -12    1    3    3    0    0  0.24452353250E+01 -0.19587694209E+01  0.63068488878E+00  0.31958906220E+01  0.00000000000E+00 0.  1.
</event>
<event>
 7    1  0.1486782E-008  0.4614232E+02  0.7816164E-02  0.1320468E+00
        -11   -1    0    0    0    0  0.00000000000E+00  0.00000000000E+00  0.45593999997E+02  0.45594000000E+02  0.51100000000E-03 0. -1.
         11   -1    0    0    0    0 -0.00000000000E+00 -0.00000000000E+00 -0.45593999997E+02  0.45594000000E+02  0.51100000000E-03 0.  1.
    9900012    2    1    2    0    0 -0.12902424664E+02  0.42880377671E+02 -0.48901975995E+01  0.46142318920E+02  0.10000010566E+02 0.  0.
        -12    1    1    2    0    0  0.12902424664E+02 -0.42880377671E+02  0.48901975995E+01  0.45045681080E+02  0.00000000000E+00 0.  1.
         11    1    3    3    0    0 -0.33586602720E+01  0.11990023227E+02  0.24555200786E+01  0.12691368521E+02  0.51100000000E-03 0. -1.
        -11    1    3    3    0    0 -0.61043445348E+01  0.25014342124E+02 -0.48617060211E+01  0.26203368482E+02  0.51100000000E-03 0.  1.
        -12    1    3    3    0    0 -0.34394198573E+01  0.58760123196E+01 -0.24840116570E+01  0.72475819172E+01  0.00000000000E+00 0.  1.
</event>
<event>
 7    1  0.1486782E-008  0.4614232E+02  0.7816164E-02  0.1320468E+00
        -11   -1    0    0    0    0  0.00000000000E+00  0.00000000000E+00  0.45593999997E+02  0.45594000000E+02  0.51100000000E-03 0. -1.
         11   -1    0    0    0    0 -0.00000000000E+00 -0.00000000000E+00 -0.45593999997E+02  0.45594000000E+02  0.51100000000E-03 0.  1.
    9900012    2    1    2    0    0  0.43030106811E+01 -0.44839677141E+02 -0.24769521850E-01  0.46142321400E+02  0.10000033181E+02 0.  0.
        -12    1    1    2    0    0 -0.43030106811E+01  0.44839677141E+02  0.24769521850E-01  0.45045678600E+02  0.00000000000E+00 0.  1.
         11    1    3    3    0    0 -0.34727525439E-01 -0.25750780072E+02 -0.41379466651E+01  0.26081151876E+02  0.51100000000E-03 0. -1.
        -11    1    3    3    0    0  0.79317190676E+00 -0.36544854854E+01  0.14065376063E+01  0.39953390514E+01  0.51100000000E-03 0.  1.
         12    1    3    3    0    0  0.35445662998E+01 -0.15434411583E+02  0.27066395370E+01  0.16065830472E+02  0.00000000000E+00 0. -1.
</event>
<event>
 7    1  0.1486782E-008  0.4614232E+02  0.7816164E-02  0.1320468E+00
        -11   -1    0    0    0    0  0.00000000000E+00  0.00000000000E+00  0.45593999997E+02  0.45594000000E+02  0.51100000000E-03 0.  1.
         11   -1    0    0    0    0 -0.00000000000E+00 -0.00000000000E+00 -0.45593999997E+02  0.45594000000E+02  0.51100000000E-03 0. -1.
    9900012    2    1    2    0    0 -0.55807647140E+01  0.25690302907E+00 -0.44697902489E+02  0.46142318510E+02  0.10000006833E+02 0.  0.
        -12    1    1    2    0    0  0.55807647140E+01 -0.25690302907E+00  0.44697902489E+02  0.45045681490E+02  0.00000000000E+00 0.  1.
         11    1    3    3    0    0 -0.28623185206E+01  0.29213186902E+00 -0.54106650021E+01  0.61280914132E+01  0.51100000000E-03 0. -1.
        -11    1    3    3    0    0 -0.25328331795E+01 -0.23299052879E+01 -0.89358197694E+01  0.95756241456E+01  0.51100000000E-03 0.  1.
         12    1    3    3    0    0 -0.18561301385E+00  0.22946764479E+01 -0.30351417717E+02  0.30438602952E+02  0.00000000000E+00 0. -1.
</event>
<event>
 7    1  0.1486782E-008  0.4614231E+02  0.7816164E-02  0.1320468E+00
        -11   -1    0    0    0    0  0.00000000000E+00  0.00000000000E+00  0.45593999997E+02  0.45594000000E+02  0.51100000000E-03 0. -1.
         11   -1    0    0    0    0 -0.00000000000E+00 -0.00000000000E+00 -0.45593999997E+02  0.45594000000E+02  0.51100000000E-03 0.  1.
    9900012    2    1    2    0    0  0.11229116049E+02  0.58634604801E+01  0.43227776156E+02  0.46142313776E+02  0.99999636578E+01 0.  0.
        -12    1    1    2    0    0 -0.11229116049E+02 -0.58634604801E+01 -0.43227776156E+02  0.45045686224E+02  0.00000000000E+00 0.  1.
         11    1    3    3    0    0  0.57302841586E+01  0.82287547379E-01  0.13136344919E+02  0.14332009136E+02  0.51100000000E-03 0. -1.
        -11    1    3    3    0    0 -0.13863318554E+01  0.20758561455E+01  0.72939471307E+01  0.77092645406E+01  0.51100000000E-03 0.  1.
        -12    1    3    3    0    0  0.68851637455E+01  0.37053167872E+01  0.22797484106E+02  0.24101040099E+02  0.00000000000E+00 0.  1.
</event>
<event>
 7    1  0.1486782E-008  0.4614232E+02  0.7816164E-02  0.1320468E+00
        -11   -1    0    0    0    0  0.00000000000E+00  0.00000000000E+00  0.45593999997E+02  0.45594000000E+02  0.51100000000E-03 0.  1.
         11   -1    0    0    0    0 -0.00000000000E+00 -0.00000000000E+00 -0.45593999997E+02  0.45594000000E+02  0.51100000000E-03 0. -1.
    9900012    2    1    2    0    0 -0.41447345584E+02  0.97172155193E+00 -0.17614960047E+02  0.46142317452E+02  0.99999971836E+01 0.  0.
        -12    1    1    2    0    0  0.41447345584E+02 -0.97172155193E+00  0.17614960047E+02  0.45045682548E+02  0.00000000000E+00 0.  1.
         11    1    3    3    0    0 -0.10348155424E+02  0.98298020896E+00 -0.54736571787E+01  0.11747829329E+02  0.51100000000E-03 0. -1.
        -11    1    3    3    0    0 -0.15381235431E+02 -0.30459047937E+01 -0.90055610675E+01  0.18082037213E+02  0.51100000000E-03 0.  1.
        -12    1    3    3    0    0 -0.15717954730E+02  0.30346461366E+01 -0.31357418011E+01  0.16312450910E+02  0.00000000000E+00 0.  1.
</event>
<event>
 7    1  0.1486782E-008  0.4614232E+02  0.7816164E-02  0.1320468E+00
        -11   -1    0    0    0    0  0.00000000000E+00  0.00000000000E+00  0.45593999997E+02  0.45594000000E+02  0.51100000000E-03 0. -1.
         11   -1    0    0    0    0 -0.00000000000E+00 -0.00000000000E+00 -0.45593999997E+02  0.45594000000E+02  0.51100000000E-03 0.  1.
    9900012    2    1    2    0    0  0.13588005463E+02  0.42935704687E+02 -0.10024733465E+01  0.46142316719E+02  0.99999904993E+01 0.  0.
        -12    1    1    2    0    0 -0.13588005463E+02 -0.42935704687E+02  0.10024733465E+01  0.45045683281E+02  0.00000000000E+00 0.  1.
         11    1    3    3    0    0  0.56346598787E+01  0.28903335628E+02 -0.12732442547E+01  0.29474961469E+02  0.51100000000E-03 0. -1.
        -11    1    3    3    0    0  0.56348441383E+01  0.12786537239E+02 -0.29072646306E+00  0.13976105508E+02  0.51100000000E-03 0.  1.
         12    1    3    3    0    0  0.23185014464E+01  0.12458318193E+01  0.56149737132E+00  0.26912497425E+01  0.00000000000E+00 0. -1.
</event>
<event>
 7    1  0.1486782E-008  0.4614232E+02  0.7816164E-02  0.1320468E+00
        -11   -1    0    0    0    0  0.00000000000E+00  0.00000000000E+00  0.45593999997E+02  0.45594000000E+02  0.51100000000E-03 0. -1.
         11   -1    0    0    0    0 -0.00000000000E+00 -0.00000000000E+00 -0.45593999997E+02  0.45594000000E+02  0.51100000000E-03 0.  1.
    9900012    2    1    2    0    0  0.68283920653E+01 -0.32127024590E+01  0.44409065461E+02  0.46142317739E+02  0.99999997975E+01 0.  0.
        -12    1    1    2    0    0 -0.68283920653E+01  0.32127024590E+01 -0.44409065461E+02  0.45045682261E+02  0.00000000000E+00 0.  1.
         11    1    3    3    0    0  0.88036257701E+01 -0.27054015763E+01  0.38706400981E+02  0.39787039366E+02  0.51100000000E-03 0. -1.
        -11    1    3    3    0    0 -0.86511335755E+00 -0.11314248478E+01  0.21290912378E+01  0.25615567664E+01  0.51100000000E-03 0.  1.
         12    1    3    3    0    0 -0.11101203473E+01  0.62412396511E+00  0.35735732423E+01  0.37937216065E+01  0.00000000000E+00 0. -1.
</event>
<event>
 7    1  0.1486782E-008  0.4614232E+02  0.7816164E-02  0.1320468E+00
        -11   -1    0    0    0    0  0.00000000000E+00  0.00000000000E+00  0.45593999997E+02  0.45594000000E+02  0.51100000000E-03 0.  1.
         11   -1    0    0    0    0 -0.00000000000E+00 -0.00000000000E+00 -0.45593999997E+02  0.45594000000E+02  0.51100000000E-03 0. -1.
    9900012    2    1    2    0    0 -0.43665741499E+01 -0.40995429877E+02  0.18149966214E+02  0.46142317475E+02  0.99999973905E+01 0.  0.
        -12    1    1    2    0    0  0.43665741499E+01  0.40995429877E+02 -0.18149966214E+02  0.45045682525E+02  0.00000000000E+00 0.  1.
         11    1    3    3    0    0 -0.16654298175E+01 -0.69972512257E+01  0.12407133451E+01  0.72989417766E+01  0.51100000000E-03 0. -1.
        -11    1    3    3    0    0  0.21048818870E+01 -0.54386256292E+01  0.14275070938E+01  0.60039114964E+01  0.51100000000E-03 0.  1.
         12    1    3    3    0    0 -0.48060262194E+01 -0.28559553022E+02  0.15481745775E+02  0.32839464202E+02  0.00000000000E+00 0. -1.
</event>
<event>
 7    1  0.1486782E-008  0.4614232E+02  0.7816164E-02  0.1320468E+00
        -11   -1    0    0    0    0  0.00000000000E+00  0.00000000000E+00  0.45593999997E+02  0.45594000000E+02  0.51100000000E-03 0.  1.
         11   -1    0    0    0    0 -0.00000000000E+00 -0.00000000000E+00 -0.45593999997E+02  0.45594000000E+02  0.51100000000E-03 0. -1.
    9900012    2    1    2    0    0  0.40773506634E+02 -0.52152221460E+00 -0.19140603139E+02  0.46142317441E+02  0.99999970835E+01 0.  0.
        -12    1    1    2    0    0 -0.40773506634E+02  0.52152221460E+00  0.19140603139E+02  0.45045682559E+02  0.00000000000E+00 0.  1.
         11    1    3    3    0    0  0.20149578425E+02  0.11480414842E+01 -0.10176559816E+02  0.22602784782E+02  0.51100000000E-03 0. -1.
        -11    1    3    3    0    0  0.12760225621E+02 -0.21281350674E+00 -0.19659694351E+01  0.12912539779E+02  0.51100000000E-03 0.  1.
        -12    1    3    3    0    0  0.78637025888E+01 -0.14567501920E+01 -0.69980738887E+01  0.10626992880E+02  0.00000000000E+00 0.  1.
</event>
<event>
 7    1  0.1486782E-008  0.4614232E+02  0.7816164E-02  0.1320468E+00
        -11   -1    0    0    0    0  0.00000000000E+00  0.00000000000E+00  0.45593999997E+02  0.45594000000E+02  0.51100000000E-03 0. -1.
         11   -1    0    0    0    0 -0.00000000000E+00 -0.00000000000E+00 -0.45593999997E+02  0.45594000000E+02  0.51100000000E-03 0.  1.
    9900012    2    1    2    0    0 -0.25503428629E+02 -0.28276874409E+02  0.24064640717E+02  0.46142318398E+02  0.10000005810E+02 0.  0.
        -12    1    1    2    0    0  0.25503428629E+02  0.28276874409E+02 -0.24064640717E+02  0.45045681602E+02  0.00000000000E+00 0.  1.
         11    1    3    3    0    0 -0.83349203212E+01 -0.14710832409E+02  0.11225295311E+02  0.20294993028E+02  0.51100000000E-03 0. -1.
        -11    1    3    3    0    0 -0.16588897838E+02 -0.13001881247E+02  0.13294167431E+02  0.24919376706E+02  0.51100000000E-03 0.  1.
         12    1    3    3    0    0 -0.57961046904E+00 -0.56416075280E+00 -0.45482202473E+00  0.92794866506E+00  0.00000000000E+00 0. -1.
</event>
<event>
 7    1  0.1486782E-008  0.4614232E+02  0.7816164E-02  0.1320468E+00
        -11   -1    0    0    0    0  0.00000000000E+00  0.00000000000E+00  0.45593999997E+02  0.45594000000E+02  0.51100000000E-03 0. -1.
         11   -1    0    0    0    0 -0.00000000000E+00 -0.00000000000E+00 -0.45593999997E+02  0.45594000000E+02  0.51100000000E-03 0.  1.
    9900012    2    1    2    0    0  0.30796149529E+02  0.27833365036E+02  0.17493271554E+02  0.46142316692E+02  0.99999902490E+01 0.  0.
        -12    1    1    2    0    0 -0.30796149529E+02 -0.27833365036E+02 -0.17493271554E+02  0.45045683308E+02  0.00000000000E+00 0.  1.
         11    1    3    3    0    0  0.19059361560E+01  0.88104140155E+00 -0.64730333720E+00  0.21972319981E+01  0.51100000000E-03 0. -1.
        -11    1    3    3    0    0  0.92953858270E+01  0.66281473044E+01  0.25622654166E+01  0.11700501643E+02  0.51100000000E-03 0.  1.
         12    1    3    3    0    0  0.19594827546E+02  0.20324176330E+02  0.15578309475E+02  0.32244583051E+02  0.00000000000E+00 0. -1.
</event>
<event>
 7    1  0.1486782E-008  0.4614232E+02  0.7816164E-02  0.1320468E+00
        -11   -1    0    0    0    0  0.00000000000E+00  0.00000000000E+00  0.45593999997E+02  0.45594000000E+02  0.51100000000E-03 0.  1.
         11   -1    0    0    0    0 -0.00000000000E+00 -0.00000000000E+00 -0.45593999997E+02  0.45594000000E+02  0.51100000000E-03 0. -1.
    9900012    2    1    2    0    0 -0.40423686228E+02  0.10663319540E+02 -0.16772973032E+02  0.46142318562E+02  0.10000007305E+02 0.  0.
        -12    1    1    2    0    0  0.40423686228E+02 -0.10663319540E+02  0.16772973032E+02  0.45045681438E+02  0.00000000000E+00 0.  1.
         11    1    3    3    0    0 -0.23869683758E+02  0.19900470170E+01 -0.81390242230E+01  0.25297545443E+02  0.51100000000E-03 0. -1.
        -11    1    3    3    0    0 -0.72113861222E+01  0.52940228100E+01 -0.30713459720E+01  0.94585376067E+01  0.51100000000E-03 0.  1.
         12    1    3    3    0    0 -0.93426163472E+01  0.33792497135E+01 -0.55626028367E+01  0.11386235513E+02  0.00000000000E+00 0. -1.
</event>
<event>
 7    1  0.1486782E-008  0.4614232E+02  0.7816164E-02  0.1320468E+00
        -11   -1    0    0    0    0  0.00000000000E+00  0.00000000000E+00  0.45593999997E+02  0.45594000000E+02  0.51100000000E-03 0.  1.
         11   -1    0    0    0    0 -0.00000000000E+00 -0.00000000000E+00 -0.45593999997E+02  0.45594000000E+02  0.51100000000E-03 0. -1.
    9900012    2    1    2    0    0 -0.20769563052E+02 -0.17130436131E+01 -0.39934999590E+02  0.46142318075E+02  0.10000002864E+02 0.  0.
        -12    1    1    2    0    0  0.20769563052E+02  0.17130436131E+01  0.39934999590E+02  0.45045681925E+02  0.00000000000E+00 0.  1.
         11    1    3    3    0    0 -0.41408641735E+01 -0.24789051197E+01 -0.40476079669E+01  0.62987980767E+01  0.51100000000E-03 0. -1.
        -11    1    3    3    0    0 -0.81092113358E+01  0.40954928016E-01 -0.22907670965E+02  0.24300666145E+02  0.51100000000E-03 0.  1.
         12    1    3    3    0    0 -0.85194875425E+01  0.72490657862E+00 -0.12979720658E+02  0.15542853853E+02  0.00000000000E+00 0. -1.
</event>
<event>
 7    1  0.1486782E-008  0.4614232E+02  0.7816164E-02  0.1320468E+00
        -11   -1    0    0    0    0  0.00000000000E+00  0.00000000000E+00  0.45593999997E+02  0.45594000000E+02  0.51100000000E-03 0.  1.
         11   -1    0    0    0    0 -0.00000000000E+00 -0.00000000000E+00 -0.45593999997E+02  0.45594000000E+02  0.51100000000E-03 0. -1.
    9900012    2    1    2    0    0  0.72289455715E+00  0.40890478483E+02 -0.18882784701E+02  0.46142319129E+02  0.10000012473E+02 0.  0.
        -12    1    1    2    0    0 -0.72289455715E+00 -0.40890478483E+02  0.18882784701E+02  0.45045680871E+02  0.00000000000E+00 0.  1.
         11    1    3    3    0    0  0.21827045789E+01  0.27900399934E+02 -0.13980441327E+02  0.31283370275E+02  0.51100000000E-03 0. -1.
        -11    1    3    3    0    0  0.78518780905E-01  0.10467422911E+02 -0.18854496709E+01  0.10636166054E+02  0.51100000000E-03 0.  1.
        -12    1    3    3    0    0 -0.15383288027E+01  0.25226556373E+01 -0.30168937026E+01  0.42227828007E+01  0.00000000000E+00 0.  1.
</event>
<event>
 7    1  0.1486782E-008  0.4614232E+02  0.7816164E-02  0.1320468E+00
        -11   -1    0    0    0    0  0.00000000000E+00  0.00000000000E+00  0.45593999997E+02  0.45594000000E+02  0.51100000000E-03 0. -1.
         11   -1    0    0    0    0 -0.00000000000E+00 -0.00000000000E+00 -0.45593999997E+02  0.45594000000E+02  0.51100000000E-03 0.  1.
    9900012    2    1    2    0    0  0.33823555888E+02  0.27852570346E+02  0.10455374158E+02  0.46142318114E+02  0.10000003219E+02 0.  0.
        -12    1    1    2    0    0 -0.33823555888E+02 -0.27852570346E+02 -0.10455374158E+02  0.45045681886E+02  0.00000000000E+00 0.  1.
         11    1    3    3    0    0  0.11554649482E+02  0.10768546458E+02  0.67347698469E+00  0.15809019229E+02  0.51100000000E-03 0. -1.
        -11    1    3    3    0    0  0.15029820833E+02  0.13631012492E+02  0.92380508313E+01  0.22294429781E+02  0.51100000000E-03 0.  1.
        -12    1    3    3    0    0  0.72390855731E+01  0.34530113963E+01  0.54384634160E+00  0.80388691046E+01  0.00000000000E+00 0.  1.
</event>
<event>
 7    1  0.1486782E-008  0.4614232E+02  0.7816164E-02  0.1320468E+00
        -11   -1    0    0    0    0  0.00000000000E+00  0.00000000000E+00  0.45593999997E+02  0.45594000000E+02  0.51100000000E-03 0. -1.
         11   -1    0    0    0    0 -0.00000000000E+00 -0.00000000000E+00 -0.45593999997E+02  0.45594000000E+02  0.51100000000E-03 0.  1.
    9900012    2    1    2    0    0  0.22843885752E+02  0.17171192785E+02  0.34819828797E+02  0.46142318127E+02  0.10000003339E+02 0.  0.
        -12    1    1    2    0    0 -0.22843885752E+02 -0.17171192785E+02 -0.34819828797E+02  0.45045681873E+02  0.00000000000E+00 0.  1.
         11    1    3    3    0    0  0.36117256355E+01 -0.89985074017E-01  0.24117332670E+01  0.43438596883E+01  0.51100000000E-03 0. -1.
        -11    1    3    3    0    0 -0.30184779158E+00  0.68586419879E+00  0.62434379906E+00  0.97536005096E+00  0.51100000000E-03 0.  1.
         12    1    3    3    0    0  0.19534007908E+02  0.16575313660E+02  0.31783751731E+02  0.40823098388E+02  0.00000000000E+00 0. -1.
</event>
<event>
 7    1  0.1486782E-008  0.4614232E+02  0.7816164E-02  0.1320468E+00
        -11   -1    0    0    0    0  0.00000000000E+00  0.00000000000E+00  0.45593999997E+02  0.45594000000E+02  0.51100000000E-03 0. -1.
         11   -1    0    0    0    0 -0.00000000000E+00 -0.00000000000E+00 -0.45593999997E+02  0.45594000000E+02  0.51100000000E-03 0.  1.
    9900012    2    1    2    0    0 -0.18911772495E+02  0.87406606564E+01  0.39938193639E+02  0.46142316535E+02  0.99999888228E+01 0.  0.
        -12    1    1    2    0    0  0.18911772495E+02 -0.87406606564E+01 -0.39938193639E+02  0.45045683465E+02  0.00000000000E+00 0.  1.
         11    1    3    3    0    0 -0.67991121438E+01  0.61838496159E+01  0.10336036501E+02  0.13831181180E+02  0.51100000000E-03 0. -1.
        -11    1    3    3    0    0 -0.59144932873E+01  0.13558548975E+01  0.19269644836E+02  0.20202445043E+02  0.51100000000E-03 0.  1.
        -12    1    3    3    0    0 -0.61981670640E+01  0.12009561430E+01  0.10332512302E+02  0.12108690313E+02  0.00000000000E+00 0.  1.
</event>
<event>
 7    1  0.1486782E-008  0.4614232E+02  0.7816164E-02  0.1320468E+00
        -11   -1    0    0    0    0  0.00000000000E+00  0.00000000000E+00  0.45593999997E+02  0.45594000000E+02  0.51100000000E-03 0. -1.
         11   -1    0    0    0    0 -0.00000000000E+00 -0.00000000000E+00 -0.45593999997E+02  0.45594000000E+02  0.51100000000E-03 0.  1.
    9900012    2    1    2    0    0 -0.44960826180E+02  0.97150289089E+00 -0.25872520465E+01  0.46142316724E+02  0.99999905435E+01 0.  0.
        -12    1    1    2    0    0  0.44960826180E+02 -0.97150289089E+00  0.25872520465E+01  0.45045683276E+02  0.00000000000E+00 0.  1.
         11    1    3    3    0    0 -0.18638889553E+02 -0.77236175965E+00 -0.37574686063E+01  0.19029538015E+02  0.51100000000E-03 0. -1.
        -11    1    3    3    0    0 -0.17747237960E+02  0.40527173093E+01  0.98564599837E+00  0.18230756185E+02  0.51100000000E-03 0.  1.
         12    1    3    3    0    0 -0.85746986671E+01 -0.23088526587E+01  0.18457056150E+00  0.88820225244E+01  0.00000000000E+00 0. -1.
</event>
<event>
 7    1  0.1486782E-008  0.4614233E+02  0.7816164E-02  0.1320468E+00
        -11   -1    0    0    0    0  0.00000000000E+00  0.00000000000E+00  0.45593999997E+02  0.45594000000E+02  0.51100000000E-03 0. -1.
         11   -1    0    0    0    0 -0.00000000000E+00 -0.00000000000E+00 -0.45593999997E+02  0.45594000000E+02  0.51100000000E-03 0.  1.
    9900012    2    1    2    0    0  0.11089091184E+02  0.26996891042E+02  0.34311989014E+02  0.46142326963E+02  0.10000083911E+02 0.  0.
        -12    1    1    2    0    0 -0.11089091184E+02 -0.26996891042E+02 -0.34311989014E+02  0.45045673037E+02  0.00000000000E+00 0.  1.
         11    1    3    3    0    0  0.27521742865E+01  0.77150674019E+01  0.15456468003E+02  0.17492830866E+02  0.51100000000E-03 0. -1.
        -11    1    3    3    0    0  0.84210370070E+01  0.19098172979E+02  0.17382169183E+02  0.27162361480E+02  0.51100000000E-03 0.  1.
        -12    1    3    3    0    0 -0.84120109015E-01  0.18365066062E+00  0.14733518285E+01  0.14871346168E+01  0.00000000000E+00 0.  1.
</event>
<event>
 7    1  0.1486782E-008  0.4614232E+02  0.7816164E-02  0.1320468E+00
        -11   -1    0    0    0    0  0.00000000000E+00  0.00000000000E+00  0.45593999997E+02  0.45594000000E+02  0.51100000000E-03 0. -1.
         11   -1    0    0    0    0 -0.00000000000E+00 -0.00000000000E+00 -0.45593999997E+02  0.45594000000E+02  0.51100000000E-03 0.  1.
    9900012    2    1    2    0    0 -0.38857006317E+02 -0.22494901912E+02  0.36367490484E+01  0.46142317680E+02  0.99999992639E+01 0.  0.
        -12    1    1    2    0    0  0.38857006317E+02  0.22494901912E+02 -0.36367490484E+01  0.45045682320E+02  0.00000000000E+00 0.  1.
         11    1    3    3    0    0 -0.18915118121E+02 -0.81448894665E+01  0.42096671345E+01  0.21020043188E+02  0.51100000000E-03 0. -1.
        -11    1    3    3    0    0 -0.85466444421E+01 -0.88569351402E+01 -0.16868806537E+01  0.12423204011E+02  0.51100000000E-03 0.  1.
        -12    1    3    3    0    0 -0.11395243754E+02 -0.54930773057E+01  0.11139625676E+01  0.12699070482E+02  0.00000000000E+00 0.  1.
</event>
<event>
 7    1  0.1486782E-008  0.4614232E+02  0.7816164E-02  0.1320468E+00
        -11   -1    0    0    0    0  0.00000000000E+00  0.00000000000E+00  0.45593999997E+02  0.45594000000E+02  0.51100000000E-03 0. -1.
         11   -1    0    0    0    0 -0.00000000000E+00 -0.00000000000E+00 -0.45593999997E+02  0.45594000000E+02  0.51100000000E-03 0.  1.
    9900012    2    1    2    0    0  0.96673320917E+01  0.17155777351E+02  0.40513399171E+02  0.46142317425E+02  0.99999969340E+01 0.  0.
        -12    1    1    2    0    0 -0.96673320917E+01 -0.17155777351E+02 -0.40513399171E+02  0.45045682575E+02  0.00000000000E+00 0.  1.
         11    1    3    3    0    0  0.11888019118E+01  0.76567142341E+01  0.19860488165E+02  0.21318478212E+02  0.51100000000E-03 0. -1.
        -11    1    3    3    0    0  0.27743254508E+01  0.16785537547E+00  0.51397629420E+01  0.58431344752E+01  0.51100000000E-03 0.  1.
         12    1    3    3    0    0  0.57042047290E+01  0.93312077411E+01  0.15513148064E+02  0.18980704738E+02  0.00000000000E+00 0. -1.
</event>
<event>
 7    1  0.1486782E-008  0.4614232E+02  0.7816164E-02  0.1320468E+00
        -11   -1    0    0    0    0  0.00000000000E+00  0.00000000000E+00  0.45593999997E+02  0.45594000000E+02  0.51100000000E-03 0.  1.
         11   -1    0    0    0    0 -0.00000000000E+00 -0.00000000000E+00 -0.45593999997E+02  0.45594000000E+02  0.51100000000E-03 0. -1.
    9900012    2    1    2    0    0  0.33774501679E+01 -0.31140904192E+02 -0.32372061811E+02  0.46142317971E+02  0.10000001917E+02 0.  0.
        -12    1    1    2    0    0 -0.33774501679E+01  0.31140904192E+02  0.32372061811E+02  0.45045682029E+02  0.00000000000E+00 0.  1.
         11    1    3    3    0    0  0.36472624805E+01 -0.18928161615E+02 -0.19224214682E+02  0.27224038204E+02  0.51100000000E-03 0. -1.
        -11    1    3    3    0    0 -0.27463568781E+01 -0.74518912428E+01 -0.58695654992E+01  0.98754725764E+01  0.51100000000E-03 0.  1.
        -12    1    3    3    0    0  0.24765445656E+01 -0.47608513342E+01 -0.72782816296E+01  0.90428071909E+01  0.00000000000E+00 0.  1.
</event>
<event>
 7    1  0.1486782E-008  0.4614232E+02  0.7816164E-02  0.1320468E+00
        -11   -1    0    0    0    0  0.00000000000E+00  0.00000000000E+00  0.45593999997E+02  0.45594000000E+02  0.51100000000E-03 0.  1.
         11   -1    0    0    0    0 -0.00000000000E+00 -0.00000000000E+00 -0.45593999997E+02  0.45594000000E+02  0.51100000000E-03 0. -1.
    9900012    2    1    2    0    0  0.35429737711E+02  0.18047581926E+02  0.21169124915E+02  0.46142318994E+02  0.10000011238E+02 0.  0.
        -12    1    1    2    0    0 -0.35429737711E+02 -0.18047581926E+02 -0.21169124915E+02  0.45045681006E+02  0.00000000000E+00 0.  1.
         11    1    3    3    0    0  0.13957846770E+01  0.23402350478E+01  0.31181137113E+01  0.41409598309E+01  0.51100000000E-03 0. -1.
        -11    1    3    3    0    0  0.21462584370E+02  0.78658888238E+01  0.85763305065E+01  0.24414507573E+02  0.51100000000E-03 0.  1.
        -12    1    3    3    0    0  0.12571368665E+02  0.78414580544E+01  0.94746806975E+01  0.17586851590E+02  0.00000000000E+00 0.  1.
</event>
<event>
 7    1  0.1486782E-008  0.4614232E+02  0.7816164E-02  0.1320468E+00
        -11   -1    0    0    0    0  0.00000000000E+00  0.00000000000E+00  0.45593999997E+02  0.45594000000E+02  0.51100000000E-03 0.  1.
         11   -1    0    0    0    0 -0.00000000000E+00 -0.00000000000E+00 -0.45593999997E+02  0.45594000000E+02  0.51100000000E-03 0. -1.
    9900012    2    1    2    0    0 -0.32262030654E+02  0.98527748260E+01 -0.29852933783E+02  0.46142318197E+02  0.10000003971E+02 0.  0.
        -12    1    1    2    0    0  0.32262030654E+02 -0.98527748260E+01  0.29852933783E+02  0.45045681803E+02  0.00000000000E+00 0.  1.
         11    1    3    3    0    0 -0.12483725826E+02  0.75263569048E+01 -0.13883885337E+02  0.20130865134E+02  0.51100000000E-03 0. -1.
        -11    1    3    3    0    0 -0.37097868830E+01  0.96750402545E+00 -0.57813442387E+01  0.69370400189E+01  0.51100000000E-03 0.  1.
         12    1    3    3    0    0 -0.16068517945E+02  0.13589138958E+01 -0.10187704208E+02  0.19074413043E+02  0.00000000000E+00 0. -1.
</event>
<event>
 7    1  0.1486782E-008  0.4614232E+02  0.7816164E-02  0.1320468E+00
        -11   -1    0    0    0    0  0.00000000000E+00  0.00000000000E+00  0.45593999997E+02  0.45594000000E+02  0.51100000000E-03 0.  1.
         11   -1    0    0    0    0 -0.00000000000E+00 -0.00000000000E+00 -0.45593999997E+02  0.45594000000E+02  0.51100000000E-03 0. -1.
    9900012    2    1    2    0    0 -0.37795676643E+02 -0.62333026809E+01 -0.23701186784E+02  0.46142317741E+02  0.99999998211E+01 0.  0.
        -12    1    1    2    0    0  0.37795676643E+02  0.62333026809E+01  0.23701186784E+02  0.45045682259E+02  0.00000000000E+00 0.  1.
         11    1    3    3    0    0 -0.21455045764E+02 -0.29889599662E+01 -0.16326156195E+02  0.27125564451E+02  0.51100000000E-03 0. -1.
        -11    1    3    3    0    0 -0.63878148187E+01 -0.10575934186E+01 -0.63878009782E-01  0.64750878495E+01  0.51100000000E-03 0.  1.
         12    1    3    3    0    0 -0.99528160596E+01 -0.21867492961E+01 -0.73111525789E+01  0.12541665441E+02  0.00000000000E+00 0. -1.
</event>
<event>
 7    1  0.1486782E-008  0.4614232E+02  0.7816164E-02  0.1320468E+00
        -11   -1    0    0    0    0  0.00000000000E+00  0.00000000000E+00  0.45593999997E+02  0.45594000000E+02  0.51100000000E-03 0.  1.
         11   -1    0    0    0    0 -0.00000000000E+00 -0.00000000000E+00 -0.45593999997E+02  0.45594000000E+02  0.51100000000E-03 0. -1.
    9900012    2    1    2    0    0 -0.23379127632E+02  0.21239308287E+02 -0.32115754285E+02  0.46142317647E+02  0.99999989619E+01 0.  0.
        -12    1    1    2    0    0  0.23379127632E+02 -0.21239308287E+02  0.32115754285E+02  0.45045682353E+02  0.00000000000E+00 0.  1.
         11    1    3    3    0    0 -0.13258579462E+02  0.10255546743E+02 -0.19905874264E+02  0.26023258805E+02  0.51100000000E-03 0. -1.
        -11    1    3    3    0    0 -0.23760834659E+01  0.67641256381E+01 -0.53273402690E+01  0.89319495569E+01  0.51100000000E-03 0.  1.
         12    1    3    3    0    0 -0.77444647040E+01  0.42196359065E+01 -0.68825397516E+01  0.11187109286E+02  0.00000000000E+00 0. -1.
</event>
<event>
 7    1  0.1486782E-008  0.4614232E+02  0.7816164E-02  0.1320468E+00
        -11   -1    0    0    0    0  0.00000000000E+00  0.00000000000E+00  0.45593999997E+02  0.45594000000E+02  0.51100000000E-03 0.  1.
         11   -1    0    0    0    0 -0.00000000000E+00 -0.00000000000E+00 -0.45593999997E+02  0.45594000000E+02  0.51100000000E-03 0. -1.
    9900012    2    1    2    0    0 -0.18031441381E+02  0.41079226893E+02 -0.40592679262E+01  0.46142318559E+02  0.10000007271E+02 0.  0.
        -12    1    1    2    0    0  0.18031441381E+02 -0.41079226893E+02  0.40592679262E+01  0.45045681441E+02  0.00000000000E+00 0.  1.
         11    1    3    3    0    0 -0.54221699827E+01  0.16294565503E+02  0.24129368822E+01  0.17341714359E+02  0.51100000000E-03 0. -1.
        -11    1    3    3    0    0 -0.12824286110E+02  0.23629615020E+02 -0.62945581553E+01  0.27612361052E+02  0.51100000000E-03 0.  1.
        -12    1    3    3    0    0  0.21501471214E+00  0.11550463700E+01 -0.17764665301E+00  0.11882431471E+01  0.00000000000E+00 0.  1.
</event>
<event>
 7    1  0.1574520E-008  0.4614232E+02  0.7816164E-02  0.1320468E+00
        -11   -1    0    0    0    0  0.00000000000E+00  0.00000000000E+00  0.45593999997E+02  0.45594000000E+02  0.51100000000E-03 0. -1.
         11   -1    0    0    0    0 -0.00000000000E+00 -0.00000000000E+00 -0.45593999997E+02  0.45594000000E+02  0.51100000000E-03 0.  1.
    9900012    2    1    2    0    0  0.39084261960E+02 -0.58520575822E+01  0.21616833171E+02  0.46142316664E+02  0.99999899921E+01 0.  0.
        -12    1    1    2    0    0 -0.39084261960E+02  0.58520575822E+01 -0.21616833171E+02  0.45045683336E+02  0.00000000000E+00 0.  1.
         11    1    3    3    0    0  0.27242659138E+02 -0.64846883246E+01  0.19314681508E+02  0.34018679892E+02  0.51100000000E-03 0. -1.
        -11    1    3    3    0    0  0.60530205005E+01  0.82475368844E+00  0.10617833669E+01  0.62005370739E+01  0.51100000000E-03 0.  1.
         12    1    3    3    0    0  0.57885823211E+01 -0.19212294607E+00  0.12403682959E+01  0.59230996973E+01  0.00000000000E+00 0. -1.
</event>
<event>
 7    1  0.1486782E-008  0.4614231E+02  0.7816164E-02  0.1320468E+00
        -11   -1    0    0    0    0  0.00000000000E+00  0.00000000000E+00  0.45593999997E+02  0.45594000000E+02  0.51100000000E-03 0.  1.
         11   -1    0    0    0    0 -0.00000000000E+00 -0.00000000000E+00 -0.45593999997E+02  0.45594000000E+02  0.51100000000E-03 0. -1.
    9900012    2    1    2    0    0 -0.44495858983E+02  0.36729795545E+00  0.70069867922E+01  0.46142309436E+02  0.99999240870E+01 0.  0.
        -12    1    1    2    0    0  0.44495858983E+02 -0.36729795545E+00 -0.70069867922E+01  0.45045690564E+02  0.00000000000E+00 0.  1.
         11    1    3    3    0    0 -0.26609915482E+02 -0.50506753397E-01  0.75435602718E+01  0.27658551205E+02  0.51100000000E-03 0. -1.
        -11    1    3    3    0    0 -0.47642528918E+01 -0.15777740050E+01 -0.13158025662E+01  0.51883343263E+01  0.51100000000E-03 0.  1.
         12    1    3    3    0    0 -0.13121690610E+02  0.19955787138E+01  0.77922908666E+00  0.13295423905E+02  0.00000000000E+00 0. -1.
</event>
<event>
 7    1  0.1486782E-008  0.4614231E+02  0.7816164E-02  0.1320468E+00
        -11   -1    0    0    0    0  0.00000000000E+00  0.00000000000E+00  0.45593999997E+02  0.45594000000E+02  0.51100000000E-03 0.  1.
         11   -1    0    0    0    0 -0.00000000000E+00 -0.00000000000E+00 -0.45593999997E+02  0.45594000000E+02  0.51100000000E-03 0. -1.
    9900012    2    1    2    0    0 -0.28280749212E+02  0.49088036191E+01 -0.34716232071E+02  0.46142313212E+02  0.99999585207E+01 0.  0.
        -12    1    1    2    0    0  0.28280749212E+02 -0.49088036191E+01  0.34716232071E+02  0.45045686788E+02  0.00000000000E+00 0.  1.
         11    1    3    3    0    0 -0.21014443676E+02  0.68244774902E+01 -0.23010980737E+02  0.31901184473E+02  0.51100000000E-03 0. -1.
        -11    1    3    3    0    0 -0.21696174938E+01 -0.36704213093E+00 -0.62079885216E+01  0.65864316394E+01  0.51100000000E-03 0.  1.
         12    1    3    3    0    0 -0.50966880425E+01 -0.15486317402E+01 -0.54972628124E+01  0.76546971003E+01  0.00000000000E+00 0. -1.
</event>
<event>
 7    1  0.1486782E-008  0.4614232E+02  0.7816164E-02  0.1320468E+00
        -11   -1    0    0    0    0  0.00000000000E+00  0.00000000000E+00  0.45593999997E+02  0.45594000000E+02  0.51100000000E-03 0. -1.
         11   -1    0    0    0    0 -0.00000000000E+00 -0.00000000000E+00 -0.45593999997E+02  0.45594000000E+02  0.51100000000E-03 0.  1.
    9900012    2    1    2    0    0  0.49957812275E+01  0.44409451822E+02 -0.56529843197E+01  0.46142317933E+02  0.10000001564E+02 0.  0.
        -12    1    1    2    0    0 -0.49957812275E+01 -0.44409451822E+02  0.56529843197E+01  0.45045682067E+02  0.00000000000E+00 0.  1.
         11    1    3    3    0    0  0.48970887252E+01  0.14711685055E+02  0.94390232887E+00  0.15534030610E+02  0.51100000000E-03 0. -1.
        -11    1    3    3    0    0  0.27834890376E+00  0.12703065690E+02 -0.11357020624E+01  0.12756769790E+02  0.51100000000E-03 0.  1.
         12    1    3    3    0    0 -0.17965640141E+00  0.16994701077E+02 -0.54611845861E+01  0.17851517532E+02  0.00000000000E+00 0. -1.
</event>
<event>
 7    1  0.1486782E-008  0.4614232E+02  0.7816164E-02  0.1320468E+00
        -11   -1    0    0    0    0  0.00000000000E+00  0.00000000000E+00  0.45593999997E+02  0.45594000000E+02  0.51100000000E-03 0. -1.
         11   -1    0    0    0    0 -0.00000000000E+00 -0.00000000000E+00 -0.45593999997E+02  0.45594000000E+02  0.51100000000E-03 0.  1.
    9900012    2    1    2    0    0  0.43188281989E+02 -0.12012731976E+02  0.44249435391E+01  0.46142317010E+02  0.99999931548E+01 0.  0.
        -12    1    1    2    0    0 -0.43188281989E+02  0.12012731976E+02 -0.44249435391E+01  0.45045682990E+02  0.00000000000E+00 0.  1.
         11    1    3    3    0    0  0.21365322114E+02 -0.10146224170E+02  0.22460020571E+01  0.23758522249E+02  0.51100000000E-03 0. -1.
        -11    1    3    3    0    0  0.16126014814E+02 -0.22386083907E+01  0.21512057735E-01  0.16280669039E+02  0.51100000000E-03 0.  1.
         12    1    3    3    0    0  0.56969450610E+01  0.37210058509E+00  0.21574294242E+01  0.61031257232E+01  0.00000000000E+00 0. -1.
</event>
<event>
 7    1  0.1486782E-008  0.4614232E+02  0.7816164E-02  0.1320468E+00
        -11   -1    0    0    0    0  0.00000000000E+00  0.00000000000E+00  0.45593999997E+02  0.45594000000E+02  0.51100000000E-03 0.  1.
         11   -1    0    0    0    0 -0.00000000000E+00 -0.00000000000E+00 -0.45593999997E+02  0.45594000000E+02  0.51100000000E-03 0. -1.
    9900012    2    1    2    0    0  0.31718096853E+02 -0.26352767026E+02 -0.18127531438E+02  0.46142318809E+02  0.10000009556E+02 0.  0.
        -12    1    1    2    0    0 -0.31718096853E+02  0.26352767026E+02  0.18127531438E+02  0.45045681191E+02  0.00000000000E+00 0.  1.
         11    1    3    3    0    0  0.16420202379E+02 -0.14552430985E+02 -0.10228079963E+02  0.24207641639E+02  0.51100000000E-03 0. -1.
        -11    1    3    3    0    0  0.13129788264E+02 -0.71059144744E+01 -0.39931895496E+01  0.15454155538E+02  0.51100000000E-03 0.  1.
        -12    1    3    3    0    0  0.21681062106E+01 -0.46944215667E+01 -0.39062619256E+01  0.64805216316E+01  0.00000000000E+00 0.  1.
</event>
<event>
 7    1  0.1486782E-008  0.4614232E+02  0.7816164E-02  0.1320468E+00
        -11   -1    0    0    0    0  0.00000000000E+00  0.00000000000E+00  0.45593999997E+02  0.45594000000E+02  0.51100000000E-03 0. -1.
         11   -1    0    0    0    0 -0.00000000000E+00 -0.00000000000E+00 -0.45593999997E+02  0.45594000000E+02  0.51100000000E-03 0.  1.
    9900012    2    1    2    0    0  0.30454930642E+02  0.21581248004E+02  0.25216273126E+02  0.46142317674E+02  0.99999992102E+01 0.  0.
        -12    1    1    2    0    0 -0.30454930642E+02 -0.21581248004E+02 -0.25216273126E+02  0.45045682326E+02  0.00000000000E+00 0.  1.
         11    1    3    3    0    0  0.17844849105E+02  0.91712935126E+01  0.12492404948E+02  0.23634962364E+02  0.51100000000E-03 0. -1.
        -11    1    3    3    0    0  0.32464633720E+01  0.10320229765E+01  0.44621173246E+01  0.56138299876E+01  0.51100000000E-03 0.  1.
        -12    1    3    3    0    0  0.93636181651E+01  0.11377931515E+02  0.82617508527E+01  0.16893525323E+02  0.00000000000E+00 0.  1.
</event>
<event>
 7    1  0.1486782E-008  0.4614232E+02  0.7816164E-02  0.1320468E+00
        -11   -1    0    0    0    0  0.00000000000E+00  0.00000000000E+00  0.45593999997E+02  0.45594000000E+02  0.51100000000E-03 0.  1.
         11   -1    0    0    0    0 -0.00000000000E+00 -0.00000000000E+00 -0.45593999997E+02  0.45594000000E+02  0.51100000000E-03 0. -1.
    9900012    2    1    2    0    0 -0.18280180750E+01  0.38947773166E+02 -0.22557545311E+02  0.46142317242E+02  0.99999952670E+01 0.  0.
        -12    1    1    2    0    0  0.18280180750E+01 -0.38947773166E+02  0.22557545311E+02  0.45045682758E+02  0.00000000000E+00 0.  1.
         11    1    3    3    0    0 -0.51050311364E+01  0.27378376523E+02 -0.18080070039E+02  0.33204303589E+02  0.51100000000E-03 0. -1.
        -11    1    3    3    0    0  0.31717494748E+01  0.90470855431E+01 -0.38896624137E+01  0.10345976296E+02  0.51100000000E-03 0.  1.
         12    1    3    3    0    0  0.10526358663E+00  0.25223110997E+01 -0.58781285806E+00  0.25920373574E+01  0.00000000000E+00 0. -1.
</event>
<event>
 7    1  0.1486782E-008  0.4614232E+02  0.7816164E-02  0.1320468E+00
        -11   -1    0    0    0    0  0.00000000000E+00  0.00000000000E+00  0.45593999997E+02  0.45594000000E+02  0.51100000000E-03 0.  1.
         11   -1    0    0    0    0 -0.00000000000E+00 -0.00000000000E+00 -0.45593999997E+02  0.45594000000E+02  0.51100000000E-03 0. -1.
    9900012    2    1    2    0    0  0.13969089296E+02  0.13964337116E+02 -0.40484261681E+02  0.46142316403E+02  0.99999876137E+01 0.  0.
        -12    1    1    2    0    0 -0.13969089296E+02 -0.13964337116E+02  0.40484261681E+02  0.45045683597E+02  0.00000000000E+00 0.  1.
         11    1    3    3    0    0  0.11876565348E+02  0.96372193890E+01 -0.29642404097E+02  0.33355673025E+02  0.51100000000E-03 0. -1.
        -11    1    3    3    0    0  0.27110422206E+01  0.12913874741E+01 -0.25660359463E+01  0.39499331980E+01  0.51100000000E-03 0.  1.
         12    1    3    3    0    0 -0.61851827246E+00  0.30357302530E+01 -0.82758216380E+01  0.88367101800E+01  0.00000000000E+00 0. -1.
</event>
<event>
 7    1  0.1850644E-008  0.4614232E+02  0.7816164E-02  0.1320468E+00
        -11   -1    0    0    0    0  0.00000000000E+00  0.00000000000E+00  0.45593999997E+02  0.45594000000E+02  0.51100000000E-03 0. -1.
         11   -1    0    0    0    0 -0.00000000000E+00 -0.00000000000E+00 -0.45593999997E+02  0.45594000000E+02  0.51100000000E-03 0.  1.
    9900012    2    1    2    0    0  0.32625755117E+02 -0.26662623273E+02  0.15930415106E+02  0.46142317608E+02  0.99999985993E+01 0.  0.
        -12    1    1    2    0    0 -0.32625755117E+02  0.26662623273E+02 -0.15930415106E+02  0.45045682392E+02  0.00000000000E+00 0.  1.
         11    1    3    3    0    0  0.29435095095E+02 -0.24041624811E+02  0.13448229524E+02  0.40314754426E+02  0.51100000000E-03 0. -1.
        -11    1    3    3    0    0  0.12346693545E+01 -0.19404075897E+00 -0.64993721057E+00  0.14087153261E+01  0.51100000000E-03 0.  1.
         12    1    3    3    0    0  0.19559906670E+01 -0.24269577036E+01  0.31321227927E+01  0.44188478559E+01  0.00000000000E+00 0. -1.
</event>
<event>
 7    1  0.1486782E-008  0.4614232E+02  0.7816164E-02  0.1320468E+00
        -11   -1    0    0    0    0  0.00000000000E+00  0.00000000000E+00  0.45593999997E+02  0.45594000000E+02  0.51100000000E-03 0. -1.
         11   -1    0    0    0    0 -0.00000000000E+00 -0.00000000000E+00 -0.45593999997E+02  0.45594000000E+02  0.51100000000E-03 0.  1.
    9900012    2    1    2    0    0 -0.24157323297E+02 -0.17666401226E+02  0.33666529084E+02  0.46142321165E+02  0.10000031039E+02 0.  0.
        -12    1    1    2    0    0  0.24157323297E+02  0.17666401226E+02 -0.33666529084E+02  0.45045678835E+02  0.00000000000E+00 0.  1.
         11    1    3    3    0    0 -0.52258917593E+01 -0.26539641306E+01  0.10665244464E+02  0.12169671730E+02  0.51100000000E-03 0. -1.
        -11    1    3    3    0    0 -0.16713830139E+01 -0.26639627861E+01  0.60222614605E+01  0.67939570402E+01  0.51100000000E-03 0.  1.
        -12    1    3    3    0    0 -0.17260048524E+02 -0.12348474310E+02  0.16979023159E+02  0.27178692394E+02  0.00000000000E+00 0.  1.
</event>
<event>
 7    1  0.1486782E-008  0.4614231E+02  0.7816164E-02  0.1320468E+00
        -11   -1    0    0    0    0  0.00000000000E+00  0.00000000000E+00  0.45593999997E+02  0.45594000000E+02  0.51100000000E-03 0.  1.
         11   -1    0    0    0    0 -0.00000000000E+00 -0.00000000000E+00 -0.45593999997E+02  0.45594000000E+02  0.51100000000E-03 0. -1.
    9900012    2    1    2    0    0  0.19983279972E+02  0.40184372589E+02 -0.38728498374E+01  0.46142309366E+02  0.99999234506E+01 0.  0.
        -12    1    1    2    0    0 -0.19983279972E+02 -0.40184372589E+02  0.38728498374E+01  0.45045690634E+02  0.00000000000E+00 0.  1.
         11    1    3    3    0    0  0.51682421741E+01  0.83312175925E+01  0.14445730950E+01  0.99099296381E+01  0.51100000000E-03 0. -1.
        -11    1    3    3    0    0  0.88121839014E+01  0.20689603509E+02 -0.67431328045E+01  0.23477310722E+02  0.51100000000E-03 0.  1.
        -12    1    3    3    0    0  0.60028538963E+01  0.11163551487E+02  0.14257098720E+01  0.12755069006E+02  0.00000000000E+00 0.  1.
</event>
<event>
 7    1  0.1486782E-008  0.4614232E+02  0.7816164E-02  0.1320468E+00
        -11   -1    0    0    0    0  0.00000000000E+00  0.00000000000E+00  0.45593999997E+02  0.45594000000E+02  0.51100000000E-03 0.  1.
         11   -1    0    0    0    0 -0.00000000000E+00 -0.00000000000E+00 -0.45593999997E+02  0.45594000000E+02  0.51100000000E-03 0. -1.
    9900012    2    1    2    0    0 -0.23816756822E+02  0.37254619317E+02 -0.86005017443E+01  0.46142321003E+02  0.10000029566E+02 0.  0.
        -12    1    1    2    0    0  0.23816756822E+02 -0.37254619317E+02  0.86005017443E+01  0.45045678997E+02  0.00000000000E+00 0.  1.
         11    1    3    3    0    0 -0.10060747927E+02  0.15270668188E+02 -0.34605039299E+01  0.18611476123E+02  0.51100000000E-03 0. -1.
        -11    1    3    3    0    0 -0.76370741060E+01  0.12164639322E+02  0.10640325332E+01  0.14402621852E+02  0.51100000000E-03 0.  1.
        -12    1    3    3    0    0 -0.61189347897E+01  0.98193118071E+01 -0.62040303477E+01  0.13128223028E+02  0.00000000000E+00 0.  1.
</event>
<event>
 7    1  0.1486782E-008  0.4614232E+02  0.7816164E-02  0.1320468E+00
        -11   -1    0    0    0    0  0.00000000000E+00  0.00000000000E+00  0.45593999997E+02  0.45594000000E+02  0.51100000000E-03 0. -1.
         11   -1    0    0    0    0 -0.00000000000E+00 -0.00000000000E+00 -0.45593999997E+02  0.45594000000E+02  0.51100000000E-03 0.  1.
    9900012    2    1    2    0    0  0.32044331677E+02 -0.21165664680E+02  0.23543339067E+02  0.46142319093E+02  0.10000012144E+02 0.  0.
        -12    1    1    2    0    0 -0.32044331677E+02  0.21165664680E+02 -0.23543339067E+02  0.45045680907E+02  0.00000000000E+00 0.  1.
         11    1    3    3    0    0  0.21394582903E+02 -0.10387481237E+02  0.15601414334E+02  0.28443489124E+02  0.51100000000E-03 0. -1.
        -11    1    3    3    0    0  0.89267011973E+01 -0.78763601890E+01  0.41137865816E+01  0.12595486668E+02  0.51100000000E-03 0.  1.
         12    1    3    3    0    0  0.17230475760E+01 -0.29018232536E+01  0.38281381511E+01  0.51033433010E+01  0.00000000000E+00 0. -1.
</event>
<event>
 7    1  0.1486782E-008  0.4614232E+02  0.7816164E-02  0.1320468E+00
        -11   -1    0    0    0    0  0.00000000000E+00  0.00000000000E+00  0.45593999997E+02  0.45594000000E+02  0.51100000000E-03 0. -1.
         11   -1    0    0    0    0 -0.00000000000E+00 -0.00000000000E+00 -0.45593999997E+02  0.45594000000E+02  0.51100000000E-03 0.  1.
    9900012    2    1    2    0    0 -0.72915743836E+01 -0.16511326350E+02  0.41271329961E+02  0.46142316171E+02  0.99999855028E+01 0.  0.
        -12    1    1    2    0    0  0.72915743836E+01  0.16511326350E+02 -0.41271329961E+02  0.45045683829E+02  0.00000000000E+00 0.  1.
         11    1    3    3    0    0 -0.58778600176E+01 -0.64229537890E+01  0.20904218599E+02  0.22644865406E+02  0.51100000000E-03 0. -1.
        -11    1    3    3    0    0  0.37288966084E+00 -0.98676987993E+01  0.17904188438E+02  0.20446772121E+02  0.51100000000E-03 0.  1.
        -12    1    3    3    0    0 -0.17866040268E+01 -0.22067376117E+00  0.24629229245E+01  0.30506786441E+01  0.00000000000E+00 0.  1.
</event>
<event>
 7    1  0.1486782E-008  0.4614232E+02  0.7816164E-02  0.1320468E+00
        -11   -1    0    0    0    0  0.00000000000E+00  0.00000000000E+00  0.45593999997E+02  0.45594000000E+02  0.51100000000E-03 0.  1.
         11   -1    0    0    0    0 -0.00000000000E+00 -0.00000000000E+00 -0.45593999997E+02  0.45594000000E+02  0.51100000000E-03 0. -1.
    9900012    2    1    2    0    0  0.33228182799E+02  0.22347520690E+02 -0.20629824595E+02  0.46142317899E+02  0.10000001259E+02 0.  0.
        -12    1    1    2    0    0 -0.33228182799E+02 -0.22347520690E+02  0.20629824595E+02  0.45045682101E+02  0.00000000000E+00 0.  1.
         11    1    3    3    0    0  0.24493623727E+02  0.18626398625E+02 -0.12014331827E+02  0.33033687329E+02  0.51100000000E-03 0. -1.
        -11    1    3    3    0    0  0.15744026526E+01  0.63799095736E+00 -0.31791860800E+01  0.36045804980E+01  0.51100000000E-03 0.  1.
         12    1    3    3    0    0  0.71601564199E+01  0.30831311072E+01 -0.54363066875E+01  0.95040500725E+01  0.00000000000E+00 0. -1.
</event>
<event>
 7    1  0.1486782E-008  0.4614232E+02  0.7816164E-02  0.1320468E+00
        -11   -1    0    0    0    0  0.00000000000E+00  0.00000000000E+00  0.45593999997E+02  0.45594000000E+02  0.51100000000E-03 0.  1.
         11   -1    0    0    0    0 -0.00000000000E+00 -0.00000000000E+00 -0.45593999997E+02  0.45594000000E+02  0.51100000000E-03 0. -1.
    9900012    2    1    2    0    0 -0.86925308505E+01  0.82640193218E+01 -0.43419574768E+02  0.46142316733E+02  0.99999906229E+01 0.  0.
        -12    1    1    2    0    0  0.86925308505E+01 -0.82640193218E+01  0.43419574768E+02  0.45045683267E+02  0.00000000000E+00 0.  1.
         11    1    3    3    0    0 -0.26077787533E+01 -0.75049275004E+00 -0.12508387807E+02  0.12799356046E+02  0.51100000000E-03 0. -1.
        -11    1    3    3    0    0 -0.71431427068E+01  0.60858720773E+01 -0.23457769585E+02  0.25265179216E+02  0.51100000000E-03 0.  1.
        -12    1    3    3    0    0  0.10583906097E+01  0.29286399945E+01 -0.74534173759E+01  0.80777814702E+01  0.00000000000E+00 0.  1.
</event>
<event>
 7    1  0.1486782E-008  0.4614232E+02  0.7816164E-02  0.1320468E+00
        -11   -1    0    0    0    0  0.00000000000E+00  0.00000000000E+00  0.45593999997E+02  0.45594000000E+02  0.51100000000E-03 0. -1.
         11   -1    0    0    0    0 -0.00000000000E+00 -0.00000000000E+00 -0.45593999997E+02  0.45594000000E+02  0.51100000000E-03 0.  1.
    9900012    2    1    2    0    0  0.30088351672E+02 -0.32888969222E+02  0.64900122610E+01  0.46142318054E+02  0.10000002674E+02 0.  0.
        -12    1    1    2    0    0 -0.30088351672E+02  0.32888969222E+02 -0.64900122610E+01  0.45045681946E+02  0.00000000000E+00 0.  1.
         11    1    3    3    0    0  0.77634877248E+01 -0.43362297330E+01 -0.14020588045E+01  0.90022441149E+01  0.51100000000E-03 0. -1.
        -11    1    3    3    0    0  0.11658555794E+02 -0.15048567094E+02  0.50886186035E+01  0.19704703356E+02  0.51100000000E-03 0.  1.
         12    1    3    3    0    0  0.10666308154E+02 -0.13504172394E+02  0.28034524620E+01  0.17435370584E+02  0.00000000000E+00 0. -1.
</event>
<event>
 7    1  0.1486782E-008  0.4614232E+02  0.7816164E-02  0.1320468E+00
        -11   -1    0    0    0    0  0.00000000000E+00  0.00000000000E+00  0.45593999997E+02  0.45594000000E+02  0.51100000000E-03 0. -1.
         11   -1    0    0    0    0 -0.00000000000E+00 -0.00000000000E+00 -0.45593999997E+02  0.45594000000E+02  0.51100000000E-03 0.  1.
    9900012    2    1    2    0    0 -0.42547997030E+02  0.16167735073E+01  0.14702632850E+02  0.46142318514E+02  0.10000006867E+02 0.  0.
        -12    1    1    2    0    0  0.42547997030E+02 -0.16167735073E+01 -0.14702632850E+02  0.45045681486E+02  0.00000000000E+00 0.  1.
         11    1    3    3    0    0 -0.72248137484E+01 -0.14146491008E+01  0.44389440758E+01  0.85967081227E+01  0.51100000000E-03 0. -1.
        -11    1    3    3    0    0 -0.14302374170E+02  0.42397003613E+01  0.59046312217E+01  0.16043616680E+02  0.51100000000E-03 0.  1.
        -12    1    3    3    0    0 -0.21020809111E+02 -0.12082777532E+01  0.43590575527E+01  0.21501993712E+02  0.00000000000E+00 0.  1.
</event>
<event>
 7    1  0.1486782E-008  0.4614233E+02  0.7816164E-02  0.1320468E+00
        -11   -1    0    0    0    0  0.00000000000E+00  0.00000000000E+00  0.45593999997E+02  0.45594000000E+02  0.51100000000E-03 0.  1.
         11   -1    0    0    0    0 -0.00000000000E+00 -0.00000000000E+00 -0.45593999997E+02  0.45594000000E+02  0.51100000000E-03 0. -1.
    9900012    2    1    2    0    0 -0.41471375221E+02  0.16055580239E+02 -0.71732681092E+01  0.46142329898E+02  0.10000110674E+02 0.  0.
        -12    1    1    2    0    0  0.41471375221E+02 -0.16055580239E+02  0.71732681092E+01  0.45045670102E+02  0.00000000000E+00 0.  1.
         11    1    3    3    0    0 -0.21182477167E+02  0.10126932930E+02 -0.26148571989E+01  0.23623919826E+02  0.51100000000E-03 0. -1.
        -11    1    3    3    0    0 -0.12301888877E+02  0.40206761991E+01 -0.58548104317E+01  0.14204967881E+02  0.51100000000E-03 0.  1.
        -12    1    3    3    0    0 -0.79870091770E+01  0.19079711106E+01  0.12963995214E+01  0.83134421915E+01  0.00000000000E+00 0.  1.
</event>
<event>
 7    1  0.1486782E-008  0.4614232E+02  0.7816164E-02  0.1320468E+00
        -11   -1    0    0    0    0  0.00000000000E+00  0.00000000000E+00  0.45593999997E+02  0.45594000000E+02  0.51100000000E-03 0. -1.
         11   -1    0    0    0    0 -0.00000000000E+00 -0.00000000000E+00 -0.45593999997E+02  0.45594000000E+02  0.51100000000E-03 0.  1.
    9900012    2    1    2    0    0  0.19954198868E+02 -0.39898502573E+02  0.62492358834E+01  0.46142317530E+02  0.99999978970E+01 0.  0.
        -12    1    1    2    0    0 -0.19954198868E+02  0.39898502573E+02 -0.62492358834E+01  0.45045682470E+02  0.00000000000E+00 0.  1.
         11    1    3    3    0    0  0.12540509576E+02 -0.21510425755E+02  0.31759024252E+01  0.25100779930E+02  0.51100000000E-03 0. -1.
        -11    1    3    3    0    0  0.45963365338E+01 -0.16374776435E+02  0.10705628961E+01  0.17041294494E+02  0.51100000000E-03 0.  1.
        -12    1    3    3    0    0  0.28173527582E+01 -0.20133003821E+01  0.20027705621E+01  0.40002431073E+01  0.00000000000E+00 0.  1.
</event>
<event>
 7    1  0.1486782E-008  0.4614232E+02  0.7816164E-02  0.1320468E+00
        -11   -1    0    0    0    0  0.00000000000E+00  0.00000000000E+00  0.45593999997E+02  0.45594000000E+02  0.51100000000E-03 0.  1.
         11   -1    0    0    0    0 -0.00000000000E+00 -0.00000000000E+00 -0.45593999997E+02  0.45594000000E+02  0.51100000000E-03 0. -1.
    9900012    2    1    2    0    0  0.26262983081E+02 -0.99980028206E+01 -0.35205243131E+02  0.46142317802E+02  0.10000000376E+02 0.  0.
        -12    1    1    2    0    0 -0.26262983081E+02  0.99980028206E+01  0.35205243131E+02  0.45045682198E+02  0.00000000000E+00 0.  1.
         11    1    3    3    0    0  0.17237294825E+02 -0.41142346444E+01 -0.23623427338E+02  0.29531636918E+02  0.51100000000E-03 0. -1.
        -11    1    3    3    0    0  0.84997252655E+01 -0.66694086461E+01 -0.97670022667E+01  0.14564363179E+02  0.51100000000E-03 0.  1.
        -12    1    3    3    0    0  0.52596299077E+00  0.78564046984E+00 -0.18148135262E+01  0.20463177052E+01  0.00000000000E+00 0.  1.
</event>
<event>
 7    1  0.1486782E-008  0.4614232E+02  0.7816164E-02  0.1320468E+00
        -11   -1    0    0    0    0  0.00000000000E+00  0.00000000000E+00  0.45593999997E+02  0.45594000000E+02  0.51100000000E-03 0.  1.
         11   -1    0    0    0    0 -0.00000000000E+00 -0.00000000000E+00 -0.45593999997E+02  0.45594000000E+02  0.51100000000E-03 0. -1.
    9900012    2    1    2    0    0  0.34892652512E+02  0.62184960618E+01 -0.27801917451E+02  0.46142317559E+02  0.99999981578E+01 0.  0.
        -12    1    1    2    0    0 -0.34892652512E+02 -0.62184960618E+01  0.27801917451E+02  0.45045682441E+02  0.00000000000E+00 0.  1.
         11    1    3    3    0    0  0.23384072685E+02  0.40685023334E+01 -0.14907324104E+02  0.28028483348E+02  0.51100000000E-03 0. -1.
        -11    1    3    3    0    0  0.22917016356E+01 -0.12972686727E+01 -0.14000350573E+01  0.29824320308E+01  0.51100000000E-03 0.  1.
        -12    1    3    3    0    0  0.92168781909E+01  0.34472624010E+01 -0.11494558291E+02  0.15131402180E+02  0.00000000000E+00 0.  1.
</event>
<event>
 7    1  0.1486782E-008  0.4614232E+02  0.7816164E-02  0.1320468E+00
        -11   -1    0    0    0    0  0.00000000000E+00  0.00000000000E+00  0.45593999997E+02  0.45594000000E+02  0.51100000000E-03 0.  1.
         11   -1    0    0    0    0 -0.00000000000E+00 -0.00000000000E+00 -0.45593999997E+02  0.45594000000E+02  0.51100000000E-03 0. -1.
    9900012    2    1    2    0    0 -0.28611509089E+02 -0.21327985521E+02 -0.27488392710E+02  0.46142321489E+02  0.10000033996E+02 0.  0.
        -12    1    1    2    0    0  0.28611509089E+02  0.21327985521E+02  0.27488392710E+02  0.45045678511E+02  0.00000000000E+00 0.  1.
         11    1    3    3    0    0 -0.94353467931E+01 -0.42117497845E+01 -0.10369872914E+02  0.14638950436E+02  0.51100000000E-03 0. -1.
        -11    1    3    3    0    0 -0.13811012794E+02 -0.87883978124E+01 -0.12366696010E+02  0.20516217511E+02  0.51100000000E-03 0.  1.
        -12    1    3    3    0    0 -0.53651495023E+01 -0.83278379237E+01 -0.47518237853E+01  0.10987153542E+02  0.00000000000E+00 0.  1.
</event>
<event>
 7    1  0.1486782E-008  0.4614232E+02  0.7816164E-02  0.1320468E+00
        -11   -1    0    0    0    0  0.00000000000E+00  0.00000000000E+00  0.45593999997E+02  0.45594000000E+02  0.51100000000E-03 0.  1.
         11   -1    0    0    0    0 -0.00000000000E+00 -0.00000000000E+00 -0.45593999997E+02  0.45594000000E+02  0.51100000000E-03 0. -1.
    9900012    2    1    2    0    0 -0.63594576171E+00  0.45034674087E+02 -0.76636719761E+00  0.46142316346E+02  0.99999870990E+01 0.  0.
        -12    1    1    2    0    0  0.63594576171E+00 -0.45034674087E+02  0.76636719761E+00  0.45045683654E+02  0.00000000000E+00 0.  1.
         11    1    3    3    0    0  0.34059074923E+00  0.60816911610E+01 -0.28778398045E+01  0.67368339477E+01  0.51100000000E-03 0.  1.
        -11    1    3    3    0    0  0.13532164887E+01  0.86910634201E+01  0.21468700177E+01  0.90539952160E+01  0.51100000000E-03 0. -1.
         12    1    3    3    0    0 -0.23297529996E+01  0.30261919506E+02 -0.35397410772E-01  0.30351487183E+02  0.00000000000E+00 0. -1.
</event>
<event>
 7    1  0.1486782E-008  0.4614232E+02  0.7816164E-02  0.1320468E+00
        -11   -1    0    0    0    0  0.00000000000E+00  0.00000000000E+00  0.45593999997E+02  0.45594000000E+02  0.51100000000E-03 0. -1.
         11   -1    0    0    0    0 -0.00000000000E+00 -0.00000000000E+00 -0.45593999997E+02  0.45594000000E+02  0.51100000000E-03 0.  1.
    9900012    2    1    2    0    0 -0.35358574100E+02  0.26876940696E+02 -0.75176317724E+01  0.46142317732E+02  0.99999997323E+01 0.  0.
        -12    1    1    2    0    0  0.35358574100E+02 -0.26876940696E+02  0.75176317724E+01  0.45045682268E+02  0.00000000000E+00 0.  1.
         11    1    3    3    0    0 -0.13198690868E+02  0.74972741950E+01 -0.12021653206E+01  0.15226942001E+02  0.51100000000E-03 0. -1.
        -11    1    3    3    0    0 -0.29466539102E+01 -0.37354904151E-01 -0.56510508974E+00  0.30005847228E+01  0.51100000000E-03 0.  1.
        -12    1    3    3    0    0 -0.19213229321E+02  0.19417021405E+02 -0.57503613620E+01  0.27914791008E+02  0.00000000000E+00 0.  1.
</event>
<event>
 7    1  0.1486782E-008  0.4614232E+02  0.7816164E-02  0.1320468E+00
        -11   -1    0    0    0    0  0.00000000000E+00  0.00000000000E+00  0.45593999997E+02  0.45594000000E+02  0.51100000000E-03 0. -1.
         11   -1    0    0    0    0 -0.00000000000E+00 -0.00000000000E+00 -0.45593999997E+02  0.45594000000E+02  0.51100000000E-03 0.  1.
    9900012    2    1    2    0    0  0.37112756693E+02 -0.12671595305E+02  0.22162752068E+02  0.46142316342E+02  0.99999870621E+01 0.  0.
        -12    1    1    2    0    0 -0.37112756693E+02  0.12671595305E+02 -0.22162752068E+02  0.45045683658E+02  0.00000000000E+00 0.  1.
         11    1    3    3    0    0  0.28166745982E+01 -0.29029344670E+01  0.42531167029E+01  0.58693855097E+01  0.51100000000E-03 0. -1.
        -11    1    3    3    0    0  0.30501834456E+02 -0.90043909674E+01  0.17699881530E+02  0.36396796127E+02  0.51100000000E-03 0.  1.
        -12    1    3    3    0    0  0.37942476395E+01 -0.76426987053E+00  0.20975383486E+00  0.38761347056E+01  0.00000000000E+00 0.  1.
</event>
<event>
 7    1  0.1486782E-008  0.4614232E+02  0.7816164E-02  0.1320468E+00
        -11   -1    0    0    0    0  0.00000000000E+00  0.00000000000E+00  0.45593999997E+02  0.45594000000E+02  0.51100000000E-03 0.  1.
         11   -1    0    0    0    0 -0.00000000000E+00 -0.00000000000E+00 -0.45593999997E+02  0.45594000000E+02  0.51100000000E-03 0. -1.
    9900012    2    1    2    0    0 -0.72471485563E+01  0.13071537188E+02 -0.42493849838E+02  0.46142317402E+02  0.99999967279E+01 0.  0.
        -12    1    1    2    0    0  0.72471485563E+01 -0.13071537188E+02  0.42493849838E+02  0.45045682598E+02  0.00000000000E+00 0.  1.
         11    1    3    3    0    0 -0.44545962355E+01  0.19488816382E+01 -0.11392939492E+02  0.12387115798E+02  0.51100000000E-03 0.  1.
        -11    1    3    3    0    0 -0.23074344779E+01  0.43662181056E+01 -0.60764975176E+01  0.78301939158E+01  0.51100000000E-03 0. -1.
         12    1    3    3    0    0 -0.48511784284E+00  0.67564374441E+01 -0.25024412828E+02  0.25925007688E+02  0.00000000000E+00 0. -1.
</event>
<event>
 7    1  0.1486782E-008  0.4614232E+02  0.7816164E-02  0.1320468E+00
        -11   -1    0    0    0    0  0.00000000000E+00  0.00000000000E+00  0.45593999997E+02  0.45594000000E+02  0.51100000000E-03 0.  1.
         11   -1    0    0    0    0 -0.00000000000E+00 -0.00000000000E+00 -0.45593999997E+02  0.45594000000E+02  0.51100000000E-03 0. -1.
    9900012    2    1    2    0    0 -0.18500305518E+02 -0.16832168488E+02 -0.37463719328E+02  0.46142318008E+02  0.10000002249E+02 0.  0.
        -12    1    1    2    0    0  0.18500305518E+02  0.16832168488E+02  0.37463719328E+02  0.45045681992E+02  0.00000000000E+00 0.  1.
         11    1    3    3    0    0 -0.13150717103E+02 -0.77026085247E+01 -0.23058115195E+02  0.27639613149E+02  0.51100000000E-03 0. -1.
        -11    1    3    3    0    0 -0.27323627658E+00 -0.21021207956E+01 -0.62521397793E+01  0.66017287117E+01  0.51100000000E-03 0.  1.
         12    1    3    3    0    0 -0.50763521375E+01 -0.70274391682E+01 -0.81534643533E+01  0.11900976147E+02  0.00000000000E+00 0. -1.
</event>
<event>
 7    1  0.1486782E-008  0.4614232E+02  0.7816164E-02  0.1320468E+00
        -11   -1    0    0    0    0  0.00000000000E+00  0.00000000000E+00  0.45593999997E+02  0.45594000000E+02  0.51100000000E-03 0. -1.
         11   -1    0    0    0    0 -0.00000000000E+00 -0.00000000000E+00 -0.45593999997E+02  0.45594000000E+02  0.51100000000E-03 0.  1.
    9900012    2    1    2    0    0  0.17169590465E+02 -0.40053282253E+02  0.11404092127E+02  0.46142316819E+02  0.99999914126E+01 0.  0.
        -12    1    1    2    0    0 -0.17169590465E+02  0.40053282253E+02 -0.11404092127E+02  0.45045683181E+02  0.00000000000E+00 0.  1.
         11    1    3    3    0    0  0.63697332818E+01 -0.98404477993E+01  0.70108551328E+01  0.13658697043E+02  0.51100000000E-03 0. -1.
        -11    1    3    3    0    0  0.92063399027E+01 -0.23591990581E+02  0.27136417034E+01  0.25469640074E+02  0.51100000000E-03 0.  1.
         12    1    3    3    0    0  0.15935172807E+01 -0.66208438728E+01  0.16795952911E+01  0.70139797016E+01  0.00000000000E+00 0. -1.
</event>
<event>
 7    1  0.1486782E-008  0.4614232E+02  0.7816164E-02  0.1320468E+00
        -11   -1    0    0    0    0  0.00000000000E+00  0.00000000000E+00  0.45593999997E+02  0.45594000000E+02  0.51100000000E-03 0.  1.
         11   -1    0    0    0    0 -0.00000000000E+00 -0.00000000000E+00 -0.45593999997E+02  0.45594000000E+02  0.51100000000E-03 0. -1.
    9900012    2    1    2    0    0 -0.18427629683E+02  0.41103037665E+02  0.27594938477E+00  0.46142318863E+02  0.10000010052E+02 0.  0.
        -12    1    1    2    0    0  0.18427629683E+02 -0.41103037665E+02 -0.27594938477E+00  0.45045681137E+02  0.00000000000E+00 0.  1.
         11    1    3    3    0    0 -0.11675151896E+02  0.22462899633E+02  0.28722620946E+01  0.25478244082E+02  0.51100000000E-03 0. -1.
        -11    1    3    3    0    0 -0.69182209265E+01  0.18707171549E+02 -0.20045616333E+01  0.20045905211E+02  0.51100000000E-03 0.  1.
        -12    1    3    3    0    0  0.16574313982E+00 -0.67033516551E-01 -0.59175107653E+00  0.61816957003E+00  0.00000000000E+00 0.  1.
</event>
<event>
 7    1  0.1486782E-008  0.4614232E+02  0.7816164E-02  0.1320468E+00
        -11   -1    0    0    0    0  0.00000000000E+00  0.00000000000E+00  0.45593999997E+02  0.45594000000E+02  0.51100000000E-03 0. -1.
         11   -1    0    0    0    0 -0.00000000000E+00 -0.00000000000E+00 -0.45593999997E+02  0.45594000000E+02  0.51100000000E-03 0.  1.
    9900012    2    1    2    0    0 -0.12235979259E+02 -0.42966598808E+02 -0.57676050458E+01  0.46142322410E+02  0.10000042393E+02 0.  0.
        -12    1    1    2    0    0  0.12235979259E+02  0.42966598808E+02  0.57676050458E+01  0.45045677590E+02  0.00000000000E+00 0.  1.
         11    1    3    3    0    0 -0.74228383419E+01 -0.21879960185E+02 -0.50258533214E+01  0.23645092273E+02  0.51100000000E-03 0.  1.
        -11    1    3    3    0    0 -0.48375154850E+01 -0.14036471333E+02 -0.28934006231E+01  0.15125999173E+02  0.51100000000E-03 0. -1.
         12    1    3    3    0    0  0.24374568097E-01 -0.70501672908E+01  0.21516488987E+01  0.73712309645E+01  0.00000000000E+00 0. -1.
</event>
<event>
 7    1  0.1486782E-008  0.4614232E+02  0.7816164E-02  0.1320468E+00
        -11   -1    0    0    0    0  0.00000000000E+00  0.00000000000E+00  0.45593999997E+02  0.45594000000E+02  0.51100000000E-03 0. -1.
         11   -1    0    0    0    0 -0.00000000000E+00 -0.00000000000E+00 -0.45593999997E+02  0.45594000000E+02  0.51100000000E-03 0.  1.
    9900012    2    1    2    0    0 -0.41385869798E+02 -0.46571343384E+01 -0.17164917465E+02  0.46142317513E+02  0.99999977353E+01 0.  0.
        -12    1    1    2    0    0  0.41385869798E+02  0.46571343384E+01  0.17164917465E+02  0.45045682487E+02  0.00000000000E+00 0.  1.
         11    1    3    3    0    0 -0.15677348789E+01 -0.19111585737E+01  0.10462988549E+00  0.24741195239E+01  0.51100000000E-03 0. -1.
        -11    1    3    3    0    0 -0.26888739774E+02 -0.26206396078E+01 -0.98187622333E+01  0.28745089505E+02  0.51100000000E-03 0.  1.
        -12    1    3    3    0    0 -0.12929395145E+02 -0.12533615691E+00 -0.74507851170E+01  0.14923108484E+02  0.00000000000E+00 0.  1.
</event>
<event>
 7    1  0.1486782E-008  0.4614232E+02  0.7816164E-02  0.1320468E+00
        -11   -1    0    0    0    0  0.00000000000E+00  0.00000000000E+00  0.45593999997E+02  0.45594000000E+02  0.51100000000E-03 0. -1.
         11   -1    0    0    0    0 -0.00000000000E+00 -0.00000000000E+00 -0.45593999997E+02  0.45594000000E+02  0.51100000000E-03 0.  1.
    9900012    2    1    2    0    0 -0.24516050974E+02  0.25094941151E+02  0.28254568566E+02  0.46142317947E+02  0.10000001695E+02 0.  0.
        -12    1    1    2    0    0  0.24516050974E+02 -0.25094941151E+02 -0.28254568566E+02  0.45045682053E+02  0.00000000000E+00 0.  1.
         11    1    3    3    0    0 -0.77406535390E+01  0.10864284608E+02  0.10795303832E+02  0.17160681290E+02  0.51100000000E-03 0. -1.
        -11    1    3    3    0    0 -0.16915040232E+02  0.12257784244E+02  0.17044423529E+02  0.26960790685E+02  0.51100000000E-03 0.  1.
         12    1    3    3    0    0  0.13964279677E+00  0.19728722988E+01  0.41484120497E+00  0.20208459722E+01  0.00000000000E+00 0. -1.
</event>
<event>
 7    1  0.1486782E-008  0.4614232E+02  0.7816164E-02  0.1320468E+00
        -11   -1    0    0    0    0  0.00000000000E+00  0.00000000000E+00  0.45593999997E+02  0.45594000000E+02  0.51100000000E-03 0.  1.
         11   -1    0    0    0    0 -0.00000000000E+00 -0.00000000000E+00 -0.45593999997E+02  0.45594000000E+02  0.51100000000E-03 0. -1.
    9900012    2    1    2    0    0 -0.22421414646E+02  0.92940380869E+01 -0.37947519709E+02  0.46142320620E+02  0.10000026071E+02 0.  0.
        -12    1    1    2    0    0  0.22421414646E+02 -0.92940380869E+01  0.37947519709E+02  0.45045679380E+02  0.00000000000E+00 0.  1.
         11    1    3    3    0    0 -0.18665062150E+02  0.74413774562E+01 -0.35194448555E+02  0.40526631403E+02  0.51100000000E-03 0. -1.
        -11    1    3    3    0    0  0.15445368305E+00 -0.15274795299E+00 -0.75899345210E+00  0.78946766799E+00  0.51100000000E-03 0.  1.
         12    1    3    3    0    0 -0.39108061794E+01  0.20054085837E+01 -0.19940777023E+01  0.48262215493E+01  0.00000000000E+00 0. -1.
</event>
<event>
 7    1  0.1486782E-008  0.4614232E+02  0.7816164E-02  0.1320468E+00
        -11   -1    0    0    0    0  0.00000000000E+00  0.00000000000E+00  0.45593999997E+02  0.45594000000E+02  0.51100000000E-03 0.  1.
         11   -1    0    0    0    0 -0.00000000000E+00 -0.00000000000E+00 -0.45593999997E+02  0.45594000000E+02  0.51100000000E-03 0. -1.
    9900012    2    1    2    0    0 -0.23151920449E+02  0.35082889889E+02 -0.16195459105E+02  0.46142317864E+02  0.10000000940E+02 0.  0.
        -12    1    1    2    0    0  0.23151920449E+02 -0.35082889889E+02  0.16195459105E+02  0.45045682136E+02  0.00000000000E+00 0.  1.
         11    1    3    3    0    0 -0.12721913827E+02  0.20921063709E+02 -0.69416230938E+01  0.25450424939E+02  0.51100000000E-03 0. -1.
        -11    1    3    3    0    0 -0.74011590440E+01  0.62120167855E+01 -0.68733017723E+01  0.11857849099E+02  0.51100000000E-03 0.  1.
        -12    1    3    3    0    0 -0.30288475782E+01  0.79498093953E+01 -0.23805342386E+01  0.88340438269E+01  0.00000000000E+00 0.  1.
</event>
<event>
 7    1  0.1486782E-008  0.4614232E+02  0.7816164E-02  0.1320468E+00
        -11   -1    0    0    0    0  0.00000000000E+00  0.00000000000E+00  0.45593999997E+02  0.45594000000E+02  0.51100000000E-03 0. -1.
         11   -1    0    0    0    0 -0.00000000000E+00 -0.00000000000E+00 -0.45593999997E+02  0.45594000000E+02  0.51100000000E-03 0.  1.
    9900012    2    1    2    0    0 -0.10205708775E+02  0.39583988752E+02  0.18922602683E+02  0.46142317083E+02  0.99999938197E+01 0.  0.
        -12    1    1    2    0    0  0.10205708775E+02 -0.39583988752E+02 -0.18922602683E+02  0.45045682917E+02  0.00000000000E+00 0.  1.
         11    1    3    3    0    0 -0.45982373457E+01  0.17745608713E+02  0.70386221951E+01  0.19636512367E+02  0.51100000000E-03 0. -1.
        -11    1    3    3    0    0 -0.18133498526E+01  0.12727223222E+02  0.10378183243E+02  0.16522019741E+02  0.51100000000E-03 0.  1.
        -12    1    3    3    0    0 -0.37941215763E+01  0.91111568176E+01  0.15057972443E+01  0.99837849752E+01  0.00000000000E+00 0.  1.
</event>
<event>
 7    1  0.1486782E-008  0.4614233E+02  0.7816164E-02  0.1320468E+00
        -11   -1    0    0    0    0  0.00000000000E+00  0.00000000000E+00  0.45593999997E+02  0.45594000000E+02  0.51100000000E-03 0. -1.
         11   -1    0    0    0    0 -0.00000000000E+00 -0.00000000000E+00 -0.45593999997E+02  0.45594000000E+02  0.51100000000E-03 0.  1.
    9900012    2    1    2    0    0  0.19378345400E+02 -0.11103946174E+02  0.39118976923E+02  0.46142331545E+02  0.10000125694E+02 0.  0.
        -12    1    1    2    0    0 -0.19378345400E+02  0.11103946174E+02 -0.39118976923E+02  0.45045668455E+02  0.00000000000E+00 0.  1.
         11    1    3    3    0    0  0.16752200669E+02 -0.73022444690E+01  0.36324210403E+02  0.40662110904E+02  0.51100000000E-03 0. -1.
        -11    1    3    3    0    0  0.14890908949E+01 -0.14960929430E+01  0.15813645181E+01  0.26374987749E+01  0.51100000000E-03 0.  1.
         12    1    3    3    0    0  0.11370538357E+01 -0.23056087622E+01  0.12134020014E+01  0.28427218659E+01  0.00000000000E+00 0. -1.
</event>
<event>
 7    1  0.1486782E-008  0.4614232E+02  0.7816164E-02  0.1320468E+00
        -11   -1    0    0    0    0  0.00000000000E+00  0.00000000000E+00  0.45593999997E+02  0.45594000000E+02  0.51100000000E-03 0. -1.
         11   -1    0    0    0    0 -0.00000000000E+00 -0.00000000000E+00 -0.45593999997E+02  0.45594000000E+02  0.51100000000E-03 0.  1.
    9900012    2    1    2    0    0  0.30390304580E+02  0.93925144178E+01  0.31895509811E+02  0.46142317791E+02  0.10000000275E+02 0.  0.
        -12    1    1    2    0    0 -0.30390304580E+02 -0.93925144178E+01 -0.31895509811E+02  0.45045682209E+02  0.00000000000E+00 0.  1.
         11    1    3    3    0    0  0.21291224144E+02  0.81545151598E+01  0.27162586371E+02  0.35462916429E+02  0.51100000000E-03 0. -1.
        -11    1    3    3    0    0  0.25972076585E+01 -0.74777916968E+00  0.76973519071E+00  0.28101875085E+01  0.51100000000E-03 0.  1.
         12    1    3    3    0    0  0.65018727769E+01  0.19857784277E+01  0.39631882499E+01  0.78692138536E+01  0.00000000000E+00 0. -1.
</event>
<event>
 7    1  0.1486782E-008  0.4614232E+02  0.7816164E-02  0.1320468E+00
        -11   -1    0    0    0    0  0.00000000000E+00  0.00000000000E+00  0.45593999997E+02  0.45594000000E+02  0.51100000000E-03 0. -1.
         11   -1    0    0    0    0 -0.00000000000E+00 -0.00000000000E+00 -0.45593999997E+02  0.45594000000E+02  0.51100000000E-03 0.  1.
    9900012    2    1    2    0    0 -0.30683835737E+02 -0.17759826093E+02  0.27788565422E+02  0.46142316893E+02  0.99999920819E+01 0.  0.
        -12    1    1    2    0    0  0.30683835737E+02  0.17759826093E+02 -0.27788565422E+02  0.45045683107E+02  0.00000000000E+00 0.  1.
         11    1    3    3    0    0 -0.10281657016E+01 -0.30400014785E+01  0.12226167635E+01  0.34341703089E+01  0.51100000000E-03 0. -1.
        -11    1    3    3    0    0 -0.15168063183E+02 -0.49447131865E+01  0.12172284800E+02  0.20067008913E+02  0.51100000000E-03 0.  1.
         12    1    3    3    0    0 -0.14487606852E+02 -0.97751114278E+01  0.14393663859E+02  0.22641137670E+02  0.00000000000E+00 0. -1.
</event>
<event>
 7    1  0.1486782E-008  0.4614232E+02  0.7816164E-02  0.1320468E+00
        -11   -1    0    0    0    0  0.00000000000E+00  0.00000000000E+00  0.45593999997E+02  0.45594000000E+02  0.51100000000E-03 0.  1.
         11   -1    0    0    0    0 -0.00000000000E+00 -0.00000000000E+00 -0.45593999997E+02  0.45594000000E+02  0.51100000000E-03 0. -1.
    9900012    2    1    2    0    0 -0.23737488062E+02  0.31044905496E+02 -0.22402210008E+02  0.46142317521E+02  0.99999978117E+01 0.  0.
        -12    1    1    2    0    0  0.23737488062E+02 -0.31044905496E+02  0.22402210008E+02  0.45045682479E+02  0.00000000000E+00 0.  1.
         11    1    3    3    0    0 -0.54933541562E+01  0.13313288720E+02 -0.78495335171E+01  0.16402309994E+02  0.51100000000E-03 0. -1.
        -11    1    3    3    0    0 -0.48826533525E+01  0.66508127492E+01 -0.25489416923E+01  0.86354338627E+01  0.51100000000E-03 0.  1.
         12    1    3    3    0    0 -0.13361480554E+02  0.11080804026E+02 -0.12003734799E+02  0.21104573665E+02  0.00000000000E+00 0. -1.
</event>
<event>
 7    1  0.1486782E-008  0.4614233E+02  0.7816164E-02  0.1320468E+00
        -11   -1    0    0    0    0  0.00000000000E+00  0.00000000000E+00  0.45593999997E+02  0.45594000000E+02  0.51100000000E-03 0.  1.
         11   -1    0    0    0    0 -0.00000000000E+00 -0.00000000000E+00 -0.45593999997E+02  0.45594000000E+02  0.51100000000E-03 0. -1.
    9900012    2    1    2    0    0  0.25591697242E+01 -0.25438368215E+02 -0.37087094760E+02  0.46142328456E+02  0.10000097524E+02 0.  0.
        -12    1    1    2    0    0 -0.25591697242E+01  0.25438368215E+02  0.37087094760E+02  0.45045671544E+02  0.00000000000E+00 0.  1.
         11    1    3    3    0    0 -0.22640802802E+01 -0.10812064414E+02 -0.10280009442E+02  0.15089910231E+02  0.51100000000E-03 0.  1.
        -11    1    3    3    0    0  0.47081354617E+01 -0.13099391603E+02 -0.22254880055E+02  0.26249576881E+02  0.51100000000E-03 0. -1.
         12    1    3    3    0    0  0.11511454266E+00 -0.15269121983E+01 -0.45522052630E+01  0.48028413440E+01  0.00000000000E+00 0. -1.
</event>
<event>
 7    1  0.1486782E-008  0.4614232E+02  0.7816164E-02  0.1320468E+00
        -11   -1    0    0    0    0  0.00000000000E+00  0.00000000000E+00  0.45593999997E+02  0.45594000000E+02  0.51100000000E-03 0. -1.
         11   -1    0    0    0    0 -0.00000000000E+00 -0.00000000000E+00 -0.45593999997E+02  0.45594000000E+02  0.51100000000E-03 0.  1.
    9900012    2    1    2    0    0 -0.38816265230E+02  0.21150199498E+02  0.86648772727E+01  0.46142317817E+02  0.10000000507E+02 0.  0.
        -12    1    1    2    0    0  0.38816265230E+02 -0.21150199498E+02 -0.86648772727E+01  0.45045682183E+02  0.00000000000E+00 0.  1.
         11    1    3    3    0    0 -0.85091704499E+01  0.82682518396E+01 -0.49051603176E+00  0.11874787428E+02  0.51100000000E-03 0. -1.
        -11    1    3    3    0    0 -0.27012504741E+02  0.12226821256E+02  0.84998843429E+01  0.30845074234E+02  0.51100000000E-03 0.  1.
        -12    1    3    3    0    0 -0.32945900394E+01  0.65512640224E+00  0.65550896163E+00  0.34224561545E+01  0.00000000000E+00 0.  1.
</event>
<event>
 7    1  0.1486782E-008  0.4614231E+02  0.7816164E-02  0.1320468E+00
        -11   -1    0    0    0    0  0.00000000000E+00  0.00000000000E+00  0.45593999997E+02  0.45594000000E+02  0.51100000000E-03 0.  1.
         11   -1    0    0    0    0 -0.00000000000E+00 -0.00000000000E+00 -0.45593999997E+02  0.45594000000E+02  0.51100000000E-03 0. -1.
    9900012    2    1    2    0    0  0.28454765126E+02  0.18109026299E+02 -0.29858056003E+02  0.46142312080E+02  0.99999481950E+01 0.  0.
        -12    1    1    2    0    0 -0.28454765126E+02 -0.18109026299E+02  0.29858056003E+02  0.45045687920E+02  0.00000000000E+00 0.  1.
         11    1    3    3    0    0  0.16565632978E+02  0.87014317615E+01 -0.17862340659E+02  0.25868867868E+02  0.51100000000E-03 0. -1.
        -11    1    3    3    0    0  0.13352827369E+01  0.54388312443E+00  0.63825096956E+00  0.15767540714E+01  0.51100000000E-03 0.  1.
        -12    1    3    3    0    0  0.10553849410E+02  0.88637114135E+01 -0.12633966314E+02  0.18696690141E+02  0.00000000000E+00 0.  1.
</event>
<event>
 7    1  0.1486782E-008  0.4614232E+02  0.7816164E-02  0.1320468E+00
        -11   -1    0    0    0    0  0.00000000000E+00  0.00000000000E+00  0.45593999997E+02  0.45594000000E+02  0.51100000000E-03 0.  1.
         11   -1    0    0    0    0 -0.00000000000E+00 -0.00000000000E+00 -0.45593999997E+02  0.45594000000E+02  0.51100000000E-03 0. -1.
    9900012    2    1    2    0    0  0.55388225730E+01 -0.20323703297E+02 -0.39816856218E+02  0.46142317518E+02  0.99999977797E+01 0.  0.
        -12    1    1    2    0    0 -0.55388225730E+01  0.20323703297E+02  0.39816856218E+02  0.45045682482E+02  0.00000000000E+00 0.  1.
         11    1    3    3    0    0  0.69953811168E+01 -0.10393581897E+02 -0.26938440194E+02  0.29709282421E+02  0.51100000000E-03 0. -1.
        -11    1    3    3    0    0 -0.15566308350E+01 -0.81829562093E+01 -0.11528422979E+02  0.14222812961E+02  0.51100000000E-03 0.  1.
         12    1    3    3    0    0  0.10007229125E+00 -0.17471651906E+01 -0.13499930453E+01  0.22102221357E+01  0.00000000000E+00 0. -1.
</event>
<event>
 7    1  0.1486782E-008  0.4614232E+02  0.7816164E-02  0.1320468E+00
        -11   -1    0    0    0    0  0.00000000000E+00  0.00000000000E+00  0.45593999997E+02  0.45594000000E+02  0.51100000000E-03 0.  1.
         11   -1    0    0    0    0 -0.00000000000E+00 -0.00000000000E+00 -0.45593999997E+02  0.45594000000E+02  0.51100000000E-03 0. -1.
    9900012    2    1    2    0    0 -0.40923293332E+02 -0.18205060610E+02  0.47930538375E+01  0.46142317254E+02  0.99999953767E+01 0.  0.
        -12    1    1    2    0    0  0.40923293332E+02  0.18205060610E+02 -0.47930538375E+01  0.45045682746E+02  0.00000000000E+00 0.  1.
         11    1    3    3    0    0 -0.20907520410E+02 -0.80517409447E+01  0.43514900422E+01  0.22823023634E+02  0.51100000000E-03 0. -1.
        -11    1    3    3    0    0 -0.28121531266E+01 -0.41528487359E+01  0.88980109702E+00  0.50937318426E+01  0.51100000000E-03 0.  1.
         12    1    3    3    0    0 -0.17203619795E+02 -0.60004709299E+01 -0.44823730172E+00  0.18225561778E+02  0.00000000000E+00 0. -1.
</event>
<event>
 7    1  0.1486782E-008  0.4614232E+02  0.7816164E-02  0.1320468E+00
        -11   -1    0    0    0    0  0.00000000000E+00  0.00000000000E+00  0.45593999997E+02  0.45594000000E+02  0.51100000000E-03 0. -1.
         11   -1    0    0    0    0 -0.00000000000E+00 -0.00000000000E+00 -0.45593999997E+02  0.45594000000E+02  0.51100000000E-03 0.  1.
    9900012    2    1    2    0    0 -0.43898152736E+02  0.67457195793E+01  0.75207034769E+01  0.46142317332E+02  0.99999960852E+01 0.  0.
        -12    1    1    2    0    0  0.43898152736E+02 -0.67457195793E+01 -0.75207034769E+01  0.45045682668E+02  0.00000000000E+00 0.  1.
         11    1    3    3    0    0 -0.36500700918E+02  0.87826081292E+01  0.53903882197E+01  0.37927452571E+02  0.51100000000E-03 0. -1.
        -11    1    3    3    0    0 -0.40270279526E+01 -0.57068283821E+00  0.22163501620E+00  0.40732978499E+01  0.51100000000E-03 0.  1.
         12    1    3    3    0    0 -0.33704238649E+01 -0.14662057116E+01  0.19086802410E+01  0.41415669112E+01  0.00000000000E+00 0. -1.
</event>
<event>
 7    1  0.1486782E-008  0.4614232E+02  0.7816164E-02  0.1320468E+00
        -11   -1    0    0    0    0  0.00000000000E+00  0.00000000000E+00  0.45593999997E+02  0.45594000000E+02  0.51100000000E-03 0.  1.
         11   -1    0    0    0    0 -0.00000000000E+00 -0.00000000000E+00 -0.45593999997E+02  0.45594000000E+02  0.51100000000E-03 0. -1.
    9900012    2    1    2    0    0 -0.14960606759E+02 -0.22352647650E+02 -0.36133819213E+02  0.46142317605E+02  0.99999985740E+01 0.  0.
        -12    1    1    2    0    0  0.14960606759E+02  0.22352647650E+02  0.36133819213E+02  0.45045682395E+02  0.00000000000E+00 0.  1.
         11    1    3    3    0    0 -0.46339209979E+01 -0.11978713741E+02 -0.16377591743E+02  0.20813176554E+02  0.51100000000E-03 0. -1.
        -11    1    3    3    0    0 -0.61012674576E+01 -0.49561005644E+01 -0.15117817014E+02  0.17039271960E+02  0.51100000000E-03 0.  1.
        -12    1    3    3    0    0 -0.42254183039E+01 -0.54178333444E+01 -0.46384104556E+01  0.82898690910E+01  0.00000000000E+00 0.  1.
</event>
<event>
 7    1  0.1486782E-008  0.4614232E+02  0.7816164E-02  0.1320468E+00
        -11   -1    0    0    0    0  0.00000000000E+00  0.00000000000E+00  0.45593999997E+02  0.45594000000E+02  0.51100000000E-03 0.  1.
         11   -1    0    0    0    0 -0.00000000000E+00 -0.00000000000E+00 -0.45593999997E+02  0.45594000000E+02  0.51100000000E-03 0. -1.
    9900012    2    1    2    0    0  0.35854334742E+02  0.20058550985E+02 -0.18472538912E+02  0.46142317840E+02  0.10000000719E+02 0.  0.
        -12    1    1    2    0    0 -0.35854334742E+02 -0.20058550985E+02  0.18472538912E+02  0.45045682160E+02  0.00000000000E+00 0.  1.
         11    1    3    3    0    0  0.10674120338E+02  0.73657790871E+01 -0.42025905246E+01  0.13632802864E+02  0.51100000000E-03 0. -1.
        -11    1    3    3    0    0  0.56164633011E+01  0.23227459925E+01 -0.68488449927E+01  0.91567727368E+01  0.51100000000E-03 0.  1.
        -12    1    3    3    0    0  0.19563751103E+02  0.10370025905E+02 -0.74211033944E+01  0.23352742239E+02  0.00000000000E+00 0.  1.
</event>
<event>
 7    1  0.1486782E-008  0.4614232E+02  0.7816164E-02  0.1320468E+00
        -11   -1    0    0    0    0  0.00000000000E+00  0.00000000000E+00  0.45593999997E+02  0.45594000000E+02  0.51100000000E-03 0.  1.
         11   -1    0    0    0    0 -0.00000000000E+00 -0.00000000000E+00 -0.45593999997E+02  0.45594000000E+02  0.51100000000E-03 0. -1.
    9900012    2    1    2    0    0 -0.56802717216E+01 -0.22753722948E+02 -0.38459278495E+02  0.46142317663E+02  0.99999991036E+01 0.  0.
        -12    1    1    2    0    0  0.56802717216E+01  0.22753722948E+02  0.38459278495E+02  0.45045682337E+02  0.00000000000E+00 0.  1.
         11    1    3    3    0    0 -0.32137797554E+01 -0.82667976222E+01 -0.21684690921E+02  0.23428490004E+02  0.51100000000E-03 0. -1.
        -11    1    3    3    0    0 -0.35366297192E+01 -0.81012857027E+01 -0.96381372292E+01  0.13077930621E+02  0.51100000000E-03 0.  1.
         12    1    3    3    0    0  0.10701377531E+01 -0.63856396235E+01 -0.71364503449E+01  0.96358970385E+01  0.00000000000E+00 0. -1.
</event>
<event>
 7    1  0.1486782E-008  0.4614232E+02  0.7816164E-02  0.1320468E+00
        -11   -1    0    0    0    0  0.00000000000E+00  0.00000000000E+00  0.45593999997E+02  0.45594000000E+02  0.51100000000E-03 0.  1.
         11   -1    0    0    0    0 -0.00000000000E+00 -0.00000000000E+00 -0.45593999997E+02  0.45594000000E+02  0.51100000000E-03 0. -1.
    9900012    2    1    2    0    0 -0.40397851751E+02  0.55191524718E+01 -0.19148525921E+02  0.46142317465E+02  0.99999973002E+01 0.  0.
        -12    1    1    2    0    0  0.40397851751E+02 -0.55191524718E+01  0.19148525921E+02  0.45045682535E+02  0.00000000000E+00 0.  1.
         11    1    3    3    0    0 -0.26737035115E+02  0.43798134142E+01 -0.13468272436E+02  0.30256341070E+02  0.51100000000E-03 0. -1.
        -11    1    3    3    0    0 -0.10577479099E+02  0.26352176480E+01 -0.24419366704E+01  0.11170966435E+02  0.51100000000E-03 0.  1.
         12    1    3    3    0    0 -0.30833375369E+01 -0.14958785904E+01 -0.32383168148E+01  0.47150099593E+01  0.00000000000E+00 0. -1.
</event>
<event>
 7    1  0.1486782E-008  0.4614232E+02  0.7816164E-02  0.1320468E+00
        -11   -1    0    0    0    0  0.00000000000E+00  0.00000000000E+00  0.45593999997E+02  0.45594000000E+02  0.51100000000E-03 0. -1.
         11   -1    0    0    0    0 -0.00000000000E+00 -0.00000000000E+00 -0.45593999997E+02  0.45594000000E+02  0.51100000000E-03 0.  1.
    9900012    2    1    2    0    0  0.34032346542E+02 -0.11093010257E+02  0.27346991030E+02  0.46142318674E+02  0.10000008327E+02 0.  0.
        -12    1    1    2    0    0 -0.34032346542E+02  0.11093010257E+02 -0.27346991030E+02  0.45045681326E+02  0.00000000000E+00 0.  1.
         11    1    3    3    0    0  0.13284332791E+02 -0.55012527922E+01  0.11762508945E+02  0.18576703070E+02  0.51100000000E-03 0. -1.
        -11    1    3    3    0    0  0.30841373634E+01 -0.28054773326E+01  0.59142820926E+01  0.72361135474E+01  0.51100000000E-03 0.  1.
         12    1    3    3    0    0  0.17663876387E+02 -0.27862801325E+01  0.96701999920E+01  0.20329502057E+02  0.00000000000E+00 0. -1.
</event>
<event>
 7    1  0.1486782E-008  0.4614231E+02  0.7816164E-02  0.1320468E+00
        -11   -1    0    0    0    0  0.00000000000E+00  0.00000000000E+00  0.45593999997E+02  0.45594000000E+02  0.51100000000E-03 0.  1.
         11   -1    0    0    0    0 -0.00000000000E+00 -0.00000000000E+00 -0.45593999997E+02  0.45594000000E+02  0.51100000000E-03 0. -1.
    9900012    2    1    2    0    0 -0.11605482996E+01 -0.44258310559E+02 -0.83047577505E+01  0.46142312891E+02  0.99999555866E+01 0.  0.
        -12    1    1    2    0    0  0.11605482996E+01  0.44258310559E+02  0.83047577505E+01  0.45045687109E+02  0.00000000000E+00 0.  1.
         11    1    3    3    0    0 -0.32199576667E+01 -0.17475139260E+02 -0.54316099202E+01  0.18580931250E+02  0.51100000000E-03 0. -1.
        -11    1    3    3    0    0  0.28643862693E+01 -0.13951555107E+02  0.56164743387E+00  0.14253632754E+02  0.51100000000E-03 0.  1.
        -12    1    3    3    0    0 -0.80497690214E+00 -0.12831616192E+02 -0.34347952642E+01  0.13307748886E+02  0.00000000000E+00 0.  1.
</event>
<event>
 7    1  0.1486782E-008  0.4614232E+02  0.7816164E-02  0.1320468E+00
        -11   -1    0    0    0    0  0.00000000000E+00  0.00000000000E+00  0.45593999997E+02  0.45594000000E+02  0.51100000000E-03 0.  1.
         11   -1    0    0    0    0 -0.00000000000E+00 -0.00000000000E+00 -0.45593999997E+02  0.45594000000E+02  0.51100000000E-03 0. -1.
    9900012    2    1    2    0    0  0.30179023904E+02  0.10219438480E+02 -0.31841845453E+02  0.46142317316E+02  0.99999959428E+01 0.  0.
        -12    1    1    2    0    0 -0.30179023904E+02 -0.10219438480E+02  0.31841845453E+02  0.45045682684E+02  0.00000000000E+00 0.  1.
         11    1    3    3    0    0  0.80362233055E+01  0.35848489971E+01 -0.11097847437E+02  0.14163129786E+02  0.51100000000E-03 0. -1.
        -11    1    3    3    0    0  0.20999067724E+02  0.80390464234E+01 -0.18672802980E+02  0.29227738265E+02  0.51100000000E-03 0.  1.
        -12    1    3    3    0    0  0.11437328741E+01 -0.14044569402E+01 -0.20711950353E+01  0.27514492651E+01  0.00000000000E+00 0.  1.
</event>
<event>
 7    1  0.1486782E-008  0.4614232E+02  0.7816164E-02  0.1320468E+00
        -11   -1    0    0    0    0  0.00000000000E+00  0.00000000000E+00  0.45593999997E+02  0.45594000000E+02  0.51100000000E-03 0.  1.
         11   -1    0    0    0    0 -0.00000000000E+00 -0.00000000000E+00 -0.45593999997E+02  0.45594000000E+02  0.51100000000E-03 0. -1.
    9900012    2    1    2    0    0 -0.36107124972E+02 -0.17873320838E+02 -0.20147791229E+02  0.46142316933E+02  0.99999924526E+01 0.  0.
        -12    1    1    2    0    0  0.36107124972E+02  0.17873320838E+02  0.20147791229E+02  0.45045683067E+02  0.00000000000E+00 0.  1.
         11    1    3    3    0    0 -0.12670161113E+02 -0.54685425159E+01 -0.55531355340E+01  0.14875323674E+02  0.51100000000E-03 0. -1.
        -11    1    3    3    0    0 -0.20494086316E+02 -0.10516932885E+02 -0.15361742465E+02  0.27687480620E+02  0.51100000000E-03 0.  1.
        -12    1    3    3    0    0 -0.29428775425E+01 -0.18878454376E+01  0.76708677009E+00  0.35795126399E+01  0.00000000000E+00 0.  1.
</event>
<event>
 7    1  0.1486782E-008  0.4614232E+02  0.7816164E-02  0.1320468E+00
        -11   -1    0    0    0    0  0.00000000000E+00  0.00000000000E+00  0.45593999997E+02  0.45594000000E+02  0.51100000000E-03 0.  1.
         11   -1    0    0    0    0 -0.00000000000E+00 -0.00000000000E+00 -0.45593999997E+02  0.45594000000E+02  0.51100000000E-03 0. -1.
    9900012    2    1    2    0    0 -0.20649998735E+02  0.32392542713E+02  0.23524758080E+02  0.46142317478E+02  0.99999974150E+01 0.  0.
        -12    1    1    2    0    0  0.20649998735E+02 -0.32392542713E+02 -0.23524758080E+02  0.45045682522E+02  0.00000000000E+00 0.  1.
         11    1    3    3    0    0  0.35178594184E+00  0.27536043660E+01  0.20366204264E+00  0.27834454983E+01  0.51100000000E-03 0.  1.
        -11    1    3    3    0    0 -0.17526821548E+02  0.26376995174E+02  0.21391958198E+02  0.38217158761E+02  0.51100000000E-03 0. -1.
         12    1    3    3    0    0 -0.34749631289E+01  0.32619431735E+01  0.19291378392E+01  0.51417132180E+01  0.00000000000E+00 0. -1.
</event>
<event>
 7    1  0.1486782E-008  0.4614232E+02  0.7816164E-02  0.1320468E+00
        -11   -1    0    0    0    0  0.00000000000E+00  0.00000000000E+00  0.45593999997E+02  0.45594000000E+02  0.51100000000E-03 0.  1.
         11   -1    0    0    0    0 -0.00000000000E+00 -0.00000000000E+00 -0.45593999997E+02  0.45594000000E+02  0.51100000000E-03 0. -1.
    9900012    2    1    2    0    0  0.29779755534E+02 -0.31033326845E+02 -0.13387026521E+02  0.46142315481E+02  0.99999792112E+01 0.  0.
        -12    1    1    2    0    0 -0.29779755534E+02  0.31033326845E+02  0.13387026521E+02  0.45045684519E+02  0.00000000000E+00 0.  1.
         11    1    3    3    0    0  0.62040793046E+01 -0.92552940321E+01 -0.61291344999E+01  0.12716813973E+02  0.51100000000E-03 0. -1.
        -11    1    3    3    0    0  0.21074155292E+02 -0.16432446453E+02 -0.57829533435E+01  0.27342053093E+02  0.51100000000E-03 0.  1.
        -12    1    3    3    0    0  0.25015209371E+01 -0.53455863593E+01 -0.14749386772E+01  0.60834484156E+01  0.00000000000E+00 0.  1.
</event>
<event>
 7    1  0.1486782E-008  0.4614232E+02  0.7816164E-02  0.1320468E+00
        -11   -1    0    0    0    0  0.00000000000E+00  0.00000000000E+00  0.45593999997E+02  0.45594000000E+02  0.51100000000E-03 0. -1.
         11   -1    0    0    0    0 -0.00000000000E+00 -0.00000000000E+00 -0.45593999997E+02  0.45594000000E+02  0.51100000000E-03 0.  1.
    9900012    2    1    2    0    0  0.33546071389E+02  0.29256335879E+02  0.69167445592E+01  0.46142318187E+02  0.10000003881E+02 0.  0.
        -12    1    1    2    0    0 -0.33546071389E+02 -0.29256335879E+02 -0.69167445592E+01  0.45045681813E+02  0.00000000000E+00 0.  1.
         11    1    3    3    0    0  0.18816565585E+02  0.11301552107E+02  0.13448871608E+01  0.21990837687E+02  0.51100000000E-03 0. -1.
        -11    1    3    3    0    0  0.12140585312E+02  0.13453777155E+02  0.30412063911E+01  0.18375169878E+02  0.51100000000E-03 0.  1.
         12    1    3    3    0    0  0.25889204924E+01  0.45010066167E+01  0.25306510073E+01  0.57763106219E+01  0.00000000000E+00 0. -1.
</event>
<event>
 7    1  0.1486782E-008  0.4614232E+02  0.7816164E-02  0.1320468E+00
        -11   -1    0    0    0    0  0.00000000000E+00  0.00000000000E+00  0.45593999997E+02  0.45594000000E+02  0.51100000000E-03 0.  1.
         11   -1    0    0    0    0 -0.00000000000E+00 -0.00000000000E+00 -0.45593999997E+02  0.45594000000E+02  0.51100000000E-03 0. -1.
    9900012    2    1    2    0    0 -0.24061966382E+02 -0.31402572109E+01 -0.37950941921E+02  0.46142318362E+02  0.10000005483E+02 0.  0.
        -12    1    1    2    0    0  0.24061966382E+02  0.31402572109E+01  0.37950941921E+02  0.45045681638E+02  0.00000000000E+00 0.  1.
         11    1    3    3    0    0 -0.16437420506E+02 -0.12917263822E+00 -0.29221768251E+02  0.33527857350E+02  0.51100000000E-03 0. -1.
        -11    1    3    3    0    0 -0.55521565704E+01 -0.20378616376E+01 -0.34183453608E+01  0.68311351841E+01  0.51100000000E-03 0.  1.
         12    1    3    3    0    0 -0.20723893054E+01 -0.97322293504E+00 -0.53108283086E+01  0.57833258284E+01  0.00000000000E+00 0. -1.
</event>
<event>
 7    1  0.1486782E-008  0.4614232E+02  0.7816164E-02  0.1320468E+00
        -11   -1    0    0    0    0  0.00000000000E+00  0.00000000000E+00  0.45593999997E+02  0.45594000000E+02  0.51100000000E-03 0.  1.
         11   -1    0    0    0    0 -0.00000000000E+00 -0.00000000000E+00 -0.45593999997E+02  0.45594000000E+02  0.51100000000E-03 0. -1.
    9900012    2    1    2    0    0 -0.32608077067E+02 -0.17039287669E+01 -0.31031007118E+02  0.46142318009E+02  0.10000002260E+02 0.  0.
        -12    1    1    2    0    0  0.32608077067E+02  0.17039287669E+01  0.31031007118E+02  0.45045681991E+02  0.00000000000E+00 0.  1.
         11    1    3    3    0    0 -0.11731392925E+02 -0.34364338177E+01 -0.99558817667E+01  0.15765603044E+02  0.51100000000E-03 0. -1.
        -11    1    3    3    0    0 -0.33020030133E+01  0.22978111357E+01 -0.59526577766E+01  0.71845177139E+01  0.51100000000E-03 0.  1.
         12    1    3    3    0    0 -0.17574681129E+02 -0.56530608494E+00 -0.15122467575E+02  0.23192197251E+02  0.00000000000E+00 0. -1.
</event>
<event>
 7    1  0.1486782E-008  0.4614232E+02  0.7816164E-02  0.1320468E+00
        -11   -1    0    0    0    0  0.00000000000E+00  0.00000000000E+00  0.45593999997E+02  0.45594000000E+02  0.51100000000E-03 0.  1.
         11   -1    0    0    0    0 -0.00000000000E+00 -0.00000000000E+00 -0.45593999997E+02  0.45594000000E+02  0.51100000000E-03 0. -1.
    9900012    2    1    2    0    0 -0.62634756945E+01  0.38478739994E+02 -0.22566989037E+02  0.46142317039E+02  0.99999934123E+01 0.  0.
        -12    1    1    2    0    0  0.62634756945E+01 -0.38478739994E+02  0.22566989037E+02  0.45045682961E+02  0.00000000000E+00 0.  1.
         11    1    3    3    0    0  0.11683523978E+01  0.85334589952E+01 -0.47637851975E+01  0.98426937074E+01  0.51100000000E-03 0. -1.
        -11    1    3    3    0    0 -0.25193744046E+01  0.17962184454E+02 -0.13645272643E+02  0.22697594223E+02  0.51100000000E-03 0.  1.
        -12    1    3    3    0    0 -0.49124536877E+01  0.11983096545E+02 -0.41579311958E+01  0.13602029108E+02  0.00000000000E+00 0.  1.
</event>
<event>
 7    1  0.1486782E-008  0.4614232E+02  0.7816164E-02  0.1320468E+00
        -11   -1    0    0    0    0  0.00000000000E+00  0.00000000000E+00  0.45593999997E+02  0.45594000000E+02  0.51100000000E-03 0.  1.
         11   -1    0    0    0    0 -0.00000000000E+00 -0.00000000000E+00 -0.45593999997E+02  0.45594000000E+02  0.51100000000E-03 0. -1.
    9900012    2    1    2    0    0  0.15267011477E+02  0.83834271814E+01 -0.41542147411E+02  0.46142317607E+02  0.99999985954E+01 0.  0.
        -12    1    1    2    0    0 -0.15267011477E+02 -0.83834271814E+01  0.41542147411E+02  0.45045682393E+02  0.00000000000E+00 0.  1.
         11    1    3    3    0    0  0.14118548499E+02  0.64823666831E+01 -0.28583003802E+02  0.32532177857E+02  0.51100000000E-03 0. -1.
        -11    1    3    3    0    0  0.45507972116E+00  0.40352719404E+00 -0.11129876631E+02  0.11146483115E+02  0.51100000000E-03 0.  1.
        -12    1    3    3    0    0  0.69338325675E+00  0.14975333043E+01 -0.18292669778E+01  0.24636566348E+01  0.00000000000E+00 0.  1.
</event>
<event>
 7    1  0.1486782E-008  0.4614232E+02  0.7816164E-02  0.1320468E+00
        -11   -1    0    0    0    0  0.00000000000E+00  0.00000000000E+00  0.45593999997E+02  0.45594000000E+02  0.51100000000E-03 0.  1.
         11   -1    0    0    0    0 -0.00000000000E+00 -0.00000000000E+00 -0.45593999997E+02  0.45594000000E+02  0.51100000000E-03 0. -1.
    9900012    2    1    2    0    0 -0.10406526416E+02 -0.58075579022E+01 -0.43440649787E+02  0.46142316803E+02  0.99999912610E+01 0.  0.
        -12    1    1    2    0    0  0.10406526416E+02  0.58075579022E+01  0.43440649787E+02  0.45045683197E+02  0.00000000000E+00 0.  1.
         11    1    3    3    0    0 -0.34022266728E+01  0.61817286484E-01 -0.22361370016E+02  0.22618793888E+02  0.51100000000E-03 0.  1.
        -11    1    3    3    0    0 -0.51031767319E+01 -0.33040574124E+01 -0.18323750871E+02  0.19305933139E+02  0.51100000000E-03 0. -1.
        -12    1    3    3    0    0 -0.19011230109E+01 -0.25653177763E+01 -0.27555289005E+01  0.42175897758E+01  0.00000000000E+00 0.  1.
</event>
<event>
 7    1  0.1791684E-008  0.4614232E+02  0.7816164E-02  0.1320468E+00
        -11   -1    0    0    0    0  0.00000000000E+00  0.00000000000E+00  0.45593999997E+02  0.45594000000E+02  0.51100000000E-03 0. -1.
         11   -1    0    0    0    0 -0.00000000000E+00 -0.00000000000E+00 -0.45593999997E+02  0.45594000000E+02  0.51100000000E-03 0.  1.
    9900012    2    1    2    0    0 -0.13634344794E+02 -0.26886291792E+02  0.33471563336E+02  0.46142316562E+02  0.99999890651E+01 0.  0.
        -12    1    1    2    0    0  0.13634344794E+02  0.26886291792E+02 -0.33471563336E+02  0.45045683438E+02  0.00000000000E+00 0.  1.
         11    1    3    3    0    0 -0.11054049716E+02 -0.15060367678E+02  0.24440047072E+02  0.30762356718E+02  0.51100000000E-03 0. -1.
        -11    1    3    3    0    0 -0.14942688938E+01 -0.26398019959E+01  0.12081579113E+01  0.32651247915E+01  0.51100000000E-03 0.  1.
         12    1    3    3    0    0 -0.10860261844E+01 -0.91861221174E+01  0.78233583525E+01  0.12114835052E+02  0.00000000000E+00 0. -1.
</event>
<event>
 7    1  0.1486782E-008  0.4614232E+02  0.7816164E-02  0.1320468E+00
        -11   -1    0    0    0    0  0.00000000000E+00  0.00000000000E+00  0.45593999997E+02  0.45594000000E+02  0.51100000000E-03 0.  1.
         11   -1    0    0    0    0 -0.00000000000E+00 -0.00000000000E+00 -0.45593999997E+02  0.45594000000E+02  0.51100000000E-03 0. -1.
    9900012    2    1    2    0    0  0.29412795805E+02  0.15776636289E+02 -0.30250594785E+02  0.46142319913E+02  0.10000019621E+02 0.  0.
        -12    1    1    2    0    0 -0.29412795805E+02 -0.15776636289E+02  0.30250594785E+02  0.45045680087E+02  0.00000000000E+00 0.  1.
         11    1    3    3    0    0  0.20296962616E+02  0.10264756680E+02 -0.15352367220E+02  0.27441339265E+02  0.51100000000E-03 0. -1.
        -11    1    3    3    0    0  0.47512242760E+01  0.74494666503E+00 -0.70467907895E+01  0.85314909803E+01  0.51100000000E-03 0.  1.
         12    1    3    3    0    0  0.43646089128E+01  0.47669329445E+01 -0.78514367757E+01  0.10169489668E+02  0.00000000000E+00 0. -1.
</event>
<event>
 7    1  0.1486782E-008  0.4614232E+02  0.7816164E-02  0.1320468E+00
        -11   -1    0    0    0    0  0.00000000000E+00  0.00000000000E+00  0.45593999997E+02  0.45594000000E+02  0.51100000000E-03 0.  1.
         11   -1    0    0    0    0 -0.00000000000E+00 -0.00000000000E+00 -0.45593999997E+02  0.45594000000E+02  0.51100000000E-03 0. -1.
    9900012    2    1    2    0    0  0.11680646085E+02 -0.25901788378E+01 -0.43427721447E+02  0.46142317527E+02  0.99999978631E+01 0.  0.
        -12    1    1    2    0    0 -0.11680646085E+02  0.25901788378E+01  0.43427721447E+02  0.45045682473E+02  0.00000000000E+00 0.  1.
         11    1    3    3    0    0  0.27599874077E+01 -0.36269289877E+01 -0.11170853664E+02  0.12064829722E+02  0.51100000000E-03 0. -1.
        -11    1    3    3    0    0  0.38528038079E+01  0.27239749372E+01 -0.22139454070E+02  0.22636686228E+02  0.51100000000E-03 0.  1.
         12    1    3    3    0    0  0.50678548697E+01 -0.16872247873E+01 -0.10117413714E+02  0.11440801577E+02  0.00000000000E+00 0. -1.
</event>
<event>
 7    1  0.1486782E-008  0.4614231E+02  0.7816164E-02  0.1320468E+00
        -11   -1    0    0    0    0  0.00000000000E+00  0.00000000000E+00  0.45593999997E+02  0.45594000000E+02  0.51100000000E-03 0.  1.
         11   -1    0    0    0    0 -0.00000000000E+00 -0.00000000000E+00 -0.45593999997E+02  0.45594000000E+02  0.51100000000E-03 0. -1.
    9900012    2    1    2    0    0 -0.34359145551E+02  0.28978992784E+02 -0.29633627011E+01  0.46142307373E+02  0.99999052696E+01 0.  0.
        -12    1    1    2    0    0  0.34359145551E+02 -0.28978992784E+02  0.29633627011E+01  0.45045692627E+02  0.00000000000E+00 0.  1.
         11    1    3    3    0    0 -0.63300751999E+01  0.78366420418E+01 -0.19494669536E+01  0.10260761774E+02  0.51100000000E-03 0. -1.
        -11    1    3    3    0    0  0.13974190122E+00 -0.38775027282E+00 -0.31355168414E-01  0.41335394123E+00  0.51100000000E-03 0.  1.
         12    1    3    3    0    0 -0.28168812252E+02  0.21530101015E+02 -0.98254057917E+00  0.35468191657E+02  0.00000000000E+00 0. -1.
</event>
<event>
 7    1  0.1486782E-008  0.4614232E+02  0.7816164E-02  0.1320468E+00
        -11   -1    0    0    0    0  0.00000000000E+00  0.00000000000E+00  0.45593999997E+02  0.45594000000E+02  0.51100000000E-03 0.  1.
         11   -1    0    0    0    0 -0.00000000000E+00 -0.00000000000E+00 -0.45593999997E+02  0.45594000000E+02  0.51100000000E-03 0. -1.
    9900012    2    1    2    0    0 -0.27746152117E+02 -0.29073162640E+02 -0.20347378767E+02  0.46142316901E+02  0.99999921528E+01 0.  0.
        -12    1    1    2    0    0  0.27746152117E+02  0.29073162640E+02  0.20347378767E+02  0.45045683099E+02  0.00000000000E+00 0.  1.
         11    1    3    3    0    0 -0.68410816659E+01 -0.80294679380E+01 -0.43978154997E+01  0.11428627877E+02  0.51100000000E-03 0. -1.
        -11    1    3    3    0    0 -0.72151102390E+01 -0.13192194944E+02 -0.72477984976E+01  0.16691986296E+02  0.51100000000E-03 0.  1.
        -12    1    3    3    0    0 -0.13689960212E+02 -0.78514997582E+01 -0.87017647698E+01  0.18021702727E+02  0.00000000000E+00 0.  1.
</event>
<event>
 7    1  0.1486782E-008  0.4614232E+02  0.7816164E-02  0.1320468E+00
        -11   -1    0    0    0    0  0.00000000000E+00  0.00000000000E+00  0.45593999997E+02  0.45594000000E+02  0.51100000000E-03 0. -1.
         11   -1    0    0    0    0 -0.00000000000E+00 -0.00000000000E+00 -0.45593999997E+02  0.45594000000E+02  0.51100000000E-03 0.  1.
    9900012    2    1    2    0    0  0.26638159938E+01  0.18739553985E+02  0.40875991258E+02  0.46142318070E+02  0.10000002819E+02 0.  0.
        -12    1    1    2    0    0 -0.26638159938E+01 -0.18739553985E+02 -0.40875991258E+02  0.45045681930E+02  0.00000000000E+00 0.  1.
         11    1    3    3    0    0  0.15527827302E+01  0.85200113201E+01  0.14000865883E+02  0.16462866483E+02  0.51100000000E-03 0. -1.
        -11    1    3    3    0    0  0.29241496922E+01  0.79428815355E+01  0.13072981396E+02  0.15573787637E+02  0.51100000000E-03 0.  1.
         12    1    3    3    0    0 -0.18131164286E+01  0.22766611295E+01  0.13802143978E+02  0.14105663950E+02  0.00000000000E+00 0. -1.
</event>
<event>
 7    1  0.1486782E-008  0.4614232E+02  0.7816164E-02  0.1320468E+00
        -11   -1    0    0    0    0  0.00000000000E+00  0.00000000000E+00  0.45593999997E+02  0.45594000000E+02  0.51100000000E-03 0. -1.
         11   -1    0    0    0    0 -0.00000000000E+00 -0.00000000000E+00 -0.45593999997E+02  0.45594000000E+02  0.51100000000E-03 0.  1.
    9900012    2    1    2    0    0 -0.12275198123E+02  0.38826998313E+02  0.19258691523E+02  0.46142317786E+02  0.10000000224E+02 0.  0.
        -12    1    1    2    0    0  0.12275198123E+02 -0.38826998313E+02 -0.19258691523E+02  0.45045682214E+02  0.00000000000E+00 0.  1.
         11    1    3    3    0    0 -0.33357380585E+01  0.14231303974E+02  0.68569183624E+01  0.16145417024E+02  0.51100000000E-03 0. -1.
        -11    1    3    3    0    0 -0.12543173005E+00  0.41910565529E+01 -0.61675302639E+00  0.42380505784E+01  0.51100000000E-03 0.  1.
        -12    1    3    3    0    0 -0.88140283343E+01  0.20404637787E+02  0.13018526187E+02  0.25758850183E+02  0.00000000000E+00 0.  1.
</event>
<event>
 7    1  0.1486782E-008  0.4614232E+02  0.7816164E-02  0.1320468E+00
        -11   -1    0    0    0    0  0.00000000000E+00  0.00000000000E+00  0.45593999997E+02  0.45594000000E+02  0.51100000000E-03 0. -1.
         11   -1    0    0    0    0 -0.00000000000E+00 -0.00000000000E+00 -0.45593999997E+02  0.45594000000E+02  0.51100000000E-03 0.  1.
    9900012    2    1    2    0    0  0.36089553874E+02  0.43068961528E+01  0.26610301761E+02  0.46142318597E+02  0.10000007619E+02 0.  0.
        -12    1    1    2    0    0 -0.36089553874E+02 -0.43068961528E+01 -0.26610301761E+02  0.45045681403E+02  0.00000000000E+00 0.  1.
         11    1    3    3    0    0  0.22687570110E+01 -0.49555255643E+00  0.42759042247E+01  0.48658183187E+01  0.51100000000E-03 0. -1.
        -11    1    3    3    0    0  0.10729177500E+02  0.38674936413E+01  0.94873203522E+01  0.14835161092E+02  0.51100000000E-03 0.  1.
         12    1    3    3    0    0  0.23091619363E+02  0.93495506792E+00  0.12847077184E+02  0.26441339186E+02  0.00000000000E+00 0. -1.
</event>
<event>
 7    1  0.1486782E-008  0.4614232E+02  0.7816164E-02  0.1320468E+00
        -11   -1    0    0    0    0  0.00000000000E+00  0.00000000000E+00  0.45593999997E+02  0.45594000000E+02  0.51100000000E-03 0.  1.
         11   -1    0    0    0    0 -0.00000000000E+00 -0.00000000000E+00 -0.45593999997E+02  0.45594000000E+02  0.51100000000E-03 0. -1.
    9900012    2    1    2    0    0 -0.11354540887E+02  0.42391232092E+02  0.10157322024E+02  0.46142319323E+02  0.10000014238E+02 0.  0.
        -12    1    1    2    0    0  0.11354540887E+02 -0.42391232092E+02 -0.10157322024E+02  0.45045680677E+02  0.00000000000E+00 0.  1.
         11    1    3    3    0    0 -0.45405503100E+01  0.12224950833E+02  0.22158839187E+01  0.13227855525E+02  0.51100000000E-03 0. -1.
        -11    1    3    3    0    0  0.15452752060E+01  0.25453637640E+01 -0.21734359914E-01  0.29777885750E+01  0.51100000000E-03 0.  1.
        -12    1    3    3    0    0 -0.83592657826E+01  0.27620917495E+02  0.79631724657E+01  0.29936675223E+02  0.00000000000E+00 0.  1.
</event>
<event>
 7    1  0.1486782E-008  0.4614232E+02  0.7816164E-02  0.1320468E+00
        -11   -1    0    0    0    0  0.00000000000E+00  0.00000000000E+00  0.45593999997E+02  0.45594000000E+02  0.51100000000E-03 0. -1.
         11   -1    0    0    0    0 -0.00000000000E+00 -0.00000000000E+00 -0.45593999997E+02  0.45594000000E+02  0.51100000000E-03 0.  1.
    9900012    2    1    2    0    0 -0.14021812788E+02 -0.13760804183E+02  0.40535688115E+02  0.46142323441E+02  0.10000051797E+02 0.  0.
        -12    1    1    2    0    0  0.14021812788E+02  0.13760804183E+02 -0.40535688115E+02  0.45045676559E+02  0.00000000000E+00 0.  1.
         11    1    3    3    0    0  0.42452048229E+00 -0.13003590308E+00 -0.46803763058E-01  0.44645025404E+00  0.51100000000E-03 0. -1.
        -11    1    3    3    0    0 -0.28800990725E+01 -0.81718541887E+00  0.11435737390E+02  0.11821118923E+02  0.51100000000E-03 0.  1.
         12    1    3    3    0    0 -0.11566234198E+02 -0.12813582861E+02  0.29146754488E+02  0.33874754264E+02  0.00000000000E+00 0. -1.
</event>
<event>
 7    1  0.1486782E-008  0.4614232E+02  0.7816164E-02  0.1320468E+00
        -11   -1    0    0    0    0  0.00000000000E+00  0.00000000000E+00  0.45593999997E+02  0.45594000000E+02  0.51100000000E-03 0.  1.
         11   -1    0    0    0    0 -0.00000000000E+00 -0.00000000000E+00 -0.45593999997E+02  0.45594000000E+02  0.51100000000E-03 0. -1.
    9900012    2    1    2    0    0 -0.20100271784E+01 -0.44887824769E+02 -0.31869100090E+01  0.46142318552E+02  0.10000007212E+02 0.  0.
        -12    1    1    2    0    0  0.20100271784E+01  0.44887824769E+02  0.31869100090E+01  0.45045681448E+02  0.00000000000E+00 0.  1.
         11    1    3    3    0    0 -0.89433986126E+00 -0.82137630095E+01 -0.40405933661E+01  0.91973986308E+01  0.51100000000E-03 0. -1.
        -11    1    3    3    0    0 -0.46608804219E-01 -0.33440963985E+02  0.28125007659E-01  0.33441008297E+02  0.51100000000E-03 0.  1.
         12    1    3    3    0    0 -0.10690785129E+01 -0.32330977739E+01  0.82555834938E+00  0.35039116243E+01  0.00000000000E+00 0. -1.
</event>
<event>
 7    1  0.1486782E-008  0.4614232E+02  0.7816164E-02  0.1320468E+00
        -11   -1    0    0    0    0  0.00000000000E+00  0.00000000000E+00  0.45593999997E+02  0.45594000000E+02  0.51100000000E-03 0.  1.
         11   -1    0    0    0    0 -0.00000000000E+00 -0.00000000000E+00 -0.45593999997E+02  0.45594000000E+02  0.51100000000E-03 0. -1.
    9900012    2    1    2    0    0 -0.16859202842E+02 -0.41771759447E+02  0.29088893111E-01  0.46142318143E+02  0.10000003486E+02 0.  0.
        -12    1    1    2    0    0  0.16859202842E+02  0.41771759447E+02 -0.29088893111E-01  0.45045681857E+02  0.00000000000E+00 0.  1.
         11    1    3    3    0    0 -0.43130700611E+01 -0.10861297887E+02  0.96807021157E+00  0.11726360277E+02  0.51100000000E-03 0. -1.
        -11    1    3    3    0    0 -0.12574588464E+02 -0.21694533751E+02  0.54501943703E+00  0.25081270226E+02  0.51100000000E-03 0.  1.
        -12    1    3    3    0    0  0.28455683157E-01 -0.92159278083E+01 -0.14840007555E+01  0.93346876400E+01  0.00000000000E+00 0.  1.
</event>
<event>
 7    1  0.1486782E-008  0.4614232E+02  0.7816164E-02  0.1320468E+00
        -11   -1    0    0    0    0  0.00000000000E+00  0.00000000000E+00  0.45593999997E+02  0.45594000000E+02  0.51100000000E-03 0. -1.
         11   -1    0    0    0    0 -0.00000000000E+00 -0.00000000000E+00 -0.45593999997E+02  0.45594000000E+02  0.51100000000E-03 0.  1.
    9900012    2    1    2    0    0 -0.42277402138E+02 -0.13145486010E+02 -0.83024632227E+01  0.46142318414E+02  0.10000005956E+02 0.  0.
        -12    1    1    2    0    0  0.42277402138E+02  0.13145486010E+02  0.83024632227E+01  0.45045681586E+02  0.00000000000E+00 0.  1.
         11    1    3    3    0    0 -0.86886377673E+01 -0.61737298315E+01  0.80035308401E-01  0.10658976133E+02  0.51100000000E-03 0. -1.
        -11    1    3    3    0    0 -0.14371708325E+02 -0.47379108075E+01 -0.36852784887E+01  0.15574821886E+02  0.51100000000E-03 0.  1.
         12    1    3    3    0    0 -0.19217056046E+02 -0.22338453710E+01 -0.46972200424E+01  0.19908520395E+02  0.00000000000E+00 0. -1.
</event>
<event>
 7    1  0.1486782E-008  0.4614232E+02  0.7816164E-02  0.1320468E+00
        -11   -1    0    0    0    0  0.00000000000E+00  0.00000000000E+00  0.45593999997E+02  0.45594000000E+02  0.51100000000E-03 0.  1.
         11   -1    0    0    0    0 -0.00000000000E+00 -0.00000000000E+00 -0.45593999997E+02  0.45594000000E+02  0.51100000000E-03 0. -1.
    9900012    2    1    2    0    0 -0.25653308144E+01 -0.43818432433E+02 -0.10123120239E+02  0.46142317560E+02  0.99999981672E+01 0.  0.
        -12    1    1    2    0    0  0.25653308144E+01  0.43818432433E+02  0.10123120239E+02  0.45045682440E+02  0.00000000000E+00 0.  1.
         11    1    3    3    0    0 -0.42025782015E+01 -0.26504654613E+02 -0.19203819493E+01  0.26904390846E+02  0.51100000000E-03 0. -1.
        -11    1    3    3    0    0  0.12949234650E+01 -0.14980205668E+02 -0.72737374524E+01  0.16703013064E+02  0.51100000000E-03 0.  1.
         12    1    3    3    0    0  0.34232392209E+00 -0.23335721524E+01 -0.92900083685E+00  0.25349136500E+01  0.00000000000E+00 0. -1.
</event>
<event>
 7    1  0.1486782E-008  0.4614232E+02  0.7816164E-02  0.1320468E+00
        -11   -1    0    0    0    0  0.00000000000E+00  0.00000000000E+00  0.45593999997E+02  0.45594000000E+02  0.51100000000E-03 0.  1.
         11   -1    0    0    0    0 -0.00000000000E+00 -0.00000000000E+00 -0.45593999997E+02  0.45594000000E+02  0.51100000000E-03 0. -1.
    9900012    2    1    2    0    0 -0.10003699248E+02  0.68445467556E+01 -0.43384232482E+02  0.46142318220E+02  0.10000004185E+02 0.  0.
        -12    1    1    2    0    0  0.10003699248E+02 -0.68445467556E+01  0.43384232482E+02  0.45045681780E+02  0.00000000000E+00 0.  1.
         11    1    3    3    0    0 -0.88764088447E+01  0.81005752445E+01 -0.26803247079E+02  0.29373866063E+02  0.51100000000E-03 0. -1.
        -11    1    3    3    0    0 -0.16306813343E+01 -0.11215616646E+01 -0.13039857981E+02  0.13189197041E+02  0.51100000000E-03 0.  1.
         12    1    3    3    0    0  0.50339093080E+00 -0.13446682431E+00 -0.35411274231E+01  0.35792551156E+01  0.00000000000E+00 0. -1.
</event>
<event>
 7    1  0.1486782E-008  0.4614231E+02  0.7816164E-02  0.1320468E+00
        -11   -1    0    0    0    0  0.00000000000E+00  0.00000000000E+00  0.45593999997E+02  0.45594000000E+02  0.51100000000E-03 0.  1.
         11   -1    0    0    0    0 -0.00000000000E+00 -0.00000000000E+00 -0.45593999997E+02  0.45594000000E+02  0.51100000000E-03 0. -1.
    9900012    2    1    2    0    0 -0.20567309679E+02 -0.28937830837E+02 -0.27725479263E+02  0.46142306739E+02  0.99998994937E+01 0.  0.
        -12    1    1    2    0    0  0.20567309679E+02  0.28937830837E+02  0.27725479263E+02  0.45045693261E+02  0.00000000000E+00 0.  1.
         11    1    3    3    0    0 -0.10526106893E+02 -0.10930800861E+02 -0.13744606912E+02  0.20474265632E+02  0.51100000000E-03 0. -1.
        -11    1    3    3    0    0 -0.62437256566E+01 -0.13926714876E+02 -0.71572399829E+01  0.16857152243E+02  0.51100000000E-03 0.  1.
        -12    1    3    3    0    0 -0.37974771297E+01 -0.40803150999E+01 -0.68236323690E+01  0.88108888640E+01  0.00000000000E+00 0.  1.
</event>
<event>
 7    1  0.1486782E-008  0.4614232E+02  0.7816164E-02  0.1320468E+00
        -11   -1    0    0    0    0  0.00000000000E+00  0.00000000000E+00  0.45593999997E+02  0.45594000000E+02  0.51100000000E-03 0.  1.
         11   -1    0    0    0    0 -0.00000000000E+00 -0.00000000000E+00 -0.45593999997E+02  0.45594000000E+02  0.51100000000E-03 0. -1.
    9900012    2    1    2    0    0 -0.18060288634E+02 -0.27503053577E+02 -0.30765592713E+02  0.46142315671E+02  0.99999809446E+01 0.  0.
        -12    1    1    2    0    0  0.18060288634E+02  0.27503053577E+02  0.30765592713E+02  0.45045684329E+02  0.00000000000E+00 0.  1.
         11    1    3    3    0    0 -0.68174190768E+01 -0.53823043882E+01 -0.63925109113E+01  0.10784739191E+02  0.51100000000E-03 0. -1.
        -11    1    3    3    0    0 -0.82462530031E+01 -0.20563700976E+02 -0.22054268656E+02  0.31261114066E+02  0.51100000000E-03 0.  1.
         12    1    3    3    0    0 -0.29966165546E+01 -0.15570482131E+01 -0.23188131460E+01  0.40964624152E+01  0.00000000000E+00 0. -1.
</event>
<event>
 7    1  0.1486782E-008  0.4614232E+02  0.7816164E-02  0.1320468E+00
        -11   -1    0    0    0    0  0.00000000000E+00  0.00000000000E+00  0.45593999997E+02  0.45594000000E+02  0.51100000000E-03 0.  1.
         11   -1    0    0    0    0 -0.00000000000E+00 -0.00000000000E+00 -0.45593999997E+02  0.45594000000E+02  0.51100000000E-03 0. -1.
    9900012    2    1    2    0    0 -0.41132482051E+01 -0.34463164920E+02 -0.28713845339E+02  0.46142318062E+02  0.10000002745E+02 0.  0.
        -12    1    1    2    0    0  0.41132482051E+01  0.34463164920E+02  0.28713845339E+02  0.45045681938E+02  0.00000000000E+00 0.  1.
         11    1    3    3    0    0 -0.40284384239E+01 -0.16236889127E+02 -0.84460700426E+01  0.18740357096E+02  0.51100000000E-03 0. -1.
        -11    1    3    3    0    0 -0.13912467533E+01 -0.73177597216E+01 -0.85358126144E+01  0.11328957239E+02  0.51100000000E-03 0.  1.
        -12    1    3    3    0    0  0.13064369721E+01 -0.10908516071E+02 -0.11731962683E+02  0.16073003727E+02  0.00000000000E+00 0.  1.
</event>
<event>
 7    1  0.1486782E-008  0.4614232E+02  0.7816164E-02  0.1320468E+00
        -11   -1    0    0    0    0  0.00000000000E+00  0.00000000000E+00  0.45593999997E+02  0.45594000000E+02  0.51100000000E-03 0.  1.
         11   -1    0    0    0    0 -0.00000000000E+00 -0.00000000000E+00 -0.45593999997E+02  0.45594000000E+02  0.51100000000E-03 0. -1.
    9900012    2    1    2    0    0  0.30693812989E+01 -0.25459451287E+02 -0.37033886496E+02  0.46142317517E+02  0.99999977742E+01 0.  0.
        -12    1    1    2    0    0 -0.30693812989E+01  0.25459451287E+02  0.37033886496E+02  0.45045682483E+02  0.00000000000E+00 0.  1.
         11    1    3    3    0    0  0.46929784092E+00 -0.19871734105E+02 -0.22937432239E+02  0.30351801508E+02  0.51100000000E-03 0. -1.
        -11    1    3    3    0    0  0.21255315610E+00 -0.10533737425E+01 -0.36646283079E+00  0.11353723412E+01  0.51100000000E-03 0.  1.
         12    1    3    3    0    0  0.23875303019E+01 -0.45343434389E+01 -0.13729991426E+02  0.14655143668E+02  0.00000000000E+00 0. -1.
</event>
<event>
 7    1  0.1486782E-008  0.4614232E+02  0.7816164E-02  0.1320468E+00
        -11   -1    0    0    0    0  0.00000000000E+00  0.00000000000E+00  0.45593999997E+02  0.45594000000E+02  0.51100000000E-03 0.  1.
         11   -1    0    0    0    0 -0.00000000000E+00 -0.00000000000E+00 -0.45593999997E+02  0.45594000000E+02  0.51100000000E-03 0. -1.
    9900012    2    1    2    0    0  0.21790192807E+02 -0.11161204357E+02 -0.37811750977E+02  0.46142317663E+02  0.99999991062E+01 0.  0.
        -12    1    1    2    0    0 -0.21790192807E+02  0.11161204357E+02  0.37811750977E+02  0.45045682337E+02  0.00000000000E+00 0.  1.
         11    1    3    3    0    0 -0.24734631464E+00  0.49895786903E+00 -0.36779325896E+01  0.37198558506E+01  0.51100000000E-03 0.  1.
        -11    1    3    3    0    0  0.11343910479E+02 -0.65884809737E+01 -0.15032210597E+02  0.19951434589E+02  0.51100000000E-03 0. -1.
         12    1    3    3    0    0  0.10693628642E+02 -0.50716812526E+01 -0.19101607791E+02  0.22471027223E+02  0.00000000000E+00 0. -1.
</event>
<event>
 7    1  0.1486782E-008  0.4614232E+02  0.7816164E-02  0.1320468E+00
        -11   -1    0    0    0    0  0.00000000000E+00  0.00000000000E+00  0.45593999997E+02  0.45594000000E+02  0.51100000000E-03 0.  1.
         11   -1    0    0    0    0 -0.00000000000E+00 -0.00000000000E+00 -0.45593999997E+02  0.45594000000E+02  0.51100000000E-03 0. -1.
    9900012    2    1    2    0    0  0.18033473059E+02  0.57957486500E+01 -0.40869507792E+02  0.46142317409E+02  0.99999967864E+01 0.  0.
        -12    1    1    2    0    0 -0.18033473059E+02 -0.57957486500E+01  0.40869507792E+02  0.45045682591E+02  0.00000000000E+00 0.  1.
         11    1    3    3    0    0  0.13588661052E+01  0.25157976918E+01 -0.81266561601E+01  0.86150041047E+01  0.51100000000E-03 0. -1.
        -11    1    3    3    0    0  0.12128870891E+02  0.36966370766E+01 -0.17467206382E+02  0.21584205657E+02  0.51100000000E-03 0.  1.
         12    1    3    3    0    0  0.45457360626E+01 -0.41668611840E+00 -0.15275645249E+02  0.15943107647E+02  0.00000000000E+00 0. -1.
</event>
<event>
 7    1  0.1486782E-008  0.4614232E+02  0.7816164E-02  0.1320468E+00
        -11   -1    0    0    0    0  0.00000000000E+00  0.00000000000E+00  0.45593999997E+02  0.45594000000E+02  0.51100000000E-03 0.  1.
         11   -1    0    0    0    0 -0.00000000000E+00 -0.00000000000E+00 -0.45593999997E+02  0.45594000000E+02  0.51100000000E-03 0. -1.
    9900012    2    1    2    0    0 -0.22043085132E+02 -0.36247260810E+02 -0.15144370003E+02  0.46142318063E+02  0.10000002756E+02 0.  0.
        -12    1    1    2    0    0  0.22043085132E+02  0.36247260810E+02  0.15144370003E+02  0.45045681937E+02  0.00000000000E+00 0.  1.
         11    1    3    3    0    0 -0.79319851632E+01 -0.20732516647E+02 -0.87384236702E+01  0.23856103698E+02  0.51100000000E-03 0. -1.
        -11    1    3    3    0    0 -0.12340686869E+02 -0.11159265427E+02 -0.52161284407E+01  0.17436448991E+02  0.51100000000E-03 0.  1.
        -12    1    3    3    0    0 -0.17704130996E+01 -0.43554787362E+01 -0.11898178917E+01  0.48497653737E+01  0.00000000000E+00 0.  1.
</event>
<event>
 7    1  0.1486782E-008  0.4614232E+02  0.7816164E-02  0.1320468E+00
        -11   -1    0    0    0    0  0.00000000000E+00  0.00000000000E+00  0.45593999997E+02  0.45594000000E+02  0.51100000000E-03 0. -1.
         11   -1    0    0    0    0 -0.00000000000E+00 -0.00000000000E+00 -0.45593999997E+02  0.45594000000E+02  0.51100000000E-03 0.  1.
    9900012    2    1    2    0    0  0.39890761205E+02 -0.41493846969E+00  0.20920527294E+02  0.46142318013E+02  0.10000002296E+02 0.  0.
        -12    1    1    2    0    0 -0.39890761205E+02  0.41493846969E+00 -0.20920527294E+02  0.45045681987E+02  0.00000000000E+00 0.  1.
         11    1    3    3    0    0  0.28455030516E+02  0.40258018479E+00  0.15349697585E+02  0.32333636490E+02  0.51100000000E-03 0. -1.
        -11    1    3    3    0    0 -0.46181153943E+00 -0.57168579970E+00  0.31130022104E+00  0.79812445162E+00  0.51100000000E-03 0.  1.
        -12    1    3    3    0    0  0.11897542228E+02 -0.24583285477E+00  0.52595294875E+01  0.13010557071E+02  0.00000000000E+00 0.  1.
</event>
<event>
 7    1  0.1486782E-008  0.4614232E+02  0.7816164E-02  0.1320468E+00
        -11   -1    0    0    0    0  0.00000000000E+00  0.00000000000E+00  0.45593999997E+02  0.45594000000E+02  0.51100000000E-03 0.  1.
         11   -1    0    0    0    0 -0.00000000000E+00 -0.00000000000E+00 -0.45593999997E+02  0.45594000000E+02  0.51100000000E-03 0. -1.
    9900012    2    1    2    0    0  0.34060199416E+02 -0.27092805074E+02 -0.11618788022E+02  0.46142317563E+02  0.99999981963E+01 0.  0.
        -12    1    1    2    0    0 -0.34060199416E+02  0.27092805074E+02  0.11618788022E+02  0.45045682437E+02  0.00000000000E+00 0.  1.
         11    1    3    3    0    0  0.16749850497E+02 -0.10907583059E+02 -0.63542854513E+00  0.19998415676E+02  0.51100000000E-03 0. -1.
        -11    1    3    3    0    0  0.54017501441E+01 -0.52895388989E+01 -0.40510068243E+01  0.85772246638E+01  0.51100000000E-03 0.  1.
         12    1    3    3    0    0  0.11908598776E+02 -0.10895683116E+02 -0.69323526529E+01  0.17566677224E+02  0.00000000000E+00 0. -1.
</event>
<event>
 7    1  0.1486782E-008  0.4614232E+02  0.7816164E-02  0.1320468E+00
        -11   -1    0    0    0    0  0.00000000000E+00  0.00000000000E+00  0.45593999997E+02  0.45594000000E+02  0.51100000000E-03 0.  1.
         11   -1    0    0    0    0 -0.00000000000E+00 -0.00000000000E+00 -0.45593999997E+02  0.45594000000E+02  0.51100000000E-03 0. -1.
    9900012    2    1    2    0    0  0.93731364960E-02 -0.14726381884E+02 -0.42570494753E+02  0.46142318356E+02  0.10000005424E+02 0.  0.
        -12    1    1    2    0    0 -0.93731364960E-02  0.14726381884E+02  0.42570494753E+02  0.45045681644E+02  0.00000000000E+00 0.  1.
         11    1    3    3    0    0 -0.12410947251E+01 -0.39427804355E+01 -0.52211344656E+01  0.66592851755E+01  0.51100000000E-03 0.  1.
        -11    1    3    3    0    0 -0.17558836766E+01 -0.85648165087E+01 -0.29855402062E+02  0.31109230814E+02  0.51100000000E-03 0. -1.
        -12    1    3    3    0    0  0.30063515382E+01 -0.22187849398E+01 -0.74939582261E+01  0.83738023666E+01  0.00000000000E+00 0.  1.
</event>
<event>
 7    1  0.1486782E-008  0.4614232E+02  0.7816164E-02  0.1320468E+00
        -11   -1    0    0    0    0  0.00000000000E+00  0.00000000000E+00  0.45593999997E+02  0.45594000000E+02  0.51100000000E-03 0. -1.
         11   -1    0    0    0    0 -0.00000000000E+00 -0.00000000000E+00 -0.45593999997E+02  0.45594000000E+02  0.51100000000E-03 0.  1.
    9900012    2    1    2    0    0  0.17684176425E+02  0.23758516325E+02  0.33939892517E+02  0.46142317656E+02  0.99999990413E+01 0.  0.
        -12    1    1    2    0    0 -0.17684176425E+02 -0.23758516325E+02 -0.33939892517E+02  0.45045682344E+02  0.00000000000E+00 0.  1.
         11    1    3    3    0    0  0.82113552344E+01  0.17491727456E+02  0.17836104529E+02  0.26296644448E+02  0.51100000000E-03 0. -1.
        -11    1    3    3    0    0  0.74231545591E+01  0.44155126730E+01  0.10481988447E+02  0.13582049103E+02  0.51100000000E-03 0.  1.
         12    1    3    3    0    0  0.20496666311E+01  0.18512761959E+01  0.56217995405E+01  0.62636241047E+01  0.00000000000E+00 0. -1.
</event>
<event>
 7    1  0.1486782E-008  0.4614232E+02  0.7816164E-02  0.1320468E+00
        -11   -1    0    0    0    0  0.00000000000E+00  0.00000000000E+00  0.45593999997E+02  0.45594000000E+02  0.51100000000E-03 0.  1.
         11   -1    0    0    0    0 -0.00000000000E+00 -0.00000000000E+00 -0.45593999997E+02  0.45594000000E+02  0.51100000000E-03 0. -1.
    9900012    2    1    2    0    0  0.64870174128E+01  0.13448756238E+02 -0.42498977411E+02  0.46142317407E+02  0.99999967741E+01 0.  0.
        -12    1    1    2    0    0 -0.64870174128E+01 -0.13448756238E+02  0.42498977411E+02  0.45045682593E+02  0.00000000000E+00 0.  1.
         11    1    3    3    0    0  0.40127106825E+01  0.94650894261E+01 -0.35843315849E+02  0.37288511048E+02  0.51100000000E-03 0. -1.
        -11    1    3    3    0    0  0.98097858171E+00 -0.39283971485E+00 -0.54010286799E+00  0.11867406576E+01  0.51100000000E-03 0.  1.
        -12    1    3    3    0    0  0.14933281486E+01  0.43765065263E+01 -0.61155586945E+01  0.76670657021E+01  0.00000000000E+00 0.  1.
</event>
<event>
 7    1  0.1486782E-008  0.4614231E+02  0.7816164E-02  0.1320468E+00
        -11   -1    0    0    0    0  0.00000000000E+00  0.00000000000E+00  0.45593999997E+02  0.45594000000E+02  0.51100000000E-03 0.  1.
         11   -1    0    0    0    0 -0.00000000000E+00 -0.00000000000E+00 -0.45593999997E+02  0.45594000000E+02  0.51100000000E-03 0. -1.
    9900012    2    1    2    0    0  0.52424575703E+01 -0.35785188553E+02 -0.26852389521E+02  0.46142313146E+02  0.99999579199E+01 0.  0.
        -12    1    1    2    0    0 -0.52424575703E+01  0.35785188553E+02  0.26852389521E+02  0.45045686854E+02  0.00000000000E+00 0.  1.
         11    1    3    3    0    0  0.19306473201E+01 -0.32167281197E+01 -0.50275540840E+01  0.62730406661E+01  0.51100000000E-03 0. -1.
        -11    1    3    3    0    0  0.39123275209E+01 -0.24654083083E+02 -0.19256798047E+02  0.31527042211E+02  0.51100000000E-03 0.  1.
        -12    1    3    3    0    0 -0.60051727063E+00 -0.79143773502E+01 -0.25680373901E+01  0.83422302695E+01  0.00000000000E+00 0.  1.
</event>
<event>
 7    1  0.1486782E-008  0.4614232E+02  0.7816164E-02  0.1320468E+00
        -11   -1    0    0    0    0  0.00000000000E+00  0.00000000000E+00  0.45593999997E+02  0.45594000000E+02  0.51100000000E-03 0. -1.
         11   -1    0    0    0    0 -0.00000000000E+00 -0.00000000000E+00 -0.45593999997E+02  0.45594000000E+02  0.51100000000E-03 0.  1.
    9900012    2    1    2    0    0  0.16009939946E+02 -0.42103937912E+02  0.23195592719E+00  0.46142316874E+02  0.99999919078E+01 0.  0.
        -12    1    1    2    0    0 -0.16009939946E+02  0.42103937912E+02 -0.23195592719E+00  0.45045683126E+02  0.00000000000E+00 0.  1.
         11    1    3    3    0    0  0.36687990268E+01 -0.29819363895E+01  0.16046337746E+01  0.49926827200E+01  0.51100000000E-03 0. -1.
        -11    1    3    3    0    0  0.50215672108E+01 -0.19895044527E+02 -0.15298752228E+01  0.20575943537E+02  0.51100000000E-03 0.  1.
        -12    1    3    3    0    0  0.73195737081E+01 -0.19226956995E+02  0.15719737536E+00  0.20573690617E+02  0.00000000000E+00 0.  1.
</event>
<event>
 7    1  0.1486782E-008  0.4614232E+02  0.7816164E-02  0.1320468E+00
        -11   -1    0    0    0    0  0.00000000000E+00  0.00000000000E+00  0.45593999997E+02  0.45594000000E+02  0.51100000000E-03 0. -1.
         11   -1    0    0    0    0 -0.00000000000E+00 -0.00000000000E+00 -0.45593999997E+02  0.45594000000E+02  0.51100000000E-03 0.  1.
    9900012    2    1    2    0    0 -0.12509775740E+02 -0.40132897769E+02  0.16185472310E+02  0.46142317785E+02  0.10000000214E+02 0.  0.
        -12    1    1    2    0    0  0.12509775740E+02  0.40132897769E+02 -0.16185472310E+02  0.45045682215E+02  0.00000000000E+00 0.  1.
         11    1    3    3    0    0 -0.12923540708E+01 -0.52527032006E+01  0.11391724742E+01  0.55280000131E+01  0.51100000000E-03 0. -1.
        -11    1    3    3    0    0  0.73731238463E+00 -0.50340239583E-01  0.90404367541E+00  0.11676724371E+01  0.51100000000E-03 0.  1.
        -12    1    3    3    0    0 -0.11954734053E+02 -0.34829854328E+02  0.14142256160E+02  0.39446645334E+02  0.00000000000E+00 0.  1.
</event>
<event>
 7    1  0.1486782E-008  0.4614232E+02  0.7816164E-02  0.1320468E+00
        -11   -1    0    0    0    0  0.00000000000E+00  0.00000000000E+00  0.45593999997E+02  0.45594000000E+02  0.51100000000E-03 0.  1.
         11   -1    0    0    0    0 -0.00000000000E+00 -0.00000000000E+00 -0.45593999997E+02  0.45594000000E+02  0.51100000000E-03 0. -1.
    9900012    2    1    2    0    0 -0.21352269136E+01  0.32856754520E+02 -0.30740656703E+02  0.46142317786E+02  0.10000000227E+02 0.  0.
        -12    1    1    2    0    0  0.21352269136E+01 -0.32856754520E+02  0.30740656703E+02  0.45045682214E+02  0.00000000000E+00 0.  1.
         11    1    3    3    0    0 -0.40095498308E+00  0.80909457802E+01 -0.70619786968E+01  0.10746893127E+02  0.51100000000E-03 0. -1.
        -11    1    3    3    0    0  0.31363993910E+01  0.12760489368E+02 -0.14168275227E+02  0.19323744803E+02  0.51100000000E-03 0.  1.
        -12    1    3    3    0    0 -0.48706713215E+01  0.12005319372E+02 -0.95104027798E+01  0.16071679856E+02  0.00000000000E+00 0.  1.
</event>
<event>
 7    1  0.1486782E-008  0.4614232E+02  0.7816164E-02  0.1320468E+00
        -11   -1    0    0    0    0  0.00000000000E+00  0.00000000000E+00  0.45593999997E+02  0.45594000000E+02  0.51100000000E-03 0.  1.
         11   -1    0    0    0    0 -0.00000000000E+00 -0.00000000000E+00 -0.45593999997E+02  0.45594000000E+02  0.51100000000E-03 0. -1.
    9900012    2    1    2    0    0  0.21822744193E+02  0.82303850026E+01 -0.38537541158E+02  0.46142317855E+02  0.10000000858E+02 0.  0.
        -12    1    1    2    0    0 -0.21822744193E+02 -0.82303850026E+01  0.38537541158E+02  0.45045682145E+02  0.00000000000E+00 0.  1.
         11    1    3    3    0    0  0.10293181118E+02  0.28115763523E+01 -0.13710293518E+02  0.17373159981E+02  0.51100000000E-03 0. -1.
        -11    1    3    3    0    0  0.55512443473E+01 -0.82724748053E+00 -0.12603860499E+02  0.13797026924E+02  0.51100000000E-03 0.  1.
        -12    1    3    3    0    0  0.59783187271E+01  0.62460561308E+01 -0.12223387141E+02  0.14972130950E+02  0.00000000000E+00 0.  1.
</event>
<event>
 7    1  0.1486782E-008  0.4614232E+02  0.7816164E-02  0.1320468E+00
        -11   -1    0    0    0    0  0.00000000000E+00  0.00000000000E+00  0.45593999997E+02  0.45594000000E+02  0.51100000000E-03 0. -1.
         11   -1    0    0    0    0 -0.00000000000E+00 -0.00000000000E+00 -0.45593999997E+02  0.45594000000E+02  0.51100000000E-03 0.  1.
    9900012    2    1    2    0    0  0.93357190836E+01 -0.37071888028E+02  0.23825048849E+02  0.46142317794E+02  0.10000000301E+02 0.  0.
        -12    1    1    2    0    0 -0.93357190836E+01  0.37071888028E+02 -0.23825048849E+02  0.45045682206E+02  0.00000000000E+00 0.  1.
         11    1    3    3    0    0  0.31733965797E+01 -0.91256065994E+01  0.11352591078E+02  0.14907329274E+02  0.51100000000E-03 0. -1.
        -11    1    3    3    0    0  0.33172194675E+01 -0.17140996695E+02  0.78634215881E+01  0.19148135993E+02  0.51100000000E-03 0.  1.
         12    1    3    3    0    0  0.28451030364E+01 -0.10805284733E+02  0.46090361832E+01  0.12086852526E+02  0.00000000000E+00 0. -1.
</event>
<event>
 7    1  0.1486782E-008  0.4614232E+02  0.7816164E-02  0.1320468E+00
        -11   -1    0    0    0    0  0.00000000000E+00  0.00000000000E+00  0.45593999997E+02  0.45594000000E+02  0.51100000000E-03 0.  1.
         11   -1    0    0    0    0 -0.00000000000E+00 -0.00000000000E+00 -0.45593999997E+02  0.45594000000E+02  0.51100000000E-03 0. -1.
    9900012    2    1    2    0    0 -0.25493508491E+02  0.35117518724E+02  0.12081158340E+02  0.46142317817E+02  0.10000000508E+02 0.  0.
        -12    1    1    2    0    0  0.25493508491E+02 -0.35117518724E+02 -0.12081158340E+02  0.45045682183E+02  0.00000000000E+00 0.  1.
         11    1    3    3    0    0 -0.23192747487E+01  0.10222576090E+01  0.57434231452E+00  0.25988296086E+01  0.51100000000E-03 0.  1.
        -11    1    3    3    0    0 -0.15867995794E+02  0.20025913353E+02  0.35197460130E+01  0.25791841896E+02  0.51100000000E-03 0. -1.
        -12    1    3    3    0    0 -0.73062379479E+01  0.14069347763E+02  0.79870700122E+01  0.17751646312E+02  0.00000000000E+00 0.  1.
</event>
<event>
 7    1  0.1486782E-008  0.4614232E+02  0.7816164E-02  0.1320468E+00
        -11   -1    0    0    0    0  0.00000000000E+00  0.00000000000E+00  0.45593999997E+02  0.45594000000E+02  0.51100000000E-03 0. -1.
         11   -1    0    0    0    0 -0.00000000000E+00 -0.00000000000E+00 -0.45593999997E+02  0.45594000000E+02  0.51100000000E-03 0.  1.
    9900012    2    1    2    0    0  0.21149442861E+02 -0.37315625673E+02  0.13760763560E+02  0.46142318004E+02  0.10000002213E+02 0.  0.
        -12    1    1    2    0    0 -0.21149442861E+02  0.37315625673E+02 -0.13760763560E+02  0.45045681996E+02  0.00000000000E+00 0.  1.
         11    1    3    3    0    0  0.17030733191E+02 -0.25451108015E+02  0.13682480720E+02  0.33541244030E+02  0.51100000000E-03 0. -1.
        -11    1    3    3    0    0  0.31343435038E+01 -0.10148324036E+02  0.12504266559E+00  0.10622063164E+02  0.51100000000E-03 0.  1.
         12    1    3    3    0    0  0.98436616692E+00 -0.17161936228E+01 -0.46759825441E-01  0.19790108092E+01  0.00000000000E+00 0. -1.
</event>
<event>
 7    1  0.1486782E-008  0.4614232E+02  0.7816164E-02  0.1320468E+00
        -11   -1    0    0    0    0  0.00000000000E+00  0.00000000000E+00  0.45593999997E+02  0.45594000000E+02  0.51100000000E-03 0.  1.
         11   -1    0    0    0    0 -0.00000000000E+00 -0.00000000000E+00 -0.45593999997E+02  0.45594000000E+02  0.51100000000E-03 0. -1.
    9900012    2    1    2    0    0 -0.24215506011E+02 -0.14725545075E+02 -0.35012584244E+02  0.46142318025E+02  0.10000002408E+02 0.  0.
        -12    1    1    2    0    0  0.24215506011E+02  0.14725545075E+02  0.35012584244E+02  0.45045681975E+02  0.00000000000E+00 0.  1.
         11    1    3    3    0    0 -0.17937775875E+02 -0.11475222251E+02 -0.28718056384E+02  0.35751521531E+02  0.51100000000E-03 0. -1.
        -11    1    3    3    0    0 -0.24279327718E+01 -0.29034022878E+01 -0.50883064919E+01  0.63415664946E+01  0.51100000000E-03 0.  1.
        -12    1    3    3    0    0 -0.38497973637E+01 -0.34692053661E+00 -0.12062213689E+01  0.40492299997E+01  0.00000000000E+00 0.  1.
</event>
<event>
 7    1  0.1486782E-008  0.4614232E+02  0.7816164E-02  0.1320468E+00
        -11   -1    0    0    0    0  0.00000000000E+00  0.00000000000E+00  0.45593999997E+02  0.45594000000E+02  0.51100000000E-03 0. -1.
         11   -1    0    0    0    0 -0.00000000000E+00 -0.00000000000E+00 -0.45593999997E+02  0.45594000000E+02  0.51100000000E-03 0.  1.
    9900012    2    1    2    0    0 -0.30385854461E+01  0.11325348737E+02  0.43492722403E+02  0.46142318436E+02  0.10000006152E+02 0.  0.
        -12    1    1    2    0    0  0.30385854461E+01 -0.11325348737E+02 -0.43492722403E+02  0.45045681564E+02  0.00000000000E+00 0.  1.
         11    1    3    3    0    0  0.19674706518E+01  0.76478142155E+01  0.29716607283E+02  0.30747955245E+02  0.51100000000E-03 0. -1.
        -11    1    3    3    0    0 -0.96584757475E+00  0.24288084817E+01  0.46007286228E+01  0.52913775428E+01  0.51100000000E-03 0.  1.
         12    1    3    3    0    0 -0.40402085232E+01  0.12487260402E+01  0.91753864974E+01  0.10102985648E+02  0.00000000000E+00 0. -1.
</event>
<event>
 7    1  0.1486782E-008  0.4614232E+02  0.7816164E-02  0.1320468E+00
        -11   -1    0    0    0    0  0.00000000000E+00  0.00000000000E+00  0.45593999997E+02  0.45594000000E+02  0.51100000000E-03 0.  1.
         11   -1    0    0    0    0 -0.00000000000E+00 -0.00000000000E+00 -0.45593999997E+02  0.45594000000E+02  0.51100000000E-03 0. -1.
    9900012    2    1    2    0    0  0.27798838295E+02  0.12878795984E+02 -0.33022333048E+02  0.46142320113E+02  0.10000021446E+02 0.  0.
        -12    1    1    2    0    0 -0.27798838295E+02 -0.12878795984E+02  0.33022333048E+02  0.45045679887E+02  0.00000000000E+00 0.  1.
         11    1    3    3    0    0  0.16150913578E+02  0.48312960518E+01 -0.16657123917E+02  0.23699223793E+02  0.51100000000E-03 0. -1.
        -11    1    3    3    0    0  0.51303267787E+01  0.56739154294E+01 -0.12053457915E+02  0.14275833325E+02  0.51100000000E-03 0.  1.
        -12    1    3    3    0    0  0.65175979383E+01  0.23735845027E+01 -0.43117512161E+01  0.81672629948E+01  0.00000000000E+00 0.  1.
</event>
<event>
 7    1  0.1486782E-008  0.4614232E+02  0.7816164E-02  0.1320468E+00
        -11   -1    0    0    0    0  0.00000000000E+00  0.00000000000E+00  0.45593999997E+02  0.45594000000E+02  0.51100000000E-03 0.  1.
         11   -1    0    0    0    0 -0.00000000000E+00 -0.00000000000E+00 -0.45593999997E+02  0.45594000000E+02  0.51100000000E-03 0. -1.
    9900012    2    1    2    0    0 -0.36584334544E+02  0.12697941600E+02 -0.23010045667E+02  0.46142318115E+02  0.10000003226E+02 0.  0.
        -12    1    1    2    0    0  0.36584334544E+02 -0.12697941600E+02  0.23010045667E+02  0.45045681885E+02  0.00000000000E+00 0.  1.
         11    1    3    3    0    0 -0.51544146521E+01 -0.10790409444E+00 -0.45661760857E+00  0.51757254179E+01  0.51100000000E-03 0. -1.
        -11    1    3    3    0    0 -0.13061747057E+02  0.75405770106E+01 -0.94711448848E+01  0.17809326869E+02  0.51100000000E-03 0.  1.
        -12    1    3    3    0    0 -0.18368172835E+02  0.52652686834E+01 -0.13082283173E+02  0.23157265828E+02  0.00000000000E+00 0.  1.
</event>
<event>
 7    1  0.1486782E-008  0.4614232E+02  0.7816164E-02  0.1320468E+00
        -11   -1    0    0    0    0  0.00000000000E+00  0.00000000000E+00  0.45593999997E+02  0.45594000000E+02  0.51100000000E-03 0.  1.
         11   -1    0    0    0    0 -0.00000000000E+00 -0.00000000000E+00 -0.45593999997E+02  0.45594000000E+02  0.51100000000E-03 0. -1.
    9900012    2    1    2    0    0 -0.29310516290E-01 -0.10716229365E+02 -0.43752426991E+02  0.46142319868E+02  0.10000019213E+02 0.  0.
        -12    1    1    2    0    0  0.29310516290E-01  0.10716229365E+02  0.43752426991E+02  0.45045680132E+02  0.00000000000E+00 0.  1.
         11    1    3    3    0    0  0.94534898900E+00 -0.58788753306E+00 -0.26843059781E+00  0.11451426590E+01  0.51100000000E-03 0. -1.
        -11    1    3    3    0    0 -0.10012553054E+00  0.39295231764E+00 -0.21538871194E+00  0.45916141406E+00  0.51100000000E-03 0.  1.
         12    1    3    3    0    0 -0.87453397475E+00 -0.10521294149E+02 -0.43268607682E+02  0.44538015795E+02  0.00000000000E+00 0. -1.
</event>
<event>
 7    1  0.1486782E-008  0.4614232E+02  0.7816164E-02  0.1320468E+00
        -11   -1    0    0    0    0  0.00000000000E+00  0.00000000000E+00  0.45593999997E+02  0.45594000000E+02  0.51100000000E-03 0.  1.
         11   -1    0    0    0    0 -0.00000000000E+00 -0.00000000000E+00 -0.45593999997E+02  0.45594000000E+02  0.51100000000E-03 0. -1.
    9900012    2    1    2    0    0  0.25584520057E+02 -0.17385941500E+02 -0.32745602633E+02  0.46142321847E+02  0.10000037262E+02 0.  0.
        -12    1    1    2    0    0 -0.25584520057E+02  0.17385941500E+02  0.32745602633E+02  0.45045678153E+02  0.00000000000E+00 0.  1.
         11    1    3    3    0    0  0.13216764814E+02 -0.13013666940E+02 -0.20286168403E+02  0.27487579524E+02  0.51100000000E-03 0. -1.
        -11    1    3    3    0    0  0.45888758145E+01 -0.45598232221E+00 -0.19529494321E+01  0.50079649424E+01  0.51100000000E-03 0.  1.
        -12    1    3    3    0    0  0.77788794295E+01 -0.39162922379E+01 -0.10506484798E+02  0.13646777381E+02  0.00000000000E+00 0.  1.
</event>
<event>
 7    1  0.1486782E-008  0.4614231E+02  0.7816164E-02  0.1320468E+00
        -11   -1    0    0    0    0  0.00000000000E+00  0.00000000000E+00  0.45593999997E+02  0.45594000000E+02  0.51100000000E-03 0.  1.
         11   -1    0    0    0    0 -0.00000000000E+00 -0.00000000000E+00 -0.45593999997E+02  0.45594000000E+02  0.51100000000E-03 0. -1.
    9900012    2    1    2    0    0  0.12758889476E+02  0.36763059218E+02 -0.22689258236E+02  0.46142309607E+02  0.99999256420E+01 0.  0.
        -12    1    1    2    0    0 -0.12758889476E+02 -0.36763059218E+02  0.22689258236E+02  0.45045690393E+02  0.00000000000E+00 0.  1.
         11    1    3    3    0    0  0.10540095813E+02  0.15854821844E+02 -0.12359716684E+02  0.22698713449E+02  0.51100000000E-03 0. -1.
        -11    1    3    3    0    0  0.15144648658E+01  0.12710229210E+02 -0.58273105290E+01  0.14064177141E+02  0.51100000000E-03 0.  1.
         12    1    3    3    0    0  0.70432879661E+00  0.81980081637E+01 -0.45022310228E+01  0.93794190166E+01  0.00000000000E+00 0. -1.
</event>
<event>
 7    1  0.1486782E-008  0.4614233E+02  0.7816164E-02  0.1320468E+00
        -11   -1    0    0    0    0  0.00000000000E+00  0.00000000000E+00  0.45593999997E+02  0.45594000000E+02  0.51100000000E-03 0.  1.
         11   -1    0    0    0    0 -0.00000000000E+00 -0.00000000000E+00 -0.45593999997E+02  0.45594000000E+02  0.51100000000E-03 0. -1.
    9900012    2    1    2    0    0  0.39108248745E+02 -0.17003605111E+02 -0.14509827651E+02  0.46142325345E+02  0.10000069154E+02 0.  0.
        -12    1    1    2    0    0 -0.39108248745E+02  0.17003605111E+02  0.14509827651E+02  0.45045674655E+02  0.00000000000E+00 0.  1.
         11    1    3    3    0    0  0.18021051643E+02 -0.54380930757E+01 -0.31659113488E+01  0.19088063117E+02  0.51100000000E-03 0. -1.
        -11    1    3    3    0    0  0.28513555972E+00  0.12181499064E+00 -0.10021858150E+01  0.10490556936E+01  0.51100000000E-03 0.  1.
         12    1    3    3    0    0  0.20802061542E+02 -0.11687327026E+02 -0.10341730487E+02  0.26005206534E+02  0.00000000000E+00 0. -1.
</event>
<event>
 7    1  0.1486782E-008  0.4614232E+02  0.7816164E-02  0.1320468E+00
        -11   -1    0    0    0    0  0.00000000000E+00  0.00000000000E+00  0.45593999997E+02  0.45594000000E+02  0.51100000000E-03 0.  1.
         11   -1    0    0    0    0 -0.00000000000E+00 -0.00000000000E+00 -0.45593999997E+02  0.45594000000E+02  0.51100000000E-03 0. -1.
    9900012    2    1    2    0    0  0.41812075502E+01  0.44281470796E+02  0.71261556766E+01  0.46142320438E+02  0.10000024414E+02 0.  0.
        -12    1    1    2    0    0 -0.41812075502E+01 -0.44281470796E+02 -0.71261556766E+01  0.45045679562E+02  0.00000000000E+00 0.  1.
         11    1    3    3    0    0 -0.17737025398E+01  0.40602636295E+01  0.24952150744E+01  0.50850624351E+01  0.51100000000E-03 0. -1.
        -11    1    3    3    0    0  0.35284718110E+01  0.15489455176E+02  0.73531277157E+00  0.15903270736E+02  0.51100000000E-03 0.  1.
         12    1    3    3    0    0  0.24264382791E+01  0.24731751990E+02  0.38956278306E+01  0.25153987267E+02  0.00000000000E+00 0. -1.
</event>
<event>
 7    1  0.1486782E-008  0.4614230E+02  0.7816164E-02  0.1320468E+00
        -11   -1    0    0    0    0  0.00000000000E+00  0.00000000000E+00  0.45593999997E+02  0.45594000000E+02  0.51100000000E-03 0.  1.
         11   -1    0    0    0    0 -0.00000000000E+00 -0.00000000000E+00 -0.45593999997E+02  0.45594000000E+02  0.51100000000E-03 0. -1.
    9900012    2    1    2    0    0  0.10751726507E+02  0.28192654836E+02 -0.33446812750E+02  0.46142304393E+02  0.99998781007E+01 0.  0.
        -12    1    1    2    0    0 -0.10751726507E+02 -0.28192654836E+02  0.33446812750E+02  0.45045695607E+02  0.00000000000E+00 0.  1.
         11    1    3    3    0    0  0.28938634266E+01  0.70777469908E+01 -0.93129292090E+01  0.12049879614E+02  0.51100000000E-03 0. -1.
        -11    1    3    3    0    0 -0.15742575577E+01  0.28831449530E+01 -0.52931705223E+01  0.62296441405E+01  0.51100000000E-03 0.  1.
        -12    1    3    3    0    0  0.94321206377E+01  0.18231762893E+02 -0.18840713018E+02  0.27862780639E+02  0.00000000000E+00 0.  1.
</event>
<event>
 7    1  0.1486782E-008  0.4614232E+02  0.7816164E-02  0.1320468E+00
        -11   -1    0    0    0    0  0.00000000000E+00  0.00000000000E+00  0.45593999997E+02  0.45594000000E+02  0.51100000000E-03 0. -1.
         11   -1    0    0    0    0 -0.00000000000E+00 -0.00000000000E+00 -0.45593999997E+02  0.45594000000E+02  0.51100000000E-03 0.  1.
    9900012    2    1    2    0    0  0.34911922324E+02 -0.14274627803E+02  0.24627346195E+02  0.46142317634E+02  0.99999988372E+01 0.  0.
        -12    1    1    2    0    0 -0.34911922324E+02  0.14274627803E+02 -0.24627346195E+02  0.45045682366E+02  0.00000000000E+00 0.  1.
         11    1    3    3    0    0  0.21677692577E+02 -0.10375192712E+02  0.19744766571E+02  0.31103420816E+02  0.51100000000E-03 0. -1.
        -11    1    3    3    0    0  0.91873323865E+01 -0.42762346907E+01  0.30695573320E+01  0.10588457961E+02  0.51100000000E-03 0.  1.
        -12    1    3    3    0    0  0.40468973607E+01  0.37679959991E+00  0.18130222913E+01  0.44504388564E+01  0.00000000000E+00 0.  1.
</event>
<event>
 7    1  0.1486782E-008  0.4614232E+02  0.7816164E-02  0.1320468E+00
        -11   -1    0    0    0    0  0.00000000000E+00  0.00000000000E+00  0.45593999997E+02  0.45594000000E+02  0.51100000000E-03 0.  1.
         11   -1    0    0    0    0 -0.00000000000E+00 -0.00000000000E+00 -0.45593999997E+02  0.45594000000E+02  0.51100000000E-03 0. -1.
    9900012    2    1    2    0    0 -0.37994029842E+01 -0.38697315485E+02 -0.22741938344E+02  0.46142318205E+02  0.10000004046E+02 0.  0.
        -12    1    1    2    0    0  0.37994029842E+01  0.38697315485E+02  0.22741938344E+02  0.45045681795E+02  0.00000000000E+00 0.  1.
         11    1    3    3    0    0 -0.54826473917E+01 -0.15277518674E+02 -0.97176001692E+01  0.18918080044E+02  0.51100000000E-03 0. -1.
        -11    1    3    3    0    0  0.92439136745E+00 -0.79271686916E+01 -0.21011006362E+01  0.82528253955E+01  0.51100000000E-03 0.  1.
         12    1    3    3    0    0  0.75885304003E+00 -0.15492628120E+02 -0.10923237538E+02  0.18971412765E+02  0.00000000000E+00 0. -1.
</event>
<event>
 7    1  0.1486782E-008  0.4614232E+02  0.7816164E-02  0.1320468E+00
        -11   -1    0    0    0    0  0.00000000000E+00  0.00000000000E+00  0.45593999997E+02  0.45594000000E+02  0.51100000000E-03 0. -1.
         11   -1    0    0    0    0 -0.00000000000E+00 -0.00000000000E+00 -0.45593999997E+02  0.45594000000E+02  0.51100000000E-03 0.  1.
    9900012    2    1    2    0    0  0.40776399772E+02  0.19109649154E+02 -0.11045311637E+01  0.46142318096E+02  0.10000003050E+02 0.  0.
        -12    1    1    2    0    0 -0.40776399772E+02 -0.19109649154E+02  0.11045311637E+01  0.45045681904E+02  0.00000000000E+00 0.  1.
         11    1    3    3    0    0  0.27519527601E+02  0.13714297638E+02  0.27329316377E+01  0.30868677890E+02  0.51100000000E-03 0. -1.
        -11    1    3    3    0    0  0.66736880855E+01  0.11126421110E+01 -0.29112415636E+01  0.73655558401E+01  0.51100000000E-03 0.  1.
         12    1    3    3    0    0  0.65831840857E+01  0.42827094051E+01 -0.92622123768E+00  0.79080843657E+01  0.00000000000E+00 0. -1.
</event>
<event>
 7    1  0.1486782E-008  0.4614231E+02  0.7816164E-02  0.1320468E+00
        -11   -1    0    0    0    0  0.00000000000E+00  0.00000000000E+00  0.45593999997E+02  0.45594000000E+02  0.51100000000E-03 0. -1.
         11   -1    0    0    0    0 -0.00000000000E+00 -0.00000000000E+00 -0.45593999997E+02  0.45594000000E+02  0.51100000000E-03 0.  1.
    9900012    2    1    2    0    0  0.17282847764E+02  0.31093957355E+02  0.27633002324E+02  0.46142313989E+02  0.99999656001E+01 0.  0.
        -12    1    1    2    0    0 -0.17282847764E+02 -0.31093957355E+02 -0.27633002324E+02  0.45045686011E+02  0.00000000000E+00 0.  1.
         11    1    3    3    0    0 -0.13114926544E+00  0.21593487870E+01  0.38632179449E+01  0.44276901952E+01  0.51100000000E-03 0. -1.
        -11    1    3    3    0    0  0.52667045267E+01  0.89479408895E+01  0.41313004427E+01  0.11174590209E+02  0.51100000000E-03 0.  1.
        -12    1    3    3    0    0  0.12147292503E+02  0.19986667678E+02  0.19638483936E+02  0.30540033584E+02  0.00000000000E+00 0.  1.
</event>
<event>
 7    1  0.1486782E-008  0.4614232E+02  0.7816164E-02  0.1320468E+00
        -11   -1    0    0    0    0  0.00000000000E+00  0.00000000000E+00  0.45593999997E+02  0.45594000000E+02  0.51100000000E-03 0. -1.
         11   -1    0    0    0    0 -0.00000000000E+00 -0.00000000000E+00 -0.45593999997E+02  0.45594000000E+02  0.51100000000E-03 0.  1.
    9900012    2    1    2    0    0 -0.44125665071E+02 -0.11216738607E+00  0.90568473421E+01  0.46142318927E+02  0.10000010636E+02 0.  0.
        -12    1    1    2    0    0  0.44125665071E+02  0.11216738607E+00 -0.90568473421E+01  0.45045681073E+02  0.00000000000E+00 0.  1.
         11    1    3    3    0    0 -0.17357850596E+02 -0.31068730886E+01  0.25016579353E+01  0.17810275977E+02  0.51100000000E-03 0. -1.
        -11    1    3    3    0    0 -0.23468343660E+01  0.75169435769E+00  0.24353566217E+01  0.34646266877E+01  0.51100000000E-03 0.  1.
         12    1    3    3    0    0 -0.24420980110E+02  0.22430113448E+01  0.41198327851E+01  0.24867416263E+02  0.00000000000E+00 0. -1.
</event>
<event>
 7    1  0.1486782E-008  0.4614232E+02  0.7816164E-02  0.1320468E+00
        -11   -1    0    0    0    0  0.00000000000E+00  0.00000000000E+00  0.45593999997E+02  0.45594000000E+02  0.51100000000E-03 0.  1.
         11   -1    0    0    0    0 -0.00000000000E+00 -0.00000000000E+00 -0.45593999997E+02  0.45594000000E+02  0.51100000000E-03 0. -1.
    9900012    2    1    2    0    0  0.14957234397E+02  0.75161187345E+01 -0.41819882109E+02  0.46142318284E+02  0.10000004772E+02 0.  0.
        -12    1    1    2    0    0 -0.14957234397E+02 -0.75161187345E+01  0.41819882109E+02  0.45045681716E+02  0.00000000000E+00 0.  1.
         11    1    3    3    0    0  0.10133579299E+02  0.75208581551E+01 -0.26520085836E+02  0.29369502717E+02  0.51100000000E-03 0. -1.
        -11    1    3    3    0    0 -0.14917427008E+00 -0.16334867719E+01 -0.37234124781E+01  0.40687016037E+01  0.51100000000E-03 0.  1.
        -12    1    3    3    0    0  0.49728293681E+01  0.16287473514E+01 -0.11576383794E+02  0.12704113964E+02  0.00000000000E+00 0.  1.
</event>
<event>
 7    1  0.1486782E-008  0.4614232E+02  0.7816164E-02  0.1320468E+00
        -11   -1    0    0    0    0  0.00000000000E+00  0.00000000000E+00  0.45593999997E+02  0.45594000000E+02  0.51100000000E-03 0. -1.
         11   -1    0    0    0    0 -0.00000000000E+00 -0.00000000000E+00 -0.45593999997E+02  0.45594000000E+02  0.51100000000E-03 0.  1.
    9900012    2    1    2    0    0  0.21720290143E+02 -0.13817943794E+02  0.36964939490E+02  0.46142319562E+02  0.10000016423E+02 0.  0.
        -12    1    1    2    0    0 -0.21720290143E+02  0.13817943794E+02 -0.36964939490E+02  0.45045680438E+02  0.00000000000E+00 0.  1.
         11    1    3    3    0    0  0.16936991717E+01 -0.25081292370E+01  0.53854768387E+01  0.61775958264E+01  0.51100000000E-03 0. -1.
        -11    1    3    3    0    0  0.19261973330E+02 -0.11947904268E+02  0.26881445431E+02  0.35162311381E+02  0.51100000000E-03 0.  1.
        -12    1    3    3    0    0  0.76461764175E+00  0.63808971078E+00  0.46980172210E+01  0.48024123549E+01  0.00000000000E+00 0.  1.
</event>
<event>
 7    1  0.1486782E-008  0.4614232E+02  0.7816164E-02  0.1320468E+00
        -11   -1    0    0    0    0  0.00000000000E+00  0.00000000000E+00  0.45593999997E+02  0.45594000000E+02  0.51100000000E-03 0.  1.
         11   -1    0    0    0    0 -0.00000000000E+00 -0.00000000000E+00 -0.45593999997E+02  0.45594000000E+02  0.51100000000E-03 0. -1.
    9900012    2    1    2    0    0 -0.13620971897E+02  0.11665535690E+02 -0.41321883550E+02  0.46142315873E+02  0.99999827804E+01 0.  0.
        -12    1    1    2    0    0  0.13620971897E+02 -0.11665535690E+02  0.41321883550E+02  0.45045684127E+02  0.00000000000E+00 0.  1.
         11    1    3    3    0    0 -0.63053108767E+01  0.10589767482E+02 -0.23809963977E+02  0.26810716242E+02  0.51100000000E-03 0. -1.
        -11    1    3    3    0    0 -0.52135971144E+01  0.12400334389E+01 -0.82872485903E+01  0.98690307153E+01  0.51100000000E-03 0.  1.
         12    1    3    3    0    0 -0.21020639057E+01 -0.16426523106E+00 -0.92246709828E+01  0.94625689150E+01  0.00000000000E+00 0. -1.
</event>
<event>
 7    1  0.1486782E-008  0.4614232E+02  0.7816164E-02  0.1320468E+00
        -11   -1    0    0    0    0  0.00000000000E+00  0.00000000000E+00  0.45593999997E+02  0.45594000000E+02  0.51100000000E-03 0. -1.
         11   -1    0    0    0    0 -0.00000000000E+00 -0.00000000000E+00 -0.45593999997E+02  0.45594000000E+02  0.51100000000E-03 0.  1.
    9900012    2    1    2    0    0  0.25370833818E+02  0.14408406148E+02  0.34319562155E+02  0.46142315158E+02  0.99999762669E+01 0.  0.
        -12    1    1    2    0    0 -0.25370833818E+02 -0.14408406148E+02 -0.34319562155E+02  0.45045684842E+02  0.00000000000E+00 0.  1.
         11    1    3    3    0    0 -0.14204374155E+00 -0.53012580151E+00  0.11285615520E+01  0.12549347504E+01  0.51100000000E-03 0.  1.
        -11    1    3    3    0    0  0.20107162940E+02  0.92656838020E+01  0.26896204673E+02  0.34836141059E+02  0.51100000000E-03 0. -1.
         12    1    3    3    0    0  0.54057146204E+01  0.56728481474E+01  0.62947959292E+01  0.10051239349E+02  0.00000000000E+00 0. -1.
</event>
<event>
 7    1  0.1486782E-008  0.4614232E+02  0.7816164E-02  0.1320468E+00
        -11   -1    0    0    0    0  0.00000000000E+00  0.00000000000E+00  0.45593999997E+02  0.45594000000E+02  0.51100000000E-03 0.  1.
         11   -1    0    0    0    0 -0.00000000000E+00 -0.00000000000E+00 -0.45593999997E+02  0.45594000000E+02  0.51100000000E-03 0. -1.
    9900012    2    1    2    0    0  0.20392807774E+02  0.11696477366E+02 -0.38424462851E+02  0.46142317220E+02  0.99999950694E+01 0.  0.
        -12    1    1    2    0    0 -0.20392807774E+02 -0.11696477366E+02  0.38424462851E+02  0.45045682780E+02  0.00000000000E+00 0.  1.
         11    1    3    3    0    0  0.80427199207E+01  0.44091800755E+00 -0.90012978743E+01  0.12079036224E+02  0.51100000000E-03 0. -1.
        -11    1    3    3    0    0 -0.67326270181E-01  0.10357280713E+01 -0.12667100685E+01  0.16376263685E+01  0.51100000000E-03 0.  1.
         12    1    3    3    0    0  0.12417414124E+02  0.10219831287E+02 -0.28156454908E+02  0.32425654628E+02  0.00000000000E+00 0. -1.
</event>
<event>
 7    1  0.1486782E-008  0.4614232E+02  0.7816164E-02  0.1320468E+00
        -11   -1    0    0    0    0  0.00000000000E+00  0.00000000000E+00  0.45593999997E+02  0.45594000000E+02  0.51100000000E-03 0.  1.
         11   -1    0    0    0    0 -0.00000000000E+00 -0.00000000000E+00 -0.45593999997E+02  0.45594000000E+02  0.51100000000E-03 0. -1.
    9900012    2    1    2    0    0  0.35220356374E+02 -0.22954252119E+02 -0.16178450756E+02  0.46142318050E+02  0.10000002631E+02 0.  0.
        -12    1    1    2    0    0 -0.35220356374E+02  0.22954252119E+02  0.16178450756E+02  0.45045681950E+02  0.00000000000E+00 0.  1.
         11    1    3    3    0    0  0.10359175131E+02 -0.66821031415E+01 -0.50201242938E+01  0.13310321558E+02  0.51100000000E-03 0. -1.
        -11    1    3    3    0    0  0.81479508327E+01 -0.60965320947E+01 -0.81442532995E+01  0.13034019657E+02  0.51100000000E-03 0.  1.
        -12    1    3    3    0    0  0.16713230411E+02 -0.10175616883E+02 -0.30140731632E+01  0.19797976835E+02  0.00000000000E+00 0.  1.
</event>
<event>
 7    1  0.1486782E-008  0.4614232E+02  0.7816164E-02  0.1320468E+00
        -11   -1    0    0    0    0  0.00000000000E+00  0.00000000000E+00  0.45593999997E+02  0.45594000000E+02  0.51100000000E-03 0.  1.
         11   -1    0    0    0    0 -0.00000000000E+00 -0.00000000000E+00 -0.45593999997E+02  0.45594000000E+02  0.51100000000E-03 0. -1.
    9900012    2    1    2    0    0  0.41030025660E+02  0.18232898111E+02  0.36348324503E+01  0.46142316676E+02  0.99999901020E+01 0.  0.
        -12    1    1    2    0    0 -0.41030025660E+02 -0.18232898111E+02 -0.36348324503E+01  0.45045683324E+02  0.00000000000E+00 0.  1.
         11    1    3    3    0    0  0.20383200098E+02  0.63952014339E+01  0.93302497767E+00  0.21383264098E+02  0.51100000000E-03 0. -1.
        -11    1    3    3    0    0  0.14298172439E+01  0.28423495858E+01  0.14708166451E+01  0.35052290059E+01  0.51100000000E-03 0.  1.
        -12    1    3    3    0    0  0.19217008318E+02  0.89953470918E+01  0.12309908275E+01  0.21253823572E+02  0.00000000000E+00 0.  1.
</event>
<event>
 7    1  0.1486782E-008  0.4614232E+02  0.7816164E-02  0.1320468E+00
        -11   -1    0    0    0    0  0.00000000000E+00  0.00000000000E+00  0.45593999997E+02  0.45594000000E+02  0.51100000000E-03 0.  1.
         11   -1    0    0    0    0 -0.00000000000E+00 -0.00000000000E+00 -0.45593999997E+02  0.45594000000E+02  0.51100000000E-03 0. -1.
    9900012    2    1    2    0    0  0.37589148415E+02 -0.20787682430E+02 -0.13566197825E+02  0.46142317157E+02  0.99999944925E+01 0.  0.
        -12    1    1    2    0    0 -0.37589148415E+02  0.20787682430E+02  0.13566197825E+02  0.45045682843E+02  0.00000000000E+00 0.  1.
         11    1    3    3    0    0  0.17303186456E+02 -0.98517071027E+01 -0.28287732586E+01  0.20111149962E+02  0.51100000000E-03 0. -1.
        -11    1    3    3    0    0  0.13233453244E+02 -0.83083640192E+01 -0.98063223740E+01  0.18447687015E+02  0.51100000000E-03 0.  1.
        -12    1    3    3    0    0  0.70525087147E+01 -0.26276113081E+01 -0.93110219264E+00  0.75834801807E+01  0.00000000000E+00 0.  1.
</event>
<event>
 7    1  0.1486782E-008  0.4614232E+02  0.7816164E-02  0.1320468E+00
        -11   -1    0    0    0    0  0.00000000000E+00  0.00000000000E+00  0.45593999997E+02  0.45594000000E+02  0.51100000000E-03 0. -1.
         11   -1    0    0    0    0 -0.00000000000E+00 -0.00000000000E+00 -0.45593999997E+02  0.45594000000E+02  0.51100000000E-03 0.  1.
    9900012    2    1    2    0    0  0.32444029940E+02 -0.24627919536E+02  0.19234447897E+02  0.46142317795E+02  0.10000000308E+02 0.  0.
        -12    1    1    2    0    0 -0.32444029940E+02  0.24627919536E+02 -0.19234447897E+02  0.45045682205E+02  0.00000000000E+00 0.  1.
         11    1    3    3    0    0  0.19029310713E+02 -0.10519373533E+02  0.72270212056E+01  0.22912916041E+02  0.51100000000E-03 0. -1.
        -11    1    3    3    0    0  0.97705256322E+01 -0.95143928263E+01  0.10395253399E+02  0.17147831801E+02  0.51100000000E-03 0.  1.
         12    1    3    3    0    0  0.36441935944E+01 -0.45941531767E+01  0.16121732929E+01  0.60815699528E+01  0.00000000000E+00 0. -1.
</event>
<event>
 7    1  0.1486782E-008  0.4614232E+02  0.7816164E-02  0.1320468E+00
        -11   -1    0    0    0    0  0.00000000000E+00  0.00000000000E+00  0.45593999997E+02  0.45594000000E+02  0.51100000000E-03 0.  1.
         11   -1    0    0    0    0 -0.00000000000E+00 -0.00000000000E+00 -0.45593999997E+02  0.45594000000E+02  0.51100000000E-03 0. -1.
    9900012    2    1    2    0    0 -0.39101321624E+02 -0.83129363117E-01 -0.22365002190E+02  0.46142316676E+02  0.99999901012E+01 0.  0.
        -12    1    1    2    0    0  0.39101321624E+02  0.83129363117E-01  0.22365002190E+02  0.45045683324E+02  0.00000000000E+00 0.  1.
         11    1    3    3    0    0 -0.95705144816E+01 -0.36021532447E+01 -0.45942712896E+01  0.11210601428E+02  0.51100000000E-03 0. -1.
        -11    1    3    3    0    0 -0.22259756458E+02  0.44706933281E+01 -0.12683590771E+02  0.26006870852E+02  0.51100000000E-03 0.  1.
         12    1    3    3    0    0 -0.72710506840E+01 -0.95166944653E+00 -0.50871401289E+01  0.89248443950E+01  0.00000000000E+00 0. -1.
</event>
<event>
 7    1  0.1486782E-008  0.4614232E+02  0.7816164E-02  0.1320468E+00
        -11   -1    0    0    0    0  0.00000000000E+00  0.00000000000E+00  0.45593999997E+02  0.45594000000E+02  0.51100000000E-03 0.  1.
         11   -1    0    0    0    0 -0.00000000000E+00 -0.00000000000E+00 -0.45593999997E+02  0.45594000000E+02  0.51100000000E-03 0. -1.
    9900012    2    1    2    0    0  0.32397789719E+02  0.21033533642E+01 -0.31226151782E+02  0.46142318418E+02  0.10000005994E+02 0.  0.
        -12    1    1    2    0    0 -0.32397789719E+02 -0.21033533642E+01  0.31226151782E+02  0.45045681582E+02  0.00000000000E+00 0.  1.
         11    1    3    3    0    0  0.10811150761E+02  0.91394226385E+00 -0.12402964085E+02  0.16478767842E+02  0.51100000000E-03 0. -1.
        -11    1    3    3    0    0  0.14514562594E+01 -0.96780523376E+00  0.34678682522E+00  0.17786606216E+01  0.51100000000E-03 0.  1.
        -12    1    3    3    0    0  0.20135182698E+02  0.21572163341E+01 -0.19169974522E+02  0.27884889955E+02  0.00000000000E+00 0.  1.
</event>
<event>
 7    1  0.1486782E-008  0.4614232E+02  0.7816164E-02  0.1320468E+00
        -11   -1    0    0    0    0  0.00000000000E+00  0.00000000000E+00  0.45593999997E+02  0.45594000000E+02  0.51100000000E-03 0. -1.
         11   -1    0    0    0    0 -0.00000000000E+00 -0.00000000000E+00 -0.45593999997E+02  0.45594000000E+02  0.51100000000E-03 0.  1.
    9900012    2    1    2    0    0 -0.49013681255E+01  0.13274259843E+02  0.42765450691E+02  0.46142321443E+02  0.10000033571E+02 0.  0.
        -12    1    1    2    0    0  0.49013681255E+01 -0.13274259843E+02 -0.42765450691E+02  0.45045678557E+02  0.00000000000E+00 0.  1.
         11    1    3    3    0    0  0.47191503718E+00  0.10330046299E+02  0.20692063011E+02  0.23132099608E+02  0.51100000000E-03 0. -1.
        -11    1    3    3    0    0 -0.27357651077E+01  0.10033797877E+01  0.13960592018E+02  0.14261462459E+02  0.51100000000E-03 0.  1.
         12    1    3    3    0    0 -0.26375180550E+01  0.19408337557E+01  0.81127956618E+01  0.87487593753E+01  0.00000000000E+00 0. -1.
</event>
<event>
 7    1  0.1486782E-008  0.4614232E+02  0.7816164E-02  0.1320468E+00
        -11   -1    0    0    0    0  0.00000000000E+00  0.00000000000E+00  0.45593999997E+02  0.45594000000E+02  0.51100000000E-03 0. -1.
         11   -1    0    0    0    0 -0.00000000000E+00 -0.00000000000E+00 -0.45593999997E+02  0.45594000000E+02  0.51100000000E-03 0.  1.
    9900012    2    1    2    0    0 -0.10153196469E+02  0.25870067142E+02  0.35450893156E+02  0.46142316544E+02  0.99999889012E+01 0.  0.
        -12    1    1    2    0    0  0.10153196469E+02 -0.25870067142E+02 -0.35450893156E+02  0.45045683456E+02  0.00000000000E+00 0.  1.
         11    1    3    3    0    0 -0.69346093156E+01  0.16852263781E+02  0.17517274583E+02  0.25277312159E+02  0.51100000000E-03 0. -1.
        -11    1    3    3    0    0 -0.95278096106E+00  0.17214131009E+01  0.85045354502E+01  0.87291567811E+01  0.51100000000E-03 0.  1.
        -12    1    3    3    0    0 -0.22658061920E+01  0.72963902602E+01  0.94290831228E+01  0.12135847604E+02  0.00000000000E+00 0.  1.
</event>
<event>
 7    1  0.1486782E-008  0.4614232E+02  0.7816164E-02  0.1320468E+00
        -11   -1    0    0    0    0  0.00000000000E+00  0.00000000000E+00  0.45593999997E+02  0.45594000000E+02  0.51100000000E-03 0.  1.
         11   -1    0    0    0    0 -0.00000000000E+00 -0.00000000000E+00 -0.45593999997E+02  0.45594000000E+02  0.51100000000E-03 0. -1.
    9900012    2    1    2    0    0  0.21035733431E+02  0.39530054805E+02 -0.48975641945E+01  0.46142318199E+02  0.10000003994E+02 0.  0.
        -12    1    1    2    0    0 -0.21035733431E+02 -0.39530054805E+02  0.48975641945E+01  0.45045681801E+02  0.00000000000E+00 0.  1.
         11    1    3    3    0    0  0.49957203362E+01  0.10966732395E+02  0.99926665301E-01  0.12051407664E+02  0.51100000000E-03 0. -1.
        -11    1    3    3    0    0  0.11006169488E+02  0.17326403260E+02 -0.68500891273E+01  0.21639402442E+02  0.51100000000E-03 0.  1.
        -12    1    3    3    0    0  0.50338436069E+01  0.11236919150E+02  0.18525982675E+01  0.12451508093E+02  0.00000000000E+00 0.  1.
</event>
<event>
 7    1  0.1486782E-008  0.4614232E+02  0.7816164E-02  0.1320468E+00
        -11   -1    0    0    0    0  0.00000000000E+00  0.00000000000E+00  0.45593999997E+02  0.45594000000E+02  0.51100000000E-03 0.  1.
         11   -1    0    0    0    0 -0.00000000000E+00 -0.00000000000E+00 -0.45593999997E+02  0.45594000000E+02  0.51100000000E-03 0. -1.
    9900012    2    1    2    0    0  0.12635417551E+02 -0.43136104321E+02 -0.29556861093E+01  0.46142319263E+02  0.10000013698E+02 0.  0.
        -12    1    1    2    0    0 -0.12635417551E+02  0.43136104321E+02  0.29556861093E+01  0.45045680737E+02  0.00000000000E+00 0.  1.
         11    1    3    3    0    0  0.98372481535E+01 -0.18281626868E+02 -0.24013311394E+01  0.20898701483E+02  0.51100000000E-03 0. -1.
        -11    1    3    3    0    0  0.22050514036E+01 -0.19099016855E+02 -0.18490308689E+01  0.19314595827E+02  0.51100000000E-03 0.  1.
        -12    1    3    3    0    0  0.59311799367E+00 -0.57554605974E+01  0.12946758991E+01  0.59290219536E+01  0.00000000000E+00 0.  1.
</event>
<event>
 7    1  0.1486782E-008  0.4614232E+02  0.7816164E-02  0.1320468E+00
        -11   -1    0    0    0    0  0.00000000000E+00  0.00000000000E+00  0.45593999997E+02  0.45594000000E+02  0.51100000000E-03 0.  1.
         11   -1    0    0    0    0 -0.00000000000E+00 -0.00000000000E+00 -0.45593999997E+02  0.45594000000E+02  0.51100000000E-03 0. -1.
    9900012    2    1    2    0    0  0.34204230259E+02  0.25938236407E+02  0.13652546310E+02  0.46142317673E+02  0.99999991999E+01 0.  0.
        -12    1    1    2    0    0 -0.34204230259E+02 -0.25938236407E+02 -0.13652546310E+02  0.45045682327E+02  0.00000000000E+00 0.  1.
         11    1    3    3    0    0  0.19375187204E+01  0.10713887153E+00 -0.55982841793E+00  0.20196201743E+01  0.51100000000E-03 0. -1.
        -11    1    3    3    0    0  0.13614427660E+02  0.13394072181E+02  0.89666616582E+01  0.21098692653E+02  0.51100000000E-03 0.  1.
         12    1    3    3    0    0  0.18652283878E+02  0.12437025355E+02  0.52457130695E+01  0.23024004846E+02  0.00000000000E+00 0. -1.
</event>
<event>
 7    1  0.1486782E-008  0.4614232E+02  0.7816164E-02  0.1320468E+00
        -11   -1    0    0    0    0  0.00000000000E+00  0.00000000000E+00  0.45593999997E+02  0.45594000000E+02  0.51100000000E-03 0.  1.
         11   -1    0    0    0    0 -0.00000000000E+00 -0.00000000000E+00 -0.45593999997E+02  0.45594000000E+02  0.51100000000E-03 0. -1.
    9900012    2    1    2    0    0 -0.90136242406E+01 -0.84658997422E+01 -0.43315085976E+02  0.46142317038E+02  0.99999934026E+01 0.  0.
        -12    1    1    2    0    0  0.90136242406E+01  0.84658997422E+01  0.43315085976E+02  0.45045682962E+02  0.00000000000E+00 0.  1.
         11    1    3    3    0    0 -0.39309606930E+01 -0.12772766893E+00 -0.21592882840E+02  0.21948151538E+02  0.51100000000E-03 0. -1.
        -11    1    3    3    0    0 -0.48453450260E+01 -0.46235572505E+01 -0.11405020827E+02  0.13226078421E+02  0.51100000000E-03 0.  1.
         12    1    3    3    0    0 -0.23731852160E+00 -0.37146148228E+01 -0.10317182309E+02  0.10968087079E+02  0.00000000000E+00 0. -1.
</event>
<event>
 7    1  0.1486782E-008  0.4614232E+02  0.7816164E-02  0.1320468E+00
        -11   -1    0    0    0    0  0.00000000000E+00  0.00000000000E+00  0.45593999997E+02  0.45594000000E+02  0.51100000000E-03 0.  1.
         11   -1    0    0    0    0 -0.00000000000E+00 -0.00000000000E+00 -0.45593999997E+02  0.45594000000E+02  0.51100000000E-03 0. -1.
    9900012    2    1    2    0    0  0.12546906711E+02  0.43199552479E+02  0.23425204168E+01  0.46142316474E+02  0.99999882643E+01 0.  0.
        -12    1    1    2    0    0 -0.12546906711E+02 -0.43199552479E+02 -0.23425204168E+01  0.45045683526E+02  0.00000000000E+00 0.  1.
         11    1    3    3    0    0  0.10820351469E+02  0.26874029326E+02  0.72566763496E+00  0.28979648926E+02  0.51100000000E-03 0. -1.
        -11    1    3    3    0    0  0.15997215573E+01  0.15638820551E+02  0.26231813297E+01  0.15937782086E+02  0.51100000000E-03 0.  1.
         12    1    3    3    0    0  0.12683368464E+00  0.68670260295E+00 -0.10063285479E+01  0.12248854619E+01  0.00000000000E+00 0. -1.
</event>
<event>
 7    1  0.1486782E-008  0.4614232E+02  0.7816164E-02  0.1320468E+00
        -11   -1    0    0    0    0  0.00000000000E+00  0.00000000000E+00  0.45593999997E+02  0.45594000000E+02  0.51100000000E-03 0. -1.
         11   -1    0    0    0    0 -0.00000000000E+00 -0.00000000000E+00 -0.45593999997E+02  0.45594000000E+02  0.51100000000E-03 0.  1.
    9900012    2    1    2    0    0 -0.34983675513E+02 -0.27919995757E+02 -0.50724607394E+01  0.46142316817E+02  0.99999913914E+01 0.  0.
        -12    1    1    2    0    0  0.34983675513E+02  0.27919995757E+02  0.50724607394E+01  0.45045683183E+02  0.00000000000E+00 0.  1.
         11    1    3    3    0    0 -0.33438764684E+00 -0.94963441557E+00 -0.12280058757E+01  0.15879607405E+01  0.51100000000E-03 0.  1.
        -11    1    3    3    0    0 -0.12089265053E+02 -0.64203951529E+01 -0.30680482055E+01  0.14027997844E+02  0.51100000000E-03 0. -1.
         12    1    3    3    0    0 -0.22560022813E+02 -0.20549966189E+02 -0.77640665815E+00  0.30526358233E+02  0.00000000000E+00 0. -1.
</event>
<event>
 7    1  0.1486782E-008  0.4614232E+02  0.7816164E-02  0.1320468E+00
        -11   -1    0    0    0    0  0.00000000000E+00  0.00000000000E+00  0.45593999997E+02  0.45594000000E+02  0.51100000000E-03 0.  1.
         11   -1    0    0    0    0 -0.00000000000E+00 -0.00000000000E+00 -0.45593999997E+02  0.45594000000E+02  0.51100000000E-03 0. -1.
    9900012    2    1    2    0    0  0.98140644197E+01  0.28140039784E+02 -0.33777740675E+02  0.46142318025E+02  0.10000002406E+02 0.  0.
        -12    1    1    2    0    0 -0.98140644197E+01 -0.28140039784E+02  0.33777740675E+02  0.45045681975E+02  0.00000000000E+00 0.  1.
         11    1    3    3    0    0  0.52455189880E+01  0.24204000061E+02 -0.24333354641E+02  0.34719752833E+02  0.51100000000E-03 0. -1.
        -11    1    3    3    0    0  0.33876423902E+01  0.16596379014E+01 -0.46724122137E+01  0.60051607042E+01  0.51100000000E-03 0.  1.
         12    1    3    3    0    0  0.11809030415E+01  0.22764018219E+01 -0.47719738200E+01  0.54174044880E+01  0.00000000000E+00 0. -1.
</event>
<event>
 7    1  0.1486782E-008  0.4614232E+02  0.7816164E-02  0.1320468E+00
        -11   -1    0    0    0    0  0.00000000000E+00  0.00000000000E+00  0.45593999997E+02  0.45594000000E+02  0.51100000000E-03 0.  1.
         11   -1    0    0    0    0 -0.00000000000E+00 -0.00000000000E+00 -0.45593999997E+02  0.45594000000E+02  0.51100000000E-03 0. -1.
    9900012    2    1    2    0    0  0.42415593769E+02 -0.69533910859E+01  0.13478919622E+02  0.46142317448E+02  0.99999971465E+01 0.  0.
        -12    1    1    2    0    0 -0.42415593769E+02  0.69533910859E+01 -0.13478919622E+02  0.45045682552E+02  0.00000000000E+00 0.  1.
         11    1    3    3    0    0  0.37987619340E+02 -0.64298581528E+01  0.88356952901E+01  0.39528114178E+02  0.51100000000E-03 0. -1.
        -11    1    3    3    0    0  0.31258568046E+01 -0.10155249452E+01  0.28980133589E+01  0.43818664250E+01  0.51100000000E-03 0.  1.
         12    1    3    3    0    0  0.13021176249E+01  0.49199201215E+00  0.17452109732E+01  0.22323368451E+01  0.00000000000E+00 0. -1.
</event>
<event>
 7    1  0.1486782E-008  0.4614232E+02  0.7816164E-02  0.1320468E+00
        -11   -1    0    0    0    0  0.00000000000E+00  0.00000000000E+00  0.45593999997E+02  0.45594000000E+02  0.51100000000E-03 0. -1.
         11   -1    0    0    0    0 -0.00000000000E+00 -0.00000000000E+00 -0.45593999997E+02  0.45594000000E+02  0.51100000000E-03 0.  1.
    9900012    2    1    2    0    0 -0.30771166894E+02  0.30372077807E+02 -0.12640634963E+02  0.46142317914E+02  0.10000001398E+02 0.  0.
        -12    1    1    2    0    0  0.30771166894E+02 -0.30372077807E+02  0.12640634963E+02  0.45045682086E+02  0.00000000000E+00 0.  1.
         11    1    3    3    0    0 -0.17121591459E+01  0.13697661324E+01 -0.45812764229E+00  0.22400065616E+01  0.51100000000E-03 0. -1.
        -11    1    3    3    0    0 -0.45313699246E+01  0.23314495600E+01 -0.46382643622E+01  0.68907522811E+01  0.51100000000E-03 0.  1.
        -12    1    3    3    0    0 -0.24527637823E+02  0.26670862114E+02 -0.75442429582E+01  0.37011559072E+02  0.00000000000E+00 0.  1.
</event>
<event>
 7    1  0.1486782E-008  0.4614232E+02  0.7816164E-02  0.1320468E+00
        -11   -1    0    0    0    0  0.00000000000E+00  0.00000000000E+00  0.45593999997E+02  0.45594000000E+02  0.51100000000E-03 0.  1.
         11   -1    0    0    0    0 -0.00000000000E+00 -0.00000000000E+00 -0.45593999997E+02  0.45594000000E+02  0.51100000000E-03 0. -1.
    9900012    2    1    2    0    0  0.24047892426E+02  0.13600898573E+02 -0.35578475461E+02  0.46142317762E+02  0.10000000008E+02 0.  0.
        -12    1    1    2    0    0 -0.24047892426E+02 -0.13600898573E+02  0.35578475461E+02  0.45045682238E+02  0.00000000000E+00 0.  1.
         11    1    3    3    0    0  0.77893282826E+01  0.78162684094E+01 -0.98184262450E+01  0.14770551145E+02  0.51100000000E-03 0. -1.
        -11    1    3    3    0    0  0.60804057017E+01  0.33251097374E+01 -0.14027867646E+02  0.15646365688E+02  0.51100000000E-03 0.  1.
         12    1    3    3    0    0  0.10178158442E+02  0.24595204266E+01 -0.11732181570E+02  0.15725400929E+02  0.00000000000E+00 0. -1.
</event>
<event>
 7    1  0.1486782E-008  0.4614232E+02  0.7816164E-02  0.1320468E+00
        -11   -1    0    0    0    0  0.00000000000E+00  0.00000000000E+00  0.45593999997E+02  0.45594000000E+02  0.51100000000E-03 0.  1.
         11   -1    0    0    0    0 -0.00000000000E+00 -0.00000000000E+00 -0.45593999997E+02  0.45594000000E+02  0.51100000000E-03 0. -1.
    9900012    2    1    2    0    0  0.38466942718E+02  0.34513997657E+01 -0.23183956570E+02  0.46142315582E+02  0.99999801290E+01 0.  0.
        -12    1    1    2    0    0 -0.38466942718E+02 -0.34513997657E+01  0.23183956570E+02  0.45045684418E+02  0.00000000000E+00 0.  1.
         11    1    3    3    0    0 -0.23923027305E+00 -0.36847326258E+00 -0.76861083909E+00  0.88530590864E+00  0.51100000000E-03 0. -1.
        -11    1    3    3    0    0  0.17529048045E+02  0.87308772123E+00 -0.13266645910E+02  0.22000765930E+02  0.51100000000E-03 0.  1.
         12    1    3    3    0    0  0.21177124947E+02  0.29467853071E+01 -0.91486998208E+01  0.23256243744E+02  0.00000000000E+00 0. -1.
</event>
<event>
 7    1  0.1486782E-008  0.4614231E+02  0.7816164E-02  0.1320468E+00
        -11   -1    0    0    0    0  0.00000000000E+00  0.00000000000E+00  0.45593999997E+02  0.45594000000E+02  0.51100000000E-03 0. -1.
         11   -1    0    0    0    0 -0.00000000000E+00 -0.00000000000E+00 -0.45593999997E+02  0.45594000000E+02  0.51100000000E-03 0.  1.
    9900012    2    1    2    0    0 -0.23015245167E+02  0.25407070043E+02  0.29221460082E+02  0.46142307114E+02  0.99999029084E+01 0.  0.
        -12    1    1    2    0    0  0.23015245167E+02 -0.25407070043E+02 -0.29221460082E+02  0.45045692886E+02  0.00000000000E+00 0.  1.
         11    1    3    3    0    0 -0.16411668008E+02  0.19116825029E+02  0.19634014039E+02  0.31941984182E+02  0.51100000000E-03 0. -1.
        -11    1    3    3    0    0  0.31281027471E+00  0.18298983143E+01  0.35064026551E+01  0.39675228984E+01  0.51100000000E-03 0.  1.
        -12    1    3    3    0    0 -0.69163874344E+01  0.44603467000E+01  0.60810433881E+01  0.10232800033E+02  0.00000000000E+00 0.  1.
</event>
<event>
 7    1  0.1486782E-008  0.4614232E+02  0.7816164E-02  0.1320468E+00
        -11   -1    0    0    0    0  0.00000000000E+00  0.00000000000E+00  0.45593999997E+02  0.45594000000E+02  0.51100000000E-03 0.  1.
         11   -1    0    0    0    0 -0.00000000000E+00 -0.00000000000E+00 -0.45593999997E+02  0.45594000000E+02  0.51100000000E-03 0. -1.
    9900012    2    1    2    0    0  0.99633058305E+01 -0.43886488356E+02 -0.19550133316E+01  0.46142318737E+02  0.10000008899E+02 0.  0.
        -12    1    1    2    0    0 -0.99633058305E+01  0.43886488356E+02  0.19550133316E+01  0.45045681263E+02  0.00000000000E+00 0.  1.
         11    1    3    3    0    0  0.41094667282E+01 -0.13562098348E+02 -0.34056368514E+01  0.14574518552E+02  0.51100000000E-03 0. -1.
        -11    1    3    3    0    0  0.53360101115E+01 -0.27451374457E+02 -0.64760991872E+00  0.27972671706E+02  0.51100000000E-03 0.  1.
        -12    1    3    3    0    0  0.51782899085E+00 -0.28730155509E+01  0.20982334385E+01  0.35951284792E+01  0.00000000000E+00 0.  1.
</event>
<event>
 7    1  0.1486782E-008  0.4614232E+02  0.7816164E-02  0.1320468E+00
        -11   -1    0    0    0    0  0.00000000000E+00  0.00000000000E+00  0.45593999997E+02  0.45594000000E+02  0.51100000000E-03 0.  1.
         11   -1    0    0    0    0 -0.00000000000E+00 -0.00000000000E+00 -0.45593999997E+02  0.45594000000E+02  0.51100000000E-03 0. -1.
    9900012    2    1    2    0    0  0.22677542954E+02 -0.37233347006E+02 -0.11336684042E+02  0.46142317756E+02  0.99999999571E+01 0.  0.
        -12    1    1    2    0    0 -0.22677542954E+02  0.37233347006E+02  0.11336684042E+02  0.45045682244E+02  0.00000000000E+00 0.  1.
         11    1    3    3    0    0  0.47899948096E+01 -0.13501515987E+02 -0.67973579822E+01  0.15856830075E+02  0.51100000000E-03 0.  1.
        -11    1    3    3    0    0  0.17304051963E+02 -0.21564252641E+02 -0.46550161087E+01  0.28037767057E+02  0.51100000000E-03 0. -1.
         12    1    3    3    0    0  0.58349618186E+00 -0.21675783783E+01  0.11569004889E+00  0.22477206249E+01  0.00000000000E+00 0. -1.
</event>
<event>
 7    1  0.1486782E-008  0.4614232E+02  0.7816164E-02  0.1320468E+00
        -11   -1    0    0    0    0  0.00000000000E+00  0.00000000000E+00  0.45593999997E+02  0.45594000000E+02  0.51100000000E-03 0.  1.
         11   -1    0    0    0    0 -0.00000000000E+00 -0.00000000000E+00 -0.45593999997E+02  0.45594000000E+02  0.51100000000E-03 0. -1.
    9900012    2    1    2    0    0  0.83458981766E+01 -0.48793096301E+01 -0.43996043332E+02  0.46142317546E+02  0.99999980375E+01 0.  0.
        -12    1    1    2    0    0 -0.83458981766E+01  0.48793096301E+01  0.43996043332E+02  0.45045682454E+02  0.00000000000E+00 0.  1.
         11    1    3    3    0    0 -0.82315133342E+00 -0.35578962839E+00 -0.21256076360E+01  0.23070267577E+01  0.51100000000E-03 0. -1.
        -11    1    3    3    0    0  0.11195056785E+01  0.21010556238E+01 -0.10913247422E+02  0.11169901399E+02  0.51100000000E-03 0.  1.
         12    1    3    3    0    0  0.80495438315E+01 -0.66245756256E+01 -0.30957188274E+02  0.32665389390E+02  0.00000000000E+00 0. -1.
</event>
<event>
 7    1  0.1486782E-008  0.4614232E+02  0.7816164E-02  0.1320468E+00
        -11   -1    0    0    0    0  0.00000000000E+00  0.00000000000E+00  0.45593999997E+02  0.45594000000E+02  0.51100000000E-03 0. -1.
         11   -1    0    0    0    0 -0.00000000000E+00 -0.00000000000E+00 -0.45593999997E+02  0.45594000000E+02  0.51100000000E-03 0.  1.
    9900012    2    1    2    0    0  0.18071058674E+02  0.36841397971E+02  0.18581219502E+02  0.46142317807E+02  0.10000000420E+02 0.  0.
        -12    1    1    2    0    0 -0.18071058674E+02 -0.36841397971E+02 -0.18581219502E+02  0.45045682193E+02  0.00000000000E+00 0.  1.
         11    1    3    3    0    0  0.82457944191E+01  0.12920750372E+02  0.95558110525E+01  0.18062459437E+02  0.51100000000E-03 0. -1.
        -11    1    3    3    0    0  0.69874743757E+01  0.16681676211E+02  0.32060111486E+01  0.18367951086E+02  0.51100000000E-03 0.  1.
        -12    1    3    3    0    0  0.28377898795E+01  0.72389713878E+01  0.58193973006E+01  0.97119072841E+01  0.00000000000E+00 0.  1.
</event>
<event>
 7    1  0.1486782E-008  0.4614232E+02  0.7816164E-02  0.1320468E+00
        -11   -1    0    0    0    0  0.00000000000E+00  0.00000000000E+00  0.45593999997E+02  0.45594000000E+02  0.51100000000E-03 0. -1.
         11   -1    0    0    0    0 -0.00000000000E+00 -0.00000000000E+00 -0.45593999997E+02  0.45594000000E+02  0.51100000000E-03 0.  1.
    9900012    2    1    2    0    0 -0.16688369427E+02  0.85733707261E+01  0.40952522909E+02  0.46142317717E+02  0.99999995954E+01 0.  0.
        -12    1    1    2    0    0  0.16688369427E+02 -0.85733707261E+01 -0.40952522909E+02  0.45045682283E+02  0.00000000000E+00 0.  1.
         11    1    3    3    0    0 -0.43493487984E+01  0.51909844782E+01  0.13058621942E+02  0.14710226447E+02  0.51100000000E-03 0. -1.
        -11    1    3    3    0    0 -0.11671737765E+02  0.50110650140E+01  0.23843049254E+02  0.27015388819E+02  0.51100000000E-03 0.  1.
         12    1    3    3    0    0 -0.66728286310E+00 -0.16286787661E+01  0.40508517127E+01  0.44167024510E+01  0.00000000000E+00 0. -1.
</event>
<event>
 7    1  0.1486782E-008  0.4614232E+02  0.7816164E-02  0.1320468E+00
        -11   -1    0    0    0    0  0.00000000000E+00  0.00000000000E+00  0.45593999997E+02  0.45594000000E+02  0.51100000000E-03 0.  1.
         11   -1    0    0    0    0 -0.00000000000E+00 -0.00000000000E+00 -0.45593999997E+02  0.45594000000E+02  0.51100000000E-03 0. -1.
    9900012    2    1    2    0    0  0.36213341090E+02  0.10592692979E+02 -0.24606954795E+02  0.46142318278E+02  0.10000004718E+02 0.  0.
        -12    1    1    2    0    0 -0.36213341090E+02 -0.10592692979E+02  0.24606954795E+02  0.45045681722E+02  0.00000000000E+00 0.  1.
         11    1    3    3    0    0  0.17524757277E+02  0.88161265816E+01 -0.15138206237E+02  0.24779154422E+02  0.51100000000E-03 0. -1.
        -11    1    3    3    0    0  0.15604706632E+01 -0.15064335161E+00  0.23171475179E+00  0.15847567944E+01  0.51100000000E-03 0.  1.
         12    1    3    3    0    0  0.17128113150E+02  0.19272097487E+01 -0.97004633101E+01  0.19778407062E+02  0.00000000000E+00 0. -1.
</event>
<event>
 7    1  0.1486782E-008  0.4614232E+02  0.7816164E-02  0.1320468E+00
        -11   -1    0    0    0    0  0.00000000000E+00  0.00000000000E+00  0.45593999997E+02  0.45594000000E+02  0.51100000000E-03 0.  1.
         11   -1    0    0    0    0 -0.00000000000E+00 -0.00000000000E+00 -0.45593999997E+02  0.45594000000E+02  0.51100000000E-03 0. -1.
    9900012    2    1    2    0    0 -0.57527316410E+01 -0.16677133449E+02 -0.41447467675E+02  0.46142320096E+02  0.10000021287E+02 0.  0.
        -12    1    1    2    0    0  0.57527316410E+01  0.16677133449E+02  0.41447467675E+02  0.45045679904E+02  0.00000000000E+00 0.  1.
         11    1    3    3    0    0 -0.10290299280E+01 -0.83682487707E+00 -0.51141124479E+01  0.52833062431E+01  0.51100000000E-03 0. -1.
        -11    1    3    3    0    0 -0.53914273705E+01 -0.13639874339E+02 -0.22651453587E+02  0.26985218379E+02  0.51100000000E-03 0.  1.
        -12    1    3    3    0    0  0.66772565749E+00 -0.22004342326E+01 -0.13681901640E+02  0.13873795474E+02  0.00000000000E+00 0.  1.
</event>
<event>
 7    1  0.1486782E-008  0.4614233E+02  0.7816164E-02  0.1320468E+00
        -11   -1    0    0    0    0  0.00000000000E+00  0.00000000000E+00  0.45593999997E+02  0.45594000000E+02  0.51100000000E-03 0.  1.
         11   -1    0    0    0    0 -0.00000000000E+00 -0.00000000000E+00 -0.45593999997E+02  0.45594000000E+02  0.51100000000E-03 0. -1.
    9900012    2    1    2    0    0  0.24347540469E+02 -0.23737395090E+02 -0.29543967294E+02  0.46142327000E+02  0.10000084247E+02 0.  0.
        -12    1    1    2    0    0 -0.24347540469E+02  0.23737395090E+02  0.29543967294E+02  0.45045673000E+02  0.00000000000E+00 0.  1.
         11    1    3    3    0    0  0.12193615638E+02 -0.14796574300E+02 -0.17363355442E+02  0.25867141045E+02  0.51100000000E-03 0. -1.
        -11    1    3    3    0    0  0.53864582771E+00 -0.23804622986E+01 -0.38159129272E+01  0.45296723736E+01  0.51100000000E-03 0.  1.
         12    1    3    3    0    0  0.11615279003E+02 -0.65603584917E+01 -0.83646989247E+01  0.15745513582E+02  0.00000000000E+00 0. -1.
</event>
<event>
 7    1  0.1486782E-008  0.4614232E+02  0.7816164E-02  0.1320468E+00
        -11   -1    0    0    0    0  0.00000000000E+00  0.00000000000E+00  0.45593999997E+02  0.45594000000E+02  0.51100000000E-03 0.  1.
         11   -1    0    0    0    0 -0.00000000000E+00 -0.00000000000E+00 -0.45593999997E+02  0.45594000000E+02  0.51100000000E-03 0. -1.
    9900012    2    1    2    0    0 -0.42907095527E+02  0.13676377882E+02 -0.10253491713E+01  0.46142317638E+02  0.99999988784E+01 0.  0.
        -12    1    1    2    0    0  0.42907095527E+02 -0.13676377882E+02  0.10253491713E+01  0.45045682362E+02  0.00000000000E+00 0.  1.
         11    1    3    3    0    0 -0.64176831224E+01  0.30606524227E+01  0.30085393330E+01  0.77204636578E+01  0.51100000000E-03 0. -1.
        -11    1    3    3    0    0 -0.18429566865E+02  0.44432147261E+01 -0.38009054696E+01  0.19334890084E+02  0.51100000000E-03 0.  1.
         12    1    3    3    0    0 -0.18059845540E+02  0.61725107328E+01 -0.23298303469E+00  0.19086963896E+02  0.00000000000E+00 0. -1.
</event>
<event>
 7    1  0.1486782E-008  0.4614232E+02  0.7816164E-02  0.1320468E+00
        -11   -1    0    0    0    0  0.00000000000E+00  0.00000000000E+00  0.45593999997E+02  0.45594000000E+02  0.51100000000E-03 0. -1.
         11   -1    0    0    0    0 -0.00000000000E+00 -0.00000000000E+00 -0.45593999997E+02  0.45594000000E+02  0.51100000000E-03 0.  1.
    9900012    2    1    2    0    0 -0.89560034514E+01  0.24852873026E+02  0.36486139359E+02  0.46142315847E+02  0.99999825458E+01 0.  0.
        -12    1    1    2    0    0  0.89560034514E+01 -0.24852873026E+02 -0.36486139359E+02  0.45045684153E+02  0.00000000000E+00 0.  1.
         11    1    3    3    0    0  0.36024380351E+00  0.81009077188E+01  0.78721706345E+01  0.11301572998E+02  0.51100000000E-03 0.  1.
        -11    1    3    3    0    0 -0.31061473375E+01  0.89004534905E+01  0.10252243723E+02  0.13927480936E+02  0.51100000000E-03 0. -1.
         12    1    3    3    0    0 -0.62100999174E+01  0.78515118172E+01  0.18361725002E+02  0.20913261913E+02  0.00000000000E+00 0. -1.
</event>
<event>
 7    1  0.1486782E-008  0.4614232E+02  0.7816164E-02  0.1320468E+00
        -11   -1    0    0    0    0  0.00000000000E+00  0.00000000000E+00  0.45593999997E+02  0.45594000000E+02  0.51100000000E-03 0. -1.
         11   -1    0    0    0    0 -0.00000000000E+00 -0.00000000000E+00 -0.45593999997E+02  0.45594000000E+02  0.51100000000E-03 0.  1.
    9900012    2    1    2    0    0 -0.21331841936E+02  0.32995581434E+02 -0.22030833120E+02  0.46142317826E+02  0.10000000591E+02 0.  0.
        -12    1    1    2    0    0  0.21331841936E+02 -0.32995581434E+02  0.22030833120E+02  0.45045682174E+02  0.00000000000E+00 0.  1.
         11    1    3    3    0    0 -0.31519026624E+01  0.10295379440E+02 -0.71489643046E+01  0.12924280216E+02  0.51100000000E-03 0. -1.
        -11    1    3    3    0    0 -0.33585303251E+01  0.12485539894E+01 -0.12440707875E+01  0.37929309768E+01  0.51100000000E-03 0.  1.
         12    1    3    3    0    0 -0.14821408948E+02  0.21451648005E+02 -0.13637798028E+02  0.29425106634E+02  0.00000000000E+00 0. -1.
</event>
<event>
 7    1  0.1486782E-008  0.4614232E+02  0.7816164E-02  0.1320468E+00
        -11   -1    0    0    0    0  0.00000000000E+00  0.00000000000E+00  0.45593999997E+02  0.45594000000E+02  0.51100000000E-03 0.  1.
         11   -1    0    0    0    0 -0.00000000000E+00 -0.00000000000E+00 -0.45593999997E+02  0.45594000000E+02  0.51100000000E-03 0. -1.
    9900012    2    1    2    0    0  0.32426963143E+02  0.18496142032E+02 -0.25209091530E+02  0.46142317581E+02  0.99999983601E+01 0.  0.
        -12    1    1    2    0    0 -0.32426963143E+02 -0.18496142032E+02  0.25209091530E+02  0.45045682419E+02  0.00000000000E+00 0.  1.
         11    1    3    3    0    0  0.45691025420E+01  0.91868895800E+00 -0.48547291235E+01  0.67297163806E+01  0.51100000000E-03 0. -1.
        -11    1    3    3    0    0  0.35900244068E-01  0.97997965294E+00  0.25873754420E+00  0.10141963940E+01  0.51100000000E-03 0.  1.
        -12    1    3    3    0    0  0.27821960357E+02  0.16597473421E+02 -0.20613099951E+02  0.38398404807E+02  0.00000000000E+00 0.  1.
</event>
<event>
 7    1  0.1486782E-008  0.4614232E+02  0.7816164E-02  0.1320468E+00
        -11   -1    0    0    0    0  0.00000000000E+00  0.00000000000E+00  0.45593999997E+02  0.45594000000E+02  0.51100000000E-03 0.  1.
         11   -1    0    0    0    0 -0.00000000000E+00 -0.00000000000E+00 -0.45593999997E+02  0.45594000000E+02  0.51100000000E-03 0. -1.
    9900012    2    1    2    0    0 -0.13528103290E+02 -0.14437009531E+02 -0.40468218157E+02  0.46142317592E+02  0.99999984535E+01 0.  0.
        -12    1    1    2    0    0  0.13528103290E+02  0.14437009531E+02  0.40468218157E+02  0.45045682408E+02  0.00000000000E+00 0.  1.
         11    1    3    3    0    0 -0.13626819426E+02 -0.15182170264E+02 -0.36374536370E+02  0.41704860604E+02  0.51100000000E-03 0. -1.
        -11    1    3    3    0    0  0.80458058070E+00  0.56256268971E+00 -0.24460731261E+01  0.26357353225E+01  0.51100000000E-03 0.  1.
         12    1    3    3    0    0 -0.70586444448E+00  0.18259804264E+00 -0.16476086608E+01  0.18017216650E+01  0.00000000000E+00 0. -1.
</event>
<event>
 7    1  0.1486782E-008  0.4614232E+02  0.7816164E-02  0.1320468E+00
        -11   -1    0    0    0    0  0.00000000000E+00  0.00000000000E+00  0.45593999997E+02  0.45594000000E+02  0.51100000000E-03 0. -1.
         11   -1    0    0    0    0 -0.00000000000E+00 -0.00000000000E+00 -0.45593999997E+02  0.45594000000E+02  0.51100000000E-03 0.  1.
    9900012    2    1    2    0    0 -0.33323625006E+02 -0.23930942665E+02 -0.18599982802E+02  0.46142319180E+02  0.10000012936E+02 0.  0.
        -12    1    1    2    0    0  0.33323625006E+02  0.23930942665E+02  0.18599982802E+02  0.45045680820E+02  0.00000000000E+00 0.  1.
         11    1    3    3    0    0 -0.25101344099E+02 -0.19938622334E+02 -0.10324716908E+02  0.33678270675E+02  0.51100000000E-03 0. -1.
        -11    1    3    3    0    0 -0.81321624434E+01 -0.40217128927E+01 -0.77546038080E+01  0.11934828071E+02  0.51100000000E-03 0.  1.
         12    1    3    3    0    0 -0.90118463788E-01  0.29392562439E-01 -0.52066208614E+00  0.52922043440E+00  0.00000000000E+00 0. -1.
</event>
<event>
 7    1  0.1486782E-008  0.4614232E+02  0.7816164E-02  0.1320468E+00
        -11   -1    0    0    0    0  0.00000000000E+00  0.00000000000E+00  0.45593999997E+02  0.45594000000E+02  0.51100000000E-03 0.  1.
         11   -1    0    0    0    0 -0.00000000000E+00 -0.00000000000E+00 -0.45593999997E+02  0.45594000000E+02  0.51100000000E-03 0. -1.
    9900012    2    1    2    0    0  0.20442259275E+02  0.70454909239E+01 -0.39516940475E+02  0.46142317730E+02  0.99999997203E+01 0.  0.
        -12    1    1    2    0    0 -0.20442259275E+02 -0.70454909239E+01  0.39516940475E+02  0.45045682270E+02  0.00000000000E+00 0.  1.
         11    1    3    3    0    0  0.44094424061E+01  0.73006982960E+00 -0.91257379628E+01  0.10161460422E+02  0.51100000000E-03 0. -1.
        -11    1    3    3    0    0  0.98355159511E+01  0.44434997850E+01 -0.26019785973E+02  0.28169333089E+02  0.51100000000E-03 0.  1.
        -12    1    3    3    0    0  0.61973009184E+01  0.18719213093E+01 -0.43714165389E+01  0.78115242186E+01  0.00000000000E+00 0.  1.
</event>
<event>
 7    1  0.1486782E-008  0.4614232E+02  0.7816164E-02  0.1320468E+00
        -11   -1    0    0    0    0  0.00000000000E+00  0.00000000000E+00  0.45593999997E+02  0.45594000000E+02  0.51100000000E-03 0. -1.
         11   -1    0    0    0    0 -0.00000000000E+00 -0.00000000000E+00 -0.45593999997E+02  0.45594000000E+02  0.51100000000E-03 0.  1.
    9900012    2    1    2    0    0  0.44342766830E+01 -0.69150123940E+01  0.44290330178E+02  0.46142317040E+02  0.99999934232E+01 0.  0.
        -12    1    1    2    0    0 -0.44342766830E+01  0.69150123940E+01 -0.44290330178E+02  0.45045682960E+02  0.00000000000E+00 0.  1.
         11    1    3    3    0    0 -0.17411792885E+01 -0.23524527088E+01  0.84591613989E+01  0.89511536070E+01  0.51100000000E-03 0. -1.
        -11    1    3    3    0    0  0.14875127470E+01 -0.47747026176E-01  0.20258842337E+02  0.20313435629E+02  0.51100000000E-03 0.  1.
         12    1    3    3    0    0  0.46879432245E+01 -0.45148126590E+01  0.15572326441E+02  0.16877727804E+02  0.00000000000E+00 0. -1.
</event>
<event>
 7    1  0.1486782E-008  0.4614232E+02  0.7816164E-02  0.1320468E+00
        -11   -1    0    0    0    0  0.00000000000E+00  0.00000000000E+00  0.45593999997E+02  0.45594000000E+02  0.51100000000E-03 0.  1.
         11   -1    0    0    0    0 -0.00000000000E+00 -0.00000000000E+00 -0.45593999997E+02  0.45594000000E+02  0.51100000000E-03 0. -1.
    9900012    2    1    2    0    0 -0.71093028873E+01 -0.73421699233E+01 -0.43870985015E+02  0.46142323483E+02  0.10000052172E+02 0.  0.
        -12    1    1    2    0    0  0.71093028873E+01  0.73421699233E+01  0.43870985015E+02  0.45045676517E+02  0.00000000000E+00 0.  1.
         11    1    3    3    0    0  0.84240432035E-02 -0.36586722244E+01 -0.22599071471E+02  0.22893317476E+02  0.51100000000E-03 0. -1.
        -11    1    3    3    0    0 -0.43044728122E+00 -0.25205377189E+01 -0.67835504997E+01  0.72494794915E+01  0.51100000000E-03 0.  1.
         12    1    3    3    0    0 -0.66872796493E+01 -0.11629599800E+01 -0.14488363044E+02  0.15999526515E+02  0.00000000000E+00 0. -1.
</event>
<event>
 7    1  0.1486782E-008  0.4614232E+02  0.7816164E-02  0.1320468E+00
        -11   -1    0    0    0    0  0.00000000000E+00  0.00000000000E+00  0.45593999997E+02  0.45594000000E+02  0.51100000000E-03 0.  1.
         11   -1    0    0    0    0 -0.00000000000E+00 -0.00000000000E+00 -0.45593999997E+02  0.45594000000E+02  0.51100000000E-03 0. -1.
    9900012    2    1    2    0    0  0.43356706802E+02  0.11507312768E+02 -0.41098783441E+01  0.46142319054E+02  0.10000011792E+02 0.  0.
        -12    1    1    2    0    0 -0.43356706802E+02 -0.11507312768E+02  0.41098783441E+01  0.45045680946E+02  0.00000000000E+00 0.  1.
         11    1    3    3    0    0  0.88157456592E+01  0.20208485224E+01 -0.61033077080E+00  0.90649712735E+01  0.51100000000E-03 0. -1.
        -11    1    3    3    0    0  0.30021253534E+02  0.68277707463E+01 -0.58369055772E+01  0.31336298188E+02  0.51100000000E-03 0.  1.
        -12    1    3    3    0    0  0.45197076088E+01  0.26586934993E+01  0.23373580040E+01  0.57410495932E+01  0.00000000000E+00 0.  1.
</event>
<event>
 7    1  0.1519145E-008  0.4614232E+02  0.7816164E-02  0.1320468E+00
        -11   -1    0    0    0    0  0.00000000000E+00  0.00000000000E+00  0.45593999997E+02  0.45594000000E+02  0.51100000000E-03 0. -1.
         11   -1    0    0    0    0 -0.00000000000E+00 -0.00000000000E+00 -0.45593999997E+02  0.45594000000E+02  0.51100000000E-03 0.  1.
    9900012    2    1    2    0    0  0.58321558774E+01  0.22019811131E+02  0.38861637064E+02  0.46142323629E+02  0.10000053505E+02 0.  0.
        -12    1    1    2    0    0 -0.58321558774E+01 -0.22019811131E+02 -0.38861637064E+02  0.45045676371E+02  0.00000000000E+00 0.  1.
         11    1    3    3    0    0  0.70314042541E+01  0.93621449756E+01  0.16017067077E+02  0.19840283323E+02  0.51100000000E-03 0. -1.
        -11    1    3    3    0    0 -0.13859581352E+01  0.59165496263E+01  0.84717420767E+01  0.10425778317E+02  0.51100000000E-03 0.  1.
         12    1    3    3    0    0  0.18670975841E+00  0.67411165293E+01  0.14372827910E+02  0.15876261989E+02  0.00000000000E+00 0. -1.
</event>
<event>
 7    1  0.1486782E-008  0.4614232E+02  0.7816164E-02  0.1320468E+00
        -11   -1    0    0    0    0  0.00000000000E+00  0.00000000000E+00  0.45593999997E+02  0.45594000000E+02  0.51100000000E-03 0. -1.
         11   -1    0    0    0    0 -0.00000000000E+00 -0.00000000000E+00 -0.45593999997E+02  0.45594000000E+02  0.51100000000E-03 0.  1.
    9900012    2    1    2    0    0  0.35816714858E+02 -0.24589721851E+01  0.27207165343E+02  0.46142318149E+02  0.10000003534E+02 0.  0.
        -12    1    1    2    0    0 -0.35816714858E+02  0.24589721851E+01 -0.27207165343E+02  0.45045681851E+02  0.00000000000E+00 0.  1.
         11    1    3    3    0    0  0.17049507319E+02  0.11134197401E+01  0.10625588238E+02  0.20120351115E+02  0.51100000000E-03 0. -1.
        -11    1    3    3    0    0  0.44055934399E+01  0.67495597938E+00  0.13408149183E+01  0.46543102644E+01  0.51100000000E-03 0.  1.
         12    1    3    3    0    0  0.14361614100E+02 -0.42473479046E+01  0.15240762187E+02  0.21367656769E+02  0.00000000000E+00 0. -1.
</event>
<event>
 7    1  0.1486782E-008  0.4614232E+02  0.7816164E-02  0.1320468E+00
        -11   -1    0    0    0    0  0.00000000000E+00  0.00000000000E+00  0.45593999997E+02  0.45594000000E+02  0.51100000000E-03 0. -1.
         11   -1    0    0    0    0 -0.00000000000E+00 -0.00000000000E+00 -0.45593999997E+02  0.45594000000E+02  0.51100000000E-03 0.  1.
    9900012    2    1    2    0    0  0.78800837415E+00 -0.33433452138E+02  0.30177752962E+02  0.46142318155E+02  0.10000003592E+02 0.  0.
        -12    1    1    2    0    0 -0.78800837415E+00  0.33433452138E+02 -0.30177752962E+02  0.45045681845E+02  0.00000000000E+00 0.  1.
         11    1    3    3    0    0 -0.20831063124E+01 -0.27713343633E+02  0.25083418660E+02  0.37437235998E+02  0.51100000000E-03 0. -1.
        -11    1    3    3    0    0  0.31277651803E+01 -0.30958437342E+01  0.35079626720E+01  0.56278740052E+01  0.51100000000E-03 0.  1.
        -12    1    3    3    0    0 -0.25665049373E+00 -0.26242647708E+01  0.15863716302E+01  0.30772081523E+01  0.00000000000E+00 0.  1.
</event>
<event>
 7    1  0.1486782E-008  0.4614232E+02  0.7816164E-02  0.1320468E+00
        -11   -1    0    0    0    0  0.00000000000E+00  0.00000000000E+00  0.45593999997E+02  0.45594000000E+02  0.51100000000E-03 0. -1.
         11   -1    0    0    0    0 -0.00000000000E+00 -0.00000000000E+00 -0.45593999997E+02  0.45594000000E+02  0.51100000000E-03 0.  1.
    9900012    2    1    2    0    0  0.25688732623E+02  0.16330478307E+02  0.33204184890E+02  0.46142318745E+02  0.10000008972E+02 0.  0.
        -12    1    1    2    0    0 -0.25688732623E+02 -0.16330478307E+02 -0.33204184890E+02  0.45045681255E+02  0.00000000000E+00 0.  1.
         11    1    3    3    0    0  0.20264196999E+02  0.10474996965E+02  0.21006177474E+02  0.31010042466E+02  0.51100000000E-03 0. -1.
        -11    1    3    3    0    0  0.38938666404E+01  0.60368933345E+01  0.11166151556E+02  0.13277395052E+02  0.51100000000E-03 0.  1.
         12    1    3    3    0    0  0.15306689831E+01 -0.18141199255E+00  0.10318558605E+01  0.18548812263E+01  0.00000000000E+00 0. -1.
</event>
<event>
 7    1  0.1486782E-008  0.4614232E+02  0.7816164E-02  0.1320468E+00
        -11   -1    0    0    0    0  0.00000000000E+00  0.00000000000E+00  0.45593999997E+02  0.45594000000E+02  0.51100000000E-03 0.  1.
         11   -1    0    0    0    0 -0.00000000000E+00 -0.00000000000E+00 -0.45593999997E+02  0.45594000000E+02  0.51100000000E-03 0. -1.
    9900012    2    1    2    0    0  0.20786795623E+02 -0.19688037392E+02 -0.34776483853E+02  0.46142317435E+02  0.99999970243E+01 0.  0.
        -12    1    1    2    0    0 -0.20786795623E+02  0.19688037392E+02  0.34776483853E+02  0.45045682565E+02  0.00000000000E+00 0.  1.
         11    1    3    3    0    0  0.75905336174E+01 -0.52783985988E+01 -0.55988975147E+01  0.10808577427E+02  0.51100000000E-03 0. -1.
        -11    1    3    3    0    0  0.11830167099E+01 -0.34293162894E+01 -0.46516932320E+01  0.58989820252E+01  0.51100000000E-03 0.  1.
         12    1    3    3    0    0  0.12013245296E+02 -0.10980322504E+02 -0.24525893106E+02  0.29434757982E+02  0.00000000000E+00 0. -1.
</event>
<event>
 7    1  0.1486782E-008  0.4614232E+02  0.7816164E-02  0.1320468E+00
        -11   -1    0    0    0    0  0.00000000000E+00  0.00000000000E+00  0.45593999997E+02  0.45594000000E+02  0.51100000000E-03 0.  1.
         11   -1    0    0    0    0 -0.00000000000E+00 -0.00000000000E+00 -0.45593999997E+02  0.45594000000E+02  0.51100000000E-03 0. -1.
    9900012    2    1    2    0    0 -0.24352093424E+02 -0.60251673113E+01 -0.37413720291E+02  0.46142316952E+02  0.99999926210E+01 0.  0.
        -12    1    1    2    0    0  0.24352093424E+02  0.60251673113E+01  0.37413720291E+02  0.45045683048E+02  0.00000000000E+00 0.  1.
         11    1    3    3    0    0 -0.51808073117E+00 -0.17254470699E+01 -0.27411134323E+01  0.32801338913E+01  0.51100000000E-03 0. -1.
        -11    1    3    3    0    0 -0.21220954927E+02 -0.50779333056E+01 -0.26970968117E+02  0.34692181484E+02  0.51100000000E-03 0.  1.
        -12    1    3    3    0    0 -0.26130577658E+01  0.77821306406E+00 -0.77016387415E+01  0.81700015768E+01  0.00000000000E+00 0.  1.
</event>
<event>
 7    1  0.1486782E-008  0.4614232E+02  0.7816164E-02  0.1320468E+00
        -11   -1    0    0    0    0  0.00000000000E+00  0.00000000000E+00  0.45593999997E+02  0.45594000000E+02  0.51100000000E-03 0.  1.
         11   -1    0    0    0    0 -0.00000000000E+00 -0.00000000000E+00 -0.45593999997E+02  0.45594000000E+02  0.51100000000E-03 0. -1.
    9900012    2    1    2    0    0  0.44844379853E+01  0.42824032393E+02 -0.13232744679E+02  0.46142318007E+02  0.10000002240E+02 0.  0.
        -12    1    1    2    0    0 -0.44844379853E+01 -0.42824032393E+02  0.13232744679E+02  0.45045681993E+02  0.00000000000E+00 0.  1.
         11    1    3    3    0    0  0.11486786246E+01  0.71614045725E+01  0.10539347259E-02  0.72529428100E+01  0.51100000000E-03 0. -1.
        -11    1    3    3    0    0  0.53000731985E+01  0.25032950244E+02 -0.75609069159E+01  0.26681579554E+02  0.51100000000E-03 0.  1.
         12    1    3    3    0    0 -0.19643138377E+01  0.10629677577E+02 -0.56728916982E+01  0.12207795643E+02  0.00000000000E+00 0. -1.
</event>
<event>
 7    1  0.1486782E-008  0.4614232E+02  0.7816164E-02  0.1320468E+00
        -11   -1    0    0    0    0  0.00000000000E+00  0.00000000000E+00  0.45593999997E+02  0.45594000000E+02  0.51100000000E-03 0. -1.
         11   -1    0    0    0    0 -0.00000000000E+00 -0.00000000000E+00 -0.45593999997E+02  0.45594000000E+02  0.51100000000E-03 0.  1.
    9900012    2    1    2    0    0  0.25353437361E+02  0.33552921196E+02  0.16140576215E+02  0.46142317550E+02  0.99999980792E+01 0.  0.
        -12    1    1    2    0    0 -0.25353437361E+02 -0.33552921196E+02 -0.16140576215E+02  0.45045682450E+02  0.00000000000E+00 0.  1.
         11    1    3    3    0    0  0.15029688929E+02  0.15622549085E+02  0.10449078109E+02  0.24065303297E+02  0.51100000000E-03 0. -1.
        -11    1    3    3    0    0  0.15021535908E+01  0.18550477552E+00  0.36453874215E+00  0.15568449466E+01  0.51100000000E-03 0.  1.
         12    1    3    3    0    0  0.88215948410E+01  0.17744867336E+02  0.53269593640E+01  0.20520169307E+02  0.00000000000E+00 0. -1.
</event>
<event>
 7    1  0.1486782E-008  0.4614232E+02  0.7816164E-02  0.1320468E+00
        -11   -1    0    0    0    0  0.00000000000E+00  0.00000000000E+00  0.45593999997E+02  0.45594000000E+02  0.51100000000E-03 0. -1.
         11   -1    0    0    0    0 -0.00000000000E+00 -0.00000000000E+00 -0.45593999997E+02  0.45594000000E+02  0.51100000000E-03 0.  1.
    9900012    2    1    2    0    0  0.35198199151E+02  0.25567096676E+02  0.11684341491E+02  0.46142317721E+02  0.99999996346E+01 0.  0.
        -12    1    1    2    0    0 -0.35198199151E+02 -0.25567096676E+02 -0.11684341491E+02  0.45045682279E+02  0.00000000000E+00 0.  1.
         11    1    3    3    0    0  0.15708388968E+02  0.11800017365E+02  0.95527787642E+01  0.21846040286E+02  0.51100000000E-03 0. -1.
        -11    1    3    3    0    0  0.16641028535E+02  0.97811995653E+01  0.16318149554E+01  0.19371590434E+02  0.51100000000E-03 0.  1.
        -12    1    3    3    0    0  0.28487816475E+01  0.39858797455E+01  0.49974777090E+00  0.49246870007E+01  0.00000000000E+00 0.  1.
</event>
<event>
 7    1  0.1486782E-008  0.4614232E+02  0.7816164E-02  0.1320468E+00
        -11   -1    0    0    0    0  0.00000000000E+00  0.00000000000E+00  0.45593999997E+02  0.45594000000E+02  0.51100000000E-03 0.  1.
         11   -1    0    0    0    0 -0.00000000000E+00 -0.00000000000E+00 -0.45593999997E+02  0.45594000000E+02  0.51100000000E-03 0. -1.
    9900012    2    1    2    0    0 -0.43808848340E+01  0.27703628763E+02 -0.35248126242E+02  0.46142316499E+02  0.99999884867E+01 0.  0.
        -12    1    1    2    0    0  0.43808848340E+01 -0.27703628763E+02  0.35248126242E+02  0.45045683501E+02  0.00000000000E+00 0.  1.
         11    1    3    3    0    0 -0.48705785157E+01  0.18141729485E+02 -0.17279539341E+02  0.25523075126E+02  0.51100000000E-03 0. -1.
        -11    1    3    3    0    0  0.17152013785E+00  0.42918904973E+01 -0.11460216472E+02  0.12238721545E+02  0.51100000000E-03 0.  1.
         12    1    3    3    0    0  0.31817354383E+00  0.52700087806E+01 -0.65083704291E+01  0.83805198284E+01  0.00000000000E+00 0. -1.
</event>
<event>
 7    1  0.1486782E-008  0.4614232E+02  0.7816164E-02  0.1320468E+00
        -11   -1    0    0    0    0  0.00000000000E+00  0.00000000000E+00  0.45593999997E+02  0.45594000000E+02  0.51100000000E-03 0.  1.
         11   -1    0    0    0    0 -0.00000000000E+00 -0.00000000000E+00 -0.45593999997E+02  0.45594000000E+02  0.51100000000E-03 0. -1.
    9900012    2    1    2    0    0  0.13545907411E+02 -0.21414176740E+02 -0.37243185170E+02  0.46142318580E+02  0.10000007464E+02 0.  0.
        -12    1    1    2    0    0 -0.13545907411E+02  0.21414176740E+02  0.37243185170E+02  0.45045681420E+02  0.00000000000E+00 0.  1.
         11    1    3    3    0    0  0.66624157892E+01 -0.40376762012E+01 -0.75661237070E+01  0.10859872995E+02  0.51100000000E-03 0. -1.
        -11    1    3    3    0    0 -0.23085961778E+00 -0.30490786976E+00 -0.93887676124E-01  0.39380214450E+00  0.51100000000E-03 0.  1.
         12    1    3    3    0    0  0.71143512391E+01 -0.17071592669E+02 -0.29583173787E+02  0.34888643440E+02  0.00000000000E+00 0. -1.
</event>
<event>
 7    1  0.1486782E-008  0.4614232E+02  0.7816164E-02  0.1320468E+00
        -11   -1    0    0    0    0  0.00000000000E+00  0.00000000000E+00  0.45593999997E+02  0.45594000000E+02  0.51100000000E-03 0.  1.
         11   -1    0    0    0    0 -0.00000000000E+00 -0.00000000000E+00 -0.45593999997E+02  0.45594000000E+02  0.51100000000E-03 0. -1.
    9900012    2    1    2    0    0  0.14792675415E+02 -0.42542459676E+02  0.65524403579E+00  0.46142318010E+02  0.10000002271E+02 0.  0.
        -12    1    1    2    0    0 -0.14792675415E+02  0.42542459676E+02 -0.65524403579E+00  0.45045681990E+02  0.00000000000E+00 0.  1.
         11    1    3    3    0    0  0.11810702239E+02 -0.36093237035E+02  0.17237871129E+01  0.38015600604E+02  0.51100000000E-03 0. -1.
        -11    1    3    3    0    0 -0.53929948919E+00 -0.85412016620E-01  0.43712109365E+00  0.69943853430E+00  0.51100000000E-03 0.  1.
         12    1    3    3    0    0  0.35212726648E+01 -0.63638106242E+01 -0.15056641708E+01  0.74272788716E+01  0.00000000000E+00 0. -1.
</event>
<event>
 7    1  0.1486782E-008  0.4614232E+02  0.7816164E-02  0.1320468E+00
        -11   -1    0    0    0    0  0.00000000000E+00  0.00000000000E+00  0.45593999997E+02  0.45594000000E+02  0.51100000000E-03 0.  1.
         11   -1    0    0    0    0 -0.00000000000E+00 -0.00000000000E+00 -0.45593999997E+02  0.45594000000E+02  0.51100000000E-03 0. -1.
    9900012    2    1    2    0    0  0.12661919590E+01  0.10378923452E+02 -0.43815389865E+02  0.46142315600E+02  0.99999802916E+01 0.  0.
        -12    1    1    2    0    0 -0.12661919590E+01 -0.10378923452E+02  0.43815389865E+02  0.45045684400E+02  0.00000000000E+00 0.  1.
         11    1    3    3    0    0  0.45429205186E+01  0.44205332827E+01 -0.28507699254E+02  0.29203906560E+02  0.51100000000E-03 0. -1.
        -11    1    3    3    0    0 -0.14444852873E+01  0.42743313504E+01 -0.75937656547E+01  0.88329906214E+01  0.51100000000E-03 0.  1.
         12    1    3    3    0    0 -0.18322432723E+01  0.16840588191E+01 -0.77139249557E+01  0.81054184184E+01  0.00000000000E+00 0. -1.
</event>
<event>
 7    1  0.1486782E-008  0.4614232E+02  0.7816164E-02  0.1320468E+00
        -11   -1    0    0    0    0  0.00000000000E+00  0.00000000000E+00  0.45593999997E+02  0.45594000000E+02  0.51100000000E-03 0.  1.
         11   -1    0    0    0    0 -0.00000000000E+00 -0.00000000000E+00 -0.45593999997E+02  0.45594000000E+02  0.51100000000E-03 0. -1.
    9900012    2    1    2    0    0 -0.24613749056E+02 -0.27537907896E+02 -0.25786440644E+02  0.46142317244E+02  0.99999952829E+01 0.  0.
        -12    1    1    2    0    0  0.24613749056E+02  0.27537907896E+02  0.25786440644E+02  0.45045682756E+02  0.00000000000E+00 0.  1.
         11    1    3    3    0    0 -0.63402552014E+01 -0.72129539551E+01 -0.10907843421E+02  0.14532948398E+02  0.51100000000E-03 0. -1.
        -11    1    3    3    0    0 -0.18629702893E+02 -0.19769239517E+02 -0.14827215801E+02  0.30947293736E+02  0.51100000000E-03 0.  1.
        -12    1    3    3    0    0  0.35620903838E+00 -0.55571442435E+00 -0.51381422729E-01  0.66207510983E+00  0.00000000000E+00 0.  1.
</event>
<event>
 7    1  0.1486782E-008  0.4614232E+02  0.7816164E-02  0.1320468E+00
        -11   -1    0    0    0    0  0.00000000000E+00  0.00000000000E+00  0.45593999997E+02  0.45594000000E+02  0.51100000000E-03 0.  1.
         11   -1    0    0    0    0 -0.00000000000E+00 -0.00000000000E+00 -0.45593999997E+02  0.45594000000E+02  0.51100000000E-03 0. -1.
    9900012    2    1    2    0    0 -0.32055499739E+02  0.31430192531E+02 -0.37015387638E+01  0.46142318128E+02  0.10000003347E+02 0.  0.
        -12    1    1    2    0    0  0.32055499739E+02 -0.31430192531E+02  0.37015387638E+01  0.45045681872E+02  0.00000000000E+00 0.  1.
         11    1    3    3    0    0 -0.24525143645E+02  0.26730948020E+02 -0.17070883248E+01  0.36317219108E+02  0.51100000000E-03 0. -1.
        -11    1    3    3    0    0 -0.45314985655E+01  0.21635527337E+01 -0.28946205747E+01  0.57960562638E+01  0.51100000000E-03 0.  1.
         12    1    3    3    0    0 -0.29988575281E+01  0.25356917773E+01  0.90017013573E+00  0.40290427569E+01  0.00000000000E+00 0. -1.
</event>
<event>
 7    1  0.1486782E-008  0.4614232E+02  0.7816164E-02  0.1320468E+00
        -11   -1    0    0    0    0  0.00000000000E+00  0.00000000000E+00  0.45593999997E+02  0.45594000000E+02  0.51100000000E-03 0.  1.
         11   -1    0    0    0    0 -0.00000000000E+00 -0.00000000000E+00 -0.45593999997E+02  0.45594000000E+02  0.51100000000E-03 0. -1.
    9900012    2    1    2    0    0 -0.36788104274E+01 -0.35297841656E+02 -0.27742424135E+02  0.46142319090E+02  0.10000012122E+02 0.  0.
        -12    1    1    2    0    0  0.36788104274E+01  0.35297841656E+02  0.27742424135E+02  0.45045680910E+02  0.00000000000E+00 0.  1.
         11    1    3    3    0    0 -0.31751645351E+01 -0.33761540437E+02 -0.22677135331E+02  0.40794310260E+02  0.51100000000E-03 0. -1.
        -11    1    3    3    0    0 -0.38165148091E+00 -0.58668684854E+00 -0.14810233041E+01  0.16380749676E+01  0.51100000000E-03 0.  1.
         12    1    3    3    0    0 -0.12199441132E+00 -0.94961436969E+00 -0.35842655005E+01  0.37099338627E+01  0.00000000000E+00 0. -1.
</event>
<event>
 7    1  0.1486782E-008  0.4614232E+02  0.7816164E-02  0.1320468E+00
        -11   -1    0    0    0    0  0.00000000000E+00  0.00000000000E+00  0.45593999997E+02  0.45594000000E+02  0.51100000000E-03 0.  1.
         11   -1    0    0    0    0 -0.00000000000E+00 -0.00000000000E+00 -0.45593999997E+02  0.45594000000E+02  0.51100000000E-03 0. -1.
    9900012    2    1    2    0    0  0.26089299467E+02  0.36376133126E+02 -0.50238473916E+01  0.46142315961E+02  0.99999835838E+01 0.  0.
        -12    1    1    2    0    0 -0.26089299467E+02 -0.36376133126E+02  0.50238473916E+01  0.45045684039E+02  0.00000000000E+00 0.  1.
         11    1    3    3    0    0  0.14746236336E+02  0.20145587008E+02 -0.65869666778E+01  0.25820230291E+02  0.51100000000E-03 0. -1.
        -11    1    3    3    0    0  0.27753186585E+01  0.62725083845E+01  0.21037127304E+01  0.71744242001E+01  0.51100000000E-03 0.  1.
        -12    1    3    3    0    0  0.85677444731E+01  0.99580377336E+01 -0.54059344419E+00  0.13147661470E+02  0.00000000000E+00 0.  1.
</event>
<event>
 7    1  0.1486782E-008  0.4614232E+02  0.7816164E-02  0.1320468E+00
        -11   -1    0    0    0    0  0.00000000000E+00  0.00000000000E+00  0.45593999997E+02  0.45594000000E+02  0.51100000000E-03 0.  1.
         11   -1    0    0    0    0 -0.00000000000E+00 -0.00000000000E+00 -0.45593999997E+02  0.45594000000E+02  0.51100000000E-03 0. -1.
    9900012    2    1    2    0    0  0.11681991538E+02  0.31128157092E+02 -0.30392143983E+02  0.46142317564E+02  0.99999982053E+01 0.  0.
        -12    1    1    2    0    0 -0.11681991538E+02 -0.31128157092E+02  0.30392143983E+02  0.45045682436E+02  0.00000000000E+00 0.  1.
         11    1    3    3    0    0  0.74542292771E+00  0.38411897607E+00 -0.23661455457E+01  0.25103481300E+01  0.51100000000E-03 0. -1.
        -11    1    3    3    0    0  0.91112248385E+01  0.26115292661E+02 -0.26787576751E+02  0.38504508792E+02  0.51100000000E-03 0.  1.
        -12    1    3    3    0    0  0.18253437715E+01  0.46287454550E+01 -0.12384216860E+01  0.51274606428E+01  0.00000000000E+00 0.  1.
</event>
<event>
 7    1  0.1486782E-008  0.4614232E+02  0.7816164E-02  0.1320468E+00
        -11   -1    0    0    0    0  0.00000000000E+00  0.00000000000E+00  0.45593999997E+02  0.45594000000E+02  0.51100000000E-03 0.  1.
         11   -1    0    0    0    0 -0.00000000000E+00 -0.00000000000E+00 -0.45593999997E+02  0.45594000000E+02  0.51100000000E-03 0. -1.
    9900012    2    1    2    0    0 -0.29891251375E+02 -0.32136806279E+02 -0.10141608150E+02  0.46142318271E+02  0.10000004646E+02 0.  0.
        -12    1    1    2    0    0  0.29891251375E+02  0.32136806279E+02  0.10141608150E+02  0.45045681729E+02  0.00000000000E+00 0.  1.
         11    1    3    3    0    0 -0.11006762747E+02 -0.74139973463E+01 -0.59853665238E+01  0.14558186546E+02  0.51100000000E-03 0. -1.
        -11    1    3    3    0    0 -0.36552108928E+01 -0.57675226068E+01  0.42324081382E+00  0.68413461203E+01  0.51100000000E-03 0.  1.
        -12    1    3    3    0    0 -0.15229277735E+02 -0.18955286326E+02 -0.45794824405E+01  0.24742785604E+02  0.00000000000E+00 0.  1.
</event>
<event>
 7    1  0.1486782E-008  0.4614231E+02  0.7816164E-02  0.1320468E+00
        -11   -1    0    0    0    0  0.00000000000E+00  0.00000000000E+00  0.45593999997E+02  0.45594000000E+02  0.51100000000E-03 0.  1.
         11   -1    0    0    0    0 -0.00000000000E+00 -0.00000000000E+00 -0.45593999997E+02  0.45594000000E+02  0.51100000000E-03 0. -1.
    9900012    2    1    2    0    0 -0.40284190043E+02 -0.15194631350E+02 -0.13244662920E+02  0.46142313357E+02  0.99999598394E+01 0.  0.
        -12    1    1    2    0    0  0.40284190043E+02  0.15194631350E+02  0.13244662920E+02  0.45045686643E+02  0.00000000000E+00 0.  1.
         11    1    3    3    0    0 -0.23677951807E+02 -0.12413134638E+02 -0.90376783936E+01  0.28220753787E+02  0.51100000000E-03 0. -1.
        -11    1    3    3    0    0 -0.27872142871E+01  0.12068417021E+01 -0.78253466431E+00  0.31364615633E+01  0.51100000000E-03 0.  1.
        -12    1    3    3    0    0 -0.13819023948E+02 -0.39883384147E+01 -0.34244498624E+01  0.14785098006E+02  0.00000000000E+00 0.  1.
</event>
<event>
 7    1  0.1486782E-008  0.4614232E+02  0.7816164E-02  0.1320468E+00
        -11   -1    0    0    0    0  0.00000000000E+00  0.00000000000E+00  0.45593999997E+02  0.45594000000E+02  0.51100000000E-03 0.  1.
         11   -1    0    0    0    0 -0.00000000000E+00 -0.00000000000E+00 -0.45593999997E+02  0.45594000000E+02  0.51100000000E-03 0. -1.
    9900012    2    1    2    0    0 -0.10815946762E+02  0.43665090884E+02  0.23427810024E+01  0.46142317753E+02  0.99999999223E+01 0.  0.
        -12    1    1    2    0    0  0.10815946762E+02 -0.43665090884E+02 -0.23427810024E+01  0.45045682247E+02  0.00000000000E+00 0.  1.
         11    1    3    3    0    0 -0.50689636254E+00  0.53003148024E+01 -0.10114487853E+01  0.54197149218E+01  0.51100000000E-03 0. -1.
        -11    1    3    3    0    0 -0.11349661717E+02  0.28725848934E+02  0.23571686135E+01  0.30976530829E+02  0.51100000000E-03 0.  1.
        -12    1    3    3    0    0  0.10406113174E+01  0.96389271478E+01  0.99706117414E+00  0.97460720016E+01  0.00000000000E+00 0.  1.
</event>
<event>
 7    1  0.1486782E-008  0.4614232E+02  0.7816164E-02  0.1320468E+00
        -11   -1    0    0    0    0  0.00000000000E+00  0.00000000000E+00  0.45593999997E+02  0.45594000000E+02  0.51100000000E-03 0. -1.
         11   -1    0    0    0    0 -0.00000000000E+00 -0.00000000000E+00 -0.45593999997E+02  0.45594000000E+02  0.51100000000E-03 0.  1.
    9900012    2    1    2    0    0 -0.13373149784E+02 -0.27791527300E+02  0.32831437773E+02  0.46142318397E+02  0.10000005801E+02 0.  0.
        -12    1    1    2    0    0  0.13373149784E+02  0.27791527300E+02 -0.32831437773E+02  0.45045681603E+02  0.00000000000E+00 0.  1.
         11    1    3    3    0    0 -0.10819542668E+01 -0.43019148400E+01  0.75949182738E+00  0.45004360259E+01  0.51100000000E-03 0. -1.
        -11    1    3    3    0    0 -0.37317698958E+01 -0.87477553187E+01  0.11785808851E+02  0.15144458399E+02  0.51100000000E-03 0.  1.
         12    1    3    3    0    0 -0.85594256219E+01 -0.14741857141E+02  0.20286137095E+02  0.26497423973E+02  0.00000000000E+00 0. -1.
</event>
<event>
 7    1  0.1486782E-008  0.4614233E+02  0.7816164E-02  0.1320468E+00
        -11   -1    0    0    0    0  0.00000000000E+00  0.00000000000E+00  0.45593999997E+02  0.45594000000E+02  0.51100000000E-03 0.  1.
         11   -1    0    0    0    0 -0.00000000000E+00 -0.00000000000E+00 -0.45593999997E+02  0.45594000000E+02  0.51100000000E-03 0. -1.
    9900012    2    1    2    0    0  0.15802326422E+02 -0.21585156938E+02 -0.36241958389E+02  0.46142333524E+02  0.10000143734E+02 0.  0.
        -12    1    1    2    0    0 -0.15802326422E+02  0.21585156938E+02  0.36241958389E+02  0.45045666476E+02  0.00000000000E+00 0.  1.
         11    1    3    3    0    0 -0.79874906601E+00 -0.35328988908E+01 -0.49962656917E+01  0.61710652052E+01  0.51100000000E-03 0. -1.
        -11    1    3    3    0    0  0.14155408351E+01 -0.28278214091E+00 -0.10463555431E+01  0.17828577562E+01  0.51100000000E-03 0.  1.
         12    1    3    3    0    0  0.15185534653E+02 -0.17769475907E+02 -0.30199337155E+02  0.38188410562E+02  0.00000000000E+00 0. -1.
</event>
<event>
 7    1  0.1599043E-008  0.4614232E+02  0.7816164E-02  0.1320468E+00
        -11   -1    0    0    0    0  0.00000000000E+00  0.00000000000E+00  0.45593999997E+02  0.45594000000E+02  0.51100000000E-03 0. -1.
         11   -1    0    0    0    0 -0.00000000000E+00 -0.00000000000E+00 -0.45593999997E+02  0.45594000000E+02  0.51100000000E-03 0.  1.
    9900012    2    1    2    0    0  0.76739462436E+01  0.40170573839E+01  0.44205057998E+02  0.46142319257E+02  0.10000013642E+02 0.  0.
        -12    1    1    2    0    0 -0.76739462436E+01 -0.40170573839E+01 -0.44205057998E+02  0.45045680743E+02  0.00000000000E+00 0.  1.
         11    1    3    3    0    0  0.52553795767E+01  0.28004348465E+01  0.27040661636E+02  0.27688604728E+02  0.51100000000E-03 0. -1.
        -11    1    3    3    0    0 -0.17551264314E+01  0.25772498931E-01  0.19108851920E+01  0.25947284039E+01  0.51100000000E-03 0.  1.
        -12    1    3    3    0    0  0.41736930983E+01  0.11908500385E+01  0.15253511171E+02  0.15858986125E+02  0.00000000000E+00 0.  1.
</event>
<event>
 7    1  0.1486782E-008  0.4614232E+02  0.7816164E-02  0.1320468E+00
        -11   -1    0    0    0    0  0.00000000000E+00  0.00000000000E+00  0.45593999997E+02  0.45594000000E+02  0.51100000000E-03 0.  1.
         11   -1    0    0    0    0 -0.00000000000E+00 -0.00000000000E+00 -0.45593999997E+02  0.45594000000E+02  0.51100000000E-03 0. -1.
    9900012    2    1    2    0    0 -0.14117009939E+02 -0.13372045905E+01 -0.42755531349E+02  0.46142317114E+02  0.99999940988E+01 0.  0.
        -12    1    1    2    0    0  0.14117009939E+02  0.13372045905E+01  0.42755531349E+02  0.45045682886E+02  0.00000000000E+00 0.  1.
         11    1    3    3    0    0 -0.10044618586E+02 -0.49382088158E+00 -0.15478529127E+02  0.18458685917E+02  0.51100000000E-03 0. -1.
        -11    1    3    3    0    0 -0.39758733815E+01 -0.45270167020E+00 -0.26574010609E+02  0.26873603183E+02  0.51100000000E-03 0.  1.
        -12    1    3    3    0    0 -0.96517971424E-01 -0.39068203870E+00 -0.70299161309E+00  0.81002801324E+00  0.00000000000E+00 0.  1.
</event>
<event>
 7    1  0.1486782E-008  0.4614232E+02  0.7816164E-02  0.1320468E+00
        -11   -1    0    0    0    0  0.00000000000E+00  0.00000000000E+00  0.45593999997E+02  0.45594000000E+02  0.51100000000E-03 0. -1.
         11   -1    0    0    0    0 -0.00000000000E+00 -0.00000000000E+00 -0.45593999997E+02  0.45594000000E+02  0.51100000000E-03 0.  1.
    9900012    2    1    2    0    0  0.30601343802E+02 -0.19494583495E+02  0.26695178594E+02  0.46142316651E+02  0.99999898810E+01 0.  0.
        -12    1    1    2    0    0 -0.30601343802E+02  0.19494583495E+02 -0.26695178594E+02  0.45045683349E+02  0.00000000000E+00 0.  1.
         11    1    3    3    0    0  0.21606364683E+02 -0.11338827409E+02  0.21571091618E+02  0.32568635152E+02  0.51100000000E-03 0. -1.
        -11    1    3    3    0    0  0.18347132049E+01 -0.36970857014E+01  0.14709218123E+01  0.43815780795E+01  0.51100000000E-03 0.  1.
         12    1    3    3    0    0  0.71602659141E+01 -0.44586703849E+01  0.36531651645E+01  0.91921034198E+01  0.00000000000E+00 0. -1.
</event>
<event>
 7    1  0.1486782E-008  0.4614232E+02  0.7816164E-02  0.1320468E+00
        -11   -1    0    0    0    0  0.00000000000E+00  0.00000000000E+00  0.45593999997E+02  0.45594000000E+02  0.51100000000E-03 0.  1.
         11   -1    0    0    0    0 -0.00000000000E+00 -0.00000000000E+00 -0.45593999997E+02  0.45594000000E+02  0.51100000000E-03 0. -1.
    9900012    2    1    2    0    0  0.38247287815E+02 -0.16260791138E+02  0.17373689919E+02  0.46142318131E+02  0.10000003371E+02 0.  0.
        -12    1    1    2    0    0 -0.38247287815E+02  0.16260791138E+02 -0.17373689919E+02  0.45045681869E+02  0.00000000000E+00 0.  1.
         11    1    3    3    0    0  0.18904267506E+02 -0.11410069032E+02  0.91193158904E+01  0.23889808032E+02  0.51100000000E-03 0. -1.
        -11    1    3    3    0    0  0.12272353332E+02 -0.35267177591E+01  0.79722674816E+01  0.15053419662E+02  0.51100000000E-03 0.  1.
        -12    1    3    3    0    0  0.70706669770E+01 -0.13240043477E+01  0.28210654730E+00  0.71990904367E+01  0.00000000000E+00 0.  1.
</event>
<event>
 7    1  0.1486782E-008  0.4614232E+02  0.7816164E-02  0.1320468E+00
        -11   -1    0    0    0    0  0.00000000000E+00  0.00000000000E+00  0.45593999997E+02  0.45594000000E+02  0.51100000000E-03 0.  1.
         11   -1    0    0    0    0 -0.00000000000E+00 -0.00000000000E+00 -0.45593999997E+02  0.45594000000E+02  0.51100000000E-03 0. -1.
    9900012    2    1    2    0    0  0.24533900491E+02 -0.37665513586E+02  0.29172417940E+01  0.46142317780E+02  0.10000000168E+02 0.  0.
        -12    1    1    2    0    0 -0.24533900491E+02  0.37665513586E+02 -0.29172417940E+01  0.45045682220E+02  0.00000000000E+00 0.  1.
         11    1    3    3    0    0  0.11272641643E+02 -0.12489844724E+02  0.29368840742E+00  0.16827207849E+02  0.51100000000E-03 0. -1.
        -11    1    3    3    0    0  0.46451793509E+01 -0.93799440388E+01 -0.21808018357E+01  0.10691909945E+02  0.51100000000E-03 0.  1.
        -12    1    3    3    0    0  0.86160794973E+01 -0.15795724823E+02  0.48043552223E+01  0.18623199985E+02  0.00000000000E+00 0.  1.
</event>
<event>
 7    1  0.1486782E-008  0.4614232E+02  0.7816164E-02  0.1320468E+00
        -11   -1    0    0    0    0  0.00000000000E+00  0.00000000000E+00  0.45593999997E+02  0.45594000000E+02  0.51100000000E-03 0.  1.
         11   -1    0    0    0    0 -0.00000000000E+00 -0.00000000000E+00 -0.45593999997E+02  0.45594000000E+02  0.51100000000E-03 0. -1.
    9900012    2    1    2    0    0  0.30803441450E+02  0.25184047099E+02 -0.21119307619E+02  0.46142318878E+02  0.10000010185E+02 0.  0.
        -12    1    1    2    0    0 -0.30803441450E+02 -0.25184047099E+02  0.21119307619E+02  0.45045681122E+02  0.00000000000E+00 0.  1.
         11    1    3    3    0    0  0.28148433263E+02  0.20433786184E+02 -0.17490662387E+02  0.38933240091E+02  0.51100000000E-03 0. -1.
        -11    1    3    3    0    0  0.29587904516E+01  0.50152189025E+01 -0.33350551714E+01  0.67103990071E+01  0.51100000000E-03 0.  1.
        -12    1    3    3    0    0 -0.30378226454E+00 -0.26495798776E+00 -0.29359006056E+00  0.49867978021E+00  0.00000000000E+00 0.  1.
</event>
<event>
 7    1  0.1486782E-008  0.4614232E+02  0.7816164E-02  0.1320468E+00
        -11   -1    0    0    0    0  0.00000000000E+00  0.00000000000E+00  0.45593999997E+02  0.45594000000E+02  0.51100000000E-03 0.  1.
         11   -1    0    0    0    0 -0.00000000000E+00 -0.00000000000E+00 -0.45593999997E+02  0.45594000000E+02  0.51100000000E-03 0. -1.
    9900012    2    1    2    0    0  0.16458841409E+01 -0.95927924221E+01 -0.43981618258E+02  0.46142319345E+02  0.10000014447E+02 0.  0.
        -12    1    1    2    0    0 -0.16458841409E+01  0.95927924221E+01  0.43981618258E+02  0.45045680655E+02  0.00000000000E+00 0.  1.
         11    1    3    3    0    0  0.16521746602E+01 -0.33298852418E+01 -0.87591768686E+01  0.95153032798E+01  0.51100000000E-03 0. -1.
        -11    1    3    3    0    0 -0.37539556288E+01 -0.17988585711E+01 -0.16584847277E+02  0.17099275847E+02  0.51100000000E-03 0.  1.
        -12    1    3    3    0    0  0.37476651095E+01 -0.44640486092E+01 -0.18637594112E+02  0.19527740219E+02  0.00000000000E+00 0.  1.
</event>
<event>
 7    1  0.1486782E-008  0.4614232E+02  0.7816164E-02  0.1320468E+00
        -11   -1    0    0    0    0  0.00000000000E+00  0.00000000000E+00  0.45593999997E+02  0.45594000000E+02  0.51100000000E-03 0.  1.
         11   -1    0    0    0    0 -0.00000000000E+00 -0.00000000000E+00 -0.45593999997E+02  0.45594000000E+02  0.51100000000E-03 0. -1.
    9900012    2    1    2    0    0  0.43685177034E+02 -0.82469206085E+01 -0.72599680022E+01  0.46142317328E+02  0.99999960469E+01 0.  0.
        -12    1    1    2    0    0 -0.43685177034E+02  0.82469206085E+01  0.72599680022E+01  0.45045682672E+02  0.00000000000E+00 0.  1.
         11    1    3    3    0    0  0.22513676498E+02 -0.46709781461E+01 -0.21640327261E+01  0.23094733257E+02  0.51100000000E-03 0. -1.
        -11    1    3    3    0    0  0.56352991866E+01 -0.36865165123E+01 -0.12514922435E+00  0.67351810300E+01  0.51100000000E-03 0.  1.
         12    1    3    3    0    0  0.15536201349E+02  0.11057404986E+00 -0.49707860517E+01  0.16312403041E+02  0.00000000000E+00 0. -1.
</event>
<event>
 7    1  0.1486782E-008  0.4614232E+02  0.7816164E-02  0.1320468E+00
        -11   -1    0    0    0    0  0.00000000000E+00  0.00000000000E+00  0.45593999997E+02  0.45594000000E+02  0.51100000000E-03 0. -1.
         11   -1    0    0    0    0 -0.00000000000E+00 -0.00000000000E+00 -0.45593999997E+02  0.45594000000E+02  0.51100000000E-03 0.  1.
    9900012    2    1    2    0    0  0.12741587383E+02 -0.36213994104E+02  0.23565059237E+02  0.46142318355E+02  0.10000005415E+02 0.  0.
        -12    1    1    2    0    0 -0.12741587383E+02  0.36213994104E+02 -0.23565059237E+02  0.45045681645E+02  0.00000000000E+00 0.  1.
         11    1    3    3    0    0  0.88410136932E+01 -0.24157472180E+02  0.20165992620E+02  0.32686606490E+02  0.51100000000E-03 0. -1.
        -11    1    3    3    0    0  0.31717654171E+01 -0.10813890801E+02  0.39080787451E+01  0.11927841794E+02  0.51100000000E-03 0.  1.
        -12    1    3    3    0    0  0.72880827231E+00 -0.12426311237E+01 -0.50901212808E+00  0.15278700711E+01  0.00000000000E+00 0.  1.
</event>
<event>
 7    1  0.1486782E-008  0.4614232E+02  0.7816164E-02  0.1320468E+00
        -11   -1    0    0    0    0  0.00000000000E+00  0.00000000000E+00  0.45593999997E+02  0.45594000000E+02  0.51100000000E-03 0.  1.
         11   -1    0    0    0    0 -0.00000000000E+00 -0.00000000000E+00 -0.45593999997E+02  0.45594000000E+02  0.51100000000E-03 0. -1.
    9900012    2    1    2    0    0  0.10285635409E+02  0.34165482720E+02 -0.27496162892E+02  0.46142317865E+02  0.10000000945E+02 0.  0.
        -12    1    1    2    0    0 -0.10285635409E+02 -0.34165482720E+02  0.27496162892E+02  0.45045682135E+02  0.00000000000E+00 0.  1.
         11    1    3    3    0    0 -0.74735776371E+00  0.18828252084E+01 -0.24920598214E+01  0.32115318474E+01  0.51100000000E-03 0. -1.
        -11    1    3    3    0    0 -0.68209863939E+00  0.27700344640E+01 -0.68178485647E+00  0.29331178526E+01  0.51100000000E-03 0.  1.
         12    1    3    3    0    0  0.11715091812E+02  0.29512623047E+02 -0.24322318214E+02  0.39997668165E+02  0.00000000000E+00 0. -1.
</event>
<event>
 7    1  0.1486782E-008  0.4614232E+02  0.7816164E-02  0.1320468E+00
        -11   -1    0    0    0    0  0.00000000000E+00  0.00000000000E+00  0.45593999997E+02  0.45594000000E+02  0.51100000000E-03 0.  1.
         11   -1    0    0    0    0 -0.00000000000E+00 -0.00000000000E+00 -0.45593999997E+02  0.45594000000E+02  0.51100000000E-03 0. -1.
    9900012    2    1    2    0    0 -0.29243954697E+02 -0.33484470638E+02 -0.72591154079E+01  0.46142318556E+02  0.10000007249E+02 0.  0.
        -12    1    1    2    0    0  0.29243954697E+02  0.33484470638E+02  0.72591154079E+01  0.45045681444E+02  0.00000000000E+00 0.  1.
         11    1    3    3    0    0 -0.12159673535E+02 -0.14807283838E+02 -0.53495719845E+01  0.19892994641E+02  0.51100000000E-03 0. -1.
        -11    1    3    3    0    0 -0.73057251907E+01 -0.12688847197E+02 -0.20327739072E+01  0.14782172837E+02  0.51100000000E-03 0.  1.
         12    1    3    3    0    0 -0.97785559716E+01 -0.59883396032E+01  0.12323048378E+00  0.11467151078E+02  0.00000000000E+00 0. -1.
</event>
<event>
 7    1  0.1486782E-008  0.4614231E+02  0.7816164E-02  0.1320468E+00
        -11   -1    0    0    0    0  0.00000000000E+00  0.00000000000E+00  0.45593999997E+02  0.45594000000E+02  0.51100000000E-03 0. -1.
         11   -1    0    0    0    0 -0.00000000000E+00 -0.00000000000E+00 -0.45593999997E+02  0.45594000000E+02  0.51100000000E-03 0.  1.
    9900012    2    1    2    0    0  0.91353810441E+01  0.26019103812E+02  0.35618327256E+02  0.46142310012E+02  0.99999293345E+01 0.  0.
        -12    1    1    2    0    0 -0.91353810441E+01 -0.26019103812E+02 -0.35618327256E+02  0.45045689988E+02  0.00000000000E+00 0.  1.
         11    1    3    3    0    0 -0.56364202445E+00  0.10654411706E+02  0.11429623813E+02  0.15635551858E+02  0.51100000000E-03 0. -1.
        -11    1    3    3    0    0  0.42867878996E+01  0.81709966334E+01  0.15224768813E+02  0.17802677387E+02  0.51100000000E-03 0.  1.
        -12    1    3    3    0    0  0.54122351689E+01  0.71936954720E+01  0.89639346312E+01  0.12704080767E+02  0.00000000000E+00 0.  1.
</event>
<event>
 7    1  0.1486782E-008  0.4614232E+02  0.7816164E-02  0.1320468E+00
        -11   -1    0    0    0    0  0.00000000000E+00  0.00000000000E+00  0.45593999997E+02  0.45594000000E+02  0.51100000000E-03 0. -1.
         11   -1    0    0    0    0 -0.00000000000E+00 -0.00000000000E+00 -0.45593999997E+02  0.45594000000E+02  0.51100000000E-03 0.  1.
    9900012    2    1    2    0    0  0.39138516714E+02  0.22297906222E+02 -0.30546045791E+00  0.46142318536E+02  0.10000007063E+02 0.  0.
        -12    1    1    2    0    0 -0.39138516714E+02 -0.22297906222E+02  0.30546045791E+00  0.45045681464E+02  0.00000000000E+00 0.  1.
         11    1    3    3    0    0  0.15325646258E+02  0.84984557695E+01  0.29639194805E+01  0.17773125855E+02  0.51100000000E-03 0. -1.
        -11    1    3    3    0    0  0.61868659267E+01  0.65703762047E+01  0.85329360639E-01  0.90252110683E+01  0.51100000000E-03 0.  1.
         12    1    3    3    0    0  0.17626004529E+02  0.72290742481E+01 -0.33547092991E+01  0.19343981613E+02  0.00000000000E+00 0. -1.
</event>
<event>
 7    1  0.1486782E-008  0.4614232E+02  0.7816164E-02  0.1320468E+00
        -11   -1    0    0    0    0  0.00000000000E+00  0.00000000000E+00  0.45593999997E+02  0.45594000000E+02  0.51100000000E-03 0. -1.
         11   -1    0    0    0    0 -0.00000000000E+00 -0.00000000000E+00 -0.45593999997E+02  0.45594000000E+02  0.51100000000E-03 0.  1.
    9900012    2    1    2    0    0 -0.40770913708E+02  0.10844468257E+02  0.15787448464E+02  0.46142318460E+02  0.10000006375E+02 0.  0.
        -12    1    1    2    0    0  0.40770913708E+02 -0.10844468257E+02 -0.15787448464E+02  0.45045681540E+02  0.00000000000E+00 0.  1.
         11    1    3    3    0    0 -0.13155057736E+02  0.10092010561E+01  0.50936478021E+01  0.14142817223E+02  0.51100000000E-03 0. -1.
        -11    1    3    3    0    0 -0.11595994220E+01  0.57059917427E+00  0.24680764760E+01  0.27859748724E+01  0.51100000000E-03 0.  1.
        -12    1    3    3    0    0 -0.26456256550E+02  0.92646680262E+01  0.82257241856E+01  0.29213526365E+02  0.00000000000E+00 0.  1.
</event>
<event>
 7    1  0.1486782E-008  0.4614232E+02  0.7816164E-02  0.1320468E+00
        -11   -1    0    0    0    0  0.00000000000E+00  0.00000000000E+00  0.45593999997E+02  0.45594000000E+02  0.51100000000E-03 0.  1.
         11   -1    0    0    0    0 -0.00000000000E+00 -0.00000000000E+00 -0.45593999997E+02  0.45594000000E+02  0.51100000000E-03 0. -1.
    9900012    2    1    2    0    0  0.22305171718E+02  0.23955775315E+02 -0.30946946056E+02  0.46142319557E+02  0.10000016379E+02 0.  0.
        -12    1    1    2    0    0 -0.22305171718E+02 -0.23955775315E+02  0.30946946056E+02  0.45045680443E+02  0.00000000000E+00 0.  1.
         11    1    3    3    0    0  0.53383800383E+01  0.75794293582E+01 -0.99206491565E+01  0.13578119560E+02  0.51100000000E-03 0. -1.
        -11    1    3    3    0    0  0.11035781870E+02  0.13220977379E+02 -0.18779241758E+02  0.25480240297E+02  0.51100000000E-03 0.  1.
        -12    1    3    3    0    0  0.59310098097E+01  0.31553685786E+01 -0.22470551419E+01  0.70839597007E+01  0.00000000000E+00 0.  1.
</event>
<event>
 7    1  0.1486782E-008  0.4614232E+02  0.7816164E-02  0.1320468E+00
        -11   -1    0    0    0    0  0.00000000000E+00  0.00000000000E+00  0.45593999997E+02  0.45594000000E+02  0.51100000000E-03 0. -1.
         11   -1    0    0    0    0 -0.00000000000E+00 -0.00000000000E+00 -0.45593999997E+02  0.45594000000E+02  0.51100000000E-03 0.  1.
    9900012    2    1    2    0    0  0.44665404190E+01 -0.44792022311E+02 -0.16846908417E+01  0.46142318417E+02  0.10000005980E+02 0.  0.
        -12    1    1    2    0    0 -0.44665404190E+01  0.44792022311E+02  0.16846908417E+01  0.45045681583E+02  0.00000000000E+00 0.  1.
         11    1    3    3    0    0  0.43804203538E+01 -0.15955244796E+02  0.47181615817E+00  0.16552357226E+02  0.51100000000E-03 0. -1.
        -11    1    3    3    0    0  0.56538095426E+00 -0.21863173732E+02  0.10583122759E+01  0.21896073767E+02  0.51100000000E-03 0.  1.
        -12    1    3    3    0    0 -0.47926088907E+00 -0.69736037829E+01 -0.32148192757E+01  0.76938874242E+01  0.00000000000E+00 0.  1.
</event>
<event>
 7    1  0.1486782E-008  0.4614232E+02  0.7816164E-02  0.1320468E+00
        -11   -1    0    0    0    0  0.00000000000E+00  0.00000000000E+00  0.45593999997E+02  0.45594000000E+02  0.51100000000E-03 0.  1.
         11   -1    0    0    0    0 -0.00000000000E+00 -0.00000000000E+00 -0.45593999997E+02  0.45594000000E+02  0.51100000000E-03 0. -1.
    9900012    2    1    2    0    0  0.66056258550E+01 -0.32475252941E+02 -0.30509624188E+02  0.46142317470E+02  0.99999973453E+01 0.  0.
        -12    1    1    2    0    0 -0.66056258550E+01  0.32475252941E+02  0.30509624188E+02  0.45045682530E+02  0.00000000000E+00 0.  1.
         11    1    3    3    0    0  0.27837025691E+01 -0.19840503069E+01 -0.27159329838E+01  0.43659761620E+01  0.51100000000E-03 0.  1.
        -11    1    3    3    0    0  0.28436736025E+01 -0.29728513896E+02 -0.26005041393E+02  0.39599661566E+02  0.51100000000E-03 0. -1.
         12    1    3    3    0    0  0.97824968340E+00 -0.76268873850E+00 -0.17886498105E+01  0.21766797421E+01  0.00000000000E+00 0. -1.
</event>
<event>
 7    1  0.1486782E-008  0.4614232E+02  0.7816164E-02  0.1320468E+00
        -11   -1    0    0    0    0  0.00000000000E+00  0.00000000000E+00  0.45593999997E+02  0.45594000000E+02  0.51100000000E-03 0. -1.
         11   -1    0    0    0    0 -0.00000000000E+00 -0.00000000000E+00 -0.45593999997E+02  0.45594000000E+02  0.51100000000E-03 0.  1.
    9900012    2    1    2    0    0 -0.22918163043E+02  0.36156254253E+02  0.14021290852E+02  0.46142317455E+02  0.99999972060E+01 0.  0.
        -12    1    1    2    0    0  0.22918163043E+02 -0.36156254253E+02 -0.14021290852E+02  0.45045682545E+02  0.00000000000E+00 0.  1.
         11    1    3    3    0    0 -0.47714922290E+01  0.56428801864E+01 -0.10794171574E+01  0.74682244577E+01  0.51100000000E-03 0.  1.
        -11    1    3    3    0    0 -0.15995065282E+02  0.27971556267E+02  0.13057523528E+02  0.34767067670E+02  0.51100000000E-03 0. -1.
        -12    1    3    3    0    0 -0.21516055317E+01  0.25418177989E+01  0.20431844809E+01  0.39070253275E+01  0.00000000000E+00 0.  1.
</event>
<event>
 7    1  0.1486782E-008  0.4614230E+02  0.7816164E-02  0.1320468E+00
        -11   -1    0    0    0    0  0.00000000000E+00  0.00000000000E+00  0.45593999997E+02  0.45594000000E+02  0.51100000000E-03 0.  1.
         11   -1    0    0    0    0 -0.00000000000E+00 -0.00000000000E+00 -0.45593999997E+02  0.45594000000E+02  0.51100000000E-03 0. -1.
    9900012    2    1    2    0    0  0.35435280896E+02 -0.67629911914E+01 -0.26976239329E+02  0.46142304641E+02  0.99998803584E+01 0.  0.
        -12    1    1    2    0    0 -0.35435280896E+02  0.67629911914E+01  0.26976239329E+02  0.45045695359E+02  0.00000000000E+00 0.  1.
         11    1    3    3    0    0  0.13507860452E+02 -0.68887790294E+01 -0.97329923523E+01  0.18018010736E+02  0.51100000000E-03 0. -1.
        -11    1    3    3    0    0  0.89174714736E+01  0.15381572828E+01 -0.58694957684E+01  0.10786019013E+02  0.51100000000E-03 0.  1.
         12    1    3    3    0    0  0.13009948971E+02 -0.14123694448E+01 -0.11373751208E+02  0.17338274892E+02  0.00000000000E+00 0. -1.
</event>
<event>
 7    1  0.1486782E-008  0.4614231E+02  0.7816164E-02  0.1320468E+00
        -11   -1    0    0    0    0  0.00000000000E+00  0.00000000000E+00  0.45593999997E+02  0.45594000000E+02  0.51100000000E-03 0.  1.
         11   -1    0    0    0    0 -0.00000000000E+00 -0.00000000000E+00 -0.45593999997E+02  0.45594000000E+02  0.51100000000E-03 0. -1.
    9900012    2    1    2    0    0  0.30063470794E+02 -0.23589140960E+02 -0.23850667658E+02  0.46142309916E+02  0.99999284635E+01 0.  0.
        -12    1    1    2    0    0 -0.30063470794E+02  0.23589140960E+02  0.23850667658E+02  0.45045690084E+02  0.00000000000E+00 0.  1.
         11    1    3    3    0    0  0.22115039334E+02 -0.15432530105E+02 -0.13899693730E+02  0.30338744803E+02  0.51100000000E-03 0. -1.
        -11    1    3    3    0    0  0.27580297480E+01 -0.44771084073E+01 -0.70910198341E+01  0.88280116861E+01  0.51100000000E-03 0.  1.
        -12    1    3    3    0    0  0.51904017115E+01 -0.36795024477E+01 -0.28599540941E+01  0.69755534267E+01  0.00000000000E+00 0.  1.
</event>
<event>
 7    1  0.1486782E-008  0.4614232E+02  0.7816164E-02  0.1320468E+00
        -11   -1    0    0    0    0  0.00000000000E+00  0.00000000000E+00  0.45593999997E+02  0.45594000000E+02  0.51100000000E-03 0. -1.
         11   -1    0    0    0    0 -0.00000000000E+00 -0.00000000000E+00 -0.45593999997E+02  0.45594000000E+02  0.51100000000E-03 0.  1.
    9900012    2    1    2    0    0  0.15846100915E+02  0.41940371990E+02  0.43611729794E+01  0.46142317114E+02  0.99999941020E+01 0.  0.
        -12    1    1    2    0    0 -0.15846100915E+02 -0.41940371990E+02 -0.43611729794E+01  0.45045682886E+02  0.00000000000E+00 0.  1.
         11    1    3    3    0    0  0.11615809703E+02  0.25087839819E+02 -0.12248629131E+01  0.27673580022E+02  0.51100000000E-03 0. -1.
        -11    1    3    3    0    0  0.49557612614E+00  0.73331104756E+01  0.28514740011E+01  0.78835911351E+01  0.51100000000E-03 0.  1.
         12    1    3    3    0    0  0.37347150854E+01  0.95194216958E+01  0.27345618914E+01  0.10585145957E+02  0.00000000000E+00 0. -1.
</event>
<event>
 7    1  0.1486782E-008  0.4614232E+02  0.7816164E-02  0.1320468E+00
        -11   -1    0    0    0    0  0.00000000000E+00  0.00000000000E+00  0.45593999997E+02  0.45594000000E+02  0.51100000000E-03 0.  1.
         11   -1    0    0    0    0 -0.00000000000E+00 -0.00000000000E+00 -0.45593999997E+02  0.45594000000E+02  0.51100000000E-03 0. -1.
    9900012    2    1    2    0    0 -0.15568775468E+02 -0.36489690352E+02 -0.21336099098E+02  0.46142318784E+02  0.10000009323E+02 0.  0.
        -12    1    1    2    0    0  0.15568775468E+02  0.36489690352E+02  0.21336099098E+02  0.45045681216E+02  0.00000000000E+00 0.  1.
         11    1    3    3    0    0 -0.31424237792E+01 -0.59807668981E+01 -0.16003712952E+01  0.69430244448E+01  0.51100000000E-03 0. -1.
        -11    1    3    3    0    0 -0.43926863733E+01 -0.15312010321E+02 -0.13605982916E+02  0.20949370516E+02  0.51100000000E-03 0.  1.
         12    1    3    3    0    0 -0.80336653151E+01 -0.15196913133E+02 -0.61297448871E+01  0.18249923823E+02  0.00000000000E+00 0. -1.
</event>
<event>
 7    1  0.1486782E-008  0.4614232E+02  0.7816164E-02  0.1320468E+00
        -11   -1    0    0    0    0  0.00000000000E+00  0.00000000000E+00  0.45593999997E+02  0.45594000000E+02  0.51100000000E-03 0.  1.
         11   -1    0    0    0    0 -0.00000000000E+00 -0.00000000000E+00 -0.45593999997E+02  0.45594000000E+02  0.51100000000E-03 0. -1.
    9900012    2    1    2    0    0  0.30305250694E+02 -0.28016010954E+02  0.18050163257E+02  0.46142317820E+02  0.10000000540E+02 0.  0.
        -12    1    1    2    0    0 -0.30305250694E+02  0.28016010954E+02 -0.18050163257E+02  0.45045682180E+02  0.00000000000E+00 0.  1.
         11    1    3    3    0    0  0.14772147000E+02 -0.13816700116E+02  0.12416753041E+02  0.23733800484E+02  0.51100000000E-03 0. -1.
        -11    1    3    3    0    0  0.98008387833E+01 -0.57335782983E+01  0.18361637687E+01  0.11502254501E+02  0.51100000000E-03 0.  1.
        -12    1    3    3    0    0  0.57322649107E+01 -0.84657325399E+01  0.37972464476E+01  0.10906262835E+02  0.00000000000E+00 0.  1.
</event>
<event>
 7    1  0.1486782E-008  0.4614232E+02  0.7816164E-02  0.1320468E+00
        -11   -1    0    0    0    0  0.00000000000E+00  0.00000000000E+00  0.45593999997E+02  0.45594000000E+02  0.51100000000E-03 0.  1.
         11   -1    0    0    0    0 -0.00000000000E+00 -0.00000000000E+00 -0.45593999997E+02  0.45594000000E+02  0.51100000000E-03 0. -1.
    9900012    2    1    2    0    0 -0.46240962051E+00  0.31956584321E+02 -0.31743919416E+02  0.46142317365E+02  0.99999963882E+01 0.  0.
        -12    1    1    2    0    0  0.46240962051E+00 -0.31956584321E+02  0.31743919416E+02  0.45045682635E+02  0.00000000000E+00 0.  1.
         11    1    3    3    0    0 -0.16158452197E+01  0.15949570693E+02 -0.21598636130E+02  0.26897971002E+02  0.51100000000E-03 0. -1.
        -11    1    3    3    0    0  0.21136557967E+01  0.10894593487E+02 -0.76201236730E+01  0.13462020395E+02  0.51100000000E-03 0.  1.
        -12    1    3    3    0    0 -0.96022019744E+00  0.51124201412E+01 -0.25251596134E+01  0.57823259681E+01  0.00000000000E+00 0.  1.
</event>
<event>
 7    1  0.1486782E-008  0.4614231E+02  0.7816164E-02  0.1320468E+00
        -11   -1    0    0    0    0  0.00000000000E+00  0.00000000000E+00  0.45593999997E+02  0.45594000000E+02  0.51100000000E-03 0.  1.
         11   -1    0    0    0    0 -0.00000000000E+00 -0.00000000000E+00 -0.45593999997E+02  0.45594000000E+02  0.51100000000E-03 0. -1.
    9900012    2    1    2    0    0 -0.20299265526E+02  0.29427553628E+02 -0.27405706817E+02  0.46142313641E+02  0.99999624259E+01 0.  0.
        -12    1    1    2    0    0  0.20299265526E+02 -0.29427553628E+02  0.27405706817E+02  0.45045686359E+02  0.00000000000E+00 0.  1.
         11    1    3    3    0    0 -0.25661437109E+01  0.64503971436E+01 -0.48083702503E+01  0.84447108642E+01  0.51100000000E-03 0. -1.
        -11    1    3    3    0    0 -0.24377596968E+01  0.49987433890E+00 -0.41609379169E+01  0.48482936486E+01  0.51100000000E-03 0.  1.
        -12    1    3    3    0    0 -0.15295362119E+02  0.22477282145E+02 -0.18436398650E+02  0.32849309128E+02  0.00000000000E+00 0.  1.
</event>
<event>
 7    1  0.1486782E-008  0.4614232E+02  0.7816164E-02  0.1320468E+00
        -11   -1    0    0    0    0  0.00000000000E+00  0.00000000000E+00  0.45593999997E+02  0.45594000000E+02  0.51100000000E-03 0. -1.
         11   -1    0    0    0    0 -0.00000000000E+00 -0.00000000000E+00 -0.45593999997E+02  0.45594000000E+02  0.51100000000E-03 0.  1.
    9900012    2    1    2    0    0  0.15309003788E+02  0.19024876063E+02  0.37852370236E+02  0.46142318312E+02  0.10000005027E+02 0.  0.
        -12    1    1    2    0    0 -0.15309003788E+02 -0.19024876063E+02 -0.37852370236E+02  0.45045681688E+02  0.00000000000E+00 0.  1.
         11    1    3    3    0    0  0.76021780645E+01  0.12936739133E+02  0.23046972548E+02  0.27501186785E+02  0.51100000000E-03 0. -1.
        -11    1    3    3    0    0  0.26536440386E+01 -0.72773623133E+00  0.46982736869E+01  0.54447408207E+01  0.51100000000E-03 0.  1.
         12    1    3    3    0    0  0.50531816849E+01  0.68158731612E+01  0.10107124002E+02  0.13196390706E+02  0.00000000000E+00 0. -1.
</event>
<event>
 7    1  0.1486782E-008  0.4614232E+02  0.7816164E-02  0.1320468E+00
        -11   -1    0    0    0    0  0.00000000000E+00  0.00000000000E+00  0.45593999997E+02  0.45594000000E+02  0.51100000000E-03 0. -1.
         11   -1    0    0    0    0 -0.00000000000E+00 -0.00000000000E+00 -0.45593999997E+02  0.45594000000E+02  0.51100000000E-03 0.  1.
    9900012    2    1    2    0    0 -0.29616446288E+02 -0.24297059374E+02  0.23698789319E+02  0.46142316521E+02  0.99999886871E+01 0.  0.
        -12    1    1    2    0    0  0.29616446288E+02  0.24297059374E+02 -0.23698789319E+02  0.45045683479E+02  0.00000000000E+00 0.  1.
         11    1    3    3    0    0 -0.18893288615E+02 -0.12376563169E+02  0.16865088637E+02  0.28188062820E+02  0.51100000000E-03 0. -1.
        -11    1    3    3    0    0 -0.37218809990E+01 -0.64194015499E+01  0.14854351287E+01  0.75675380549E+01  0.51100000000E-03 0.  1.
        -12    1    3    3    0    0 -0.70012766734E+01 -0.55010946554E+01  0.53482655537E+01  0.10386715645E+02  0.00000000000E+00 0.  1.
</event>
<event>
 7    1  0.1486782E-008  0.4614232E+02  0.7816164E-02  0.1320468E+00
        -11   -1    0    0    0    0  0.00000000000E+00  0.00000000000E+00  0.45593999997E+02  0.45594000000E+02  0.51100000000E-03 0.  1.
         11   -1    0    0    0    0 -0.00000000000E+00 -0.00000000000E+00 -0.45593999997E+02  0.45594000000E+02  0.51100000000E-03 0. -1.
    9900012    2    1    2    0    0  0.31238622933E+02  0.30577499821E+02  0.10875589925E+02  0.46142317474E+02  0.99999973780E+01 0.  0.
        -12    1    1    2    0    0 -0.31238622933E+02 -0.30577499821E+02 -0.10875589925E+02  0.45045682526E+02  0.00000000000E+00 0.  1.
         11    1    3    3    0    0  0.19772123542E+02  0.19613108949E+02  0.37729737788E+01  0.28104203305E+02  0.51100000000E-03 0. -1.
        -11    1    3    3    0    0  0.56838049328E+00  0.29165498633E+01  0.18942715842E+01  0.35238593312E+01  0.51100000000E-03 0.  1.
         12    1    3    3    0    0  0.10898118898E+02  0.80478410087E+01  0.52083445622E+01  0.14514254837E+02  0.00000000000E+00 0. -1.
</event>
<event>
 7    1  0.1486782E-008  0.4614232E+02  0.7816164E-02  0.1320468E+00
        -11   -1    0    0    0    0  0.00000000000E+00  0.00000000000E+00  0.45593999997E+02  0.45594000000E+02  0.51100000000E-03 0.  1.
         11   -1    0    0    0    0 -0.00000000000E+00 -0.00000000000E+00 -0.45593999997E+02  0.45594000000E+02  0.51100000000E-03 0. -1.
    9900012    2    1    2    0    0  0.10544730321E+02 -0.40539923658E+02 -0.16566127807E+02  0.46142319428E+02  0.10000015198E+02 0.  0.
        -12    1    1    2    0    0 -0.10544730321E+02  0.40539923658E+02  0.16566127807E+02  0.45045680572E+02  0.00000000000E+00 0.  1.
         11    1    3    3    0    0  0.75345771006E+01 -0.18194192747E+02 -0.11110569742E+02  0.22610689111E+02  0.51100000000E-03 0. -1.
        -11    1    3    3    0    0  0.31918245133E+01 -0.22440358632E+02 -0.53087359860E+01  0.23279607327E+02  0.51100000000E-03 0.  1.
         12    1    3    3    0    0 -0.18167129297E+00  0.94627722282E-01 -0.14682207918E+00  0.25202298992E+00  0.00000000000E+00 0. -1.
</event>
<event>
 7    1  0.1486782E-008  0.4614232E+02  0.7816164E-02  0.1320468E+00
        -11   -1    0    0    0    0  0.00000000000E+00  0.00000000000E+00  0.45593999997E+02  0.45594000000E+02  0.51100000000E-03 0.  1.
         11   -1    0    0    0    0 -0.00000000000E+00 -0.00000000000E+00 -0.45593999997E+02  0.45594000000E+02  0.51100000000E-03 0. -1.
    9900012    2    1    2    0    0 -0.13021003541E+02  0.19301244128E+02 -0.38562015107E+02  0.46142316886E+02  0.99999920205E+01 0.  0.
        -12    1    1    2    0    0  0.13021003541E+02 -0.19301244128E+02  0.38562015107E+02  0.45045683114E+02  0.00000000000E+00 0.  1.
         11    1    3    3    0    0  0.13365930105E+00 -0.63397770173E+00 -0.13062841087E+00  0.66095126741E+00  0.51100000000E-03 0. -1.
        -11    1    3    3    0    0 -0.13374223398E+00  0.17236118451E+01 -0.45915829002E+01  0.49062570834E+01  0.51100000000E-03 0.  1.
         12    1    3    3    0    0 -0.13020920608E+02  0.18211609984E+02 -0.33839803796E+02  0.40575108535E+02  0.00000000000E+00 0. -1.
</event>
<event>
 7    1  0.1486782E-008  0.4614231E+02  0.7816164E-02  0.1320468E+00
        -11   -1    0    0    0    0  0.00000000000E+00  0.00000000000E+00  0.45593999997E+02  0.45594000000E+02  0.51100000000E-03 0.  1.
         11   -1    0    0    0    0 -0.00000000000E+00 -0.00000000000E+00 -0.45593999997E+02  0.45594000000E+02  0.51100000000E-03 0. -1.
    9900012    2    1    2    0    0 -0.10704673430E+02  0.71027904469E+01 -0.43174925825E+02  0.46142313354E+02  0.99999598160E+01 0.  0.
        -12    1    1    2    0    0  0.10704673430E+02 -0.71027904469E+01  0.43174925825E+02  0.45045686646E+02  0.00000000000E+00 0.  1.
         11    1    3    3    0    0 -0.59827623044E+00  0.31782689645E+01 -0.17384577755E+02  0.17682841175E+02  0.51100000000E-03 0. -1.
        -11    1    3    3    0    0 -0.11547471334E+01  0.27754912212E+01 -0.66734677829E+01  0.73192871902E+01  0.51100000000E-03 0.  1.
         12    1    3    3    0    0 -0.89516500658E+01  0.11490302612E+01 -0.19116880287E+02  0.21140184989E+02  0.00000000000E+00 0. -1.
</event>
<event>
 7    1  0.1486782E-008  0.4614232E+02  0.7816164E-02  0.1320468E+00
        -11   -1    0    0    0    0  0.00000000000E+00  0.00000000000E+00  0.45593999997E+02  0.45594000000E+02  0.51100000000E-03 0.  1.
         11   -1    0    0    0    0 -0.00000000000E+00 -0.00000000000E+00 -0.45593999997E+02  0.45594000000E+02  0.51100000000E-03 0. -1.
    9900012    2    1    2    0    0  0.32566477378E+01 -0.38322603637E+02 -0.23449643330E+02  0.46142317895E+02  0.10000001221E+02 0.  0.
        -12    1    1    2    0    0 -0.32566477378E+01  0.38322603637E+02  0.23449643330E+02  0.45045682105E+02  0.00000000000E+00 0.  1.
         11    1    3    3    0    0  0.32770130543E+01 -0.16372059251E+02 -0.10353758391E+02  0.19646461558E+02  0.51100000000E-03 0. -1.
        -11    1    3    3    0    0  0.33631189309E+01 -0.11446433069E+02 -0.78130069942E+01  0.14260942378E+02  0.51100000000E-03 0.  1.
        -12    1    3    3    0    0 -0.33834842475E+01 -0.10504111316E+02 -0.52828779454E+01  0.12234913959E+02  0.00000000000E+00 0.  1.
</event>
<event>
 7    1  0.1486782E-008  0.4614232E+02  0.7816164E-02  0.1320468E+00
        -11   -1    0    0    0    0  0.00000000000E+00  0.00000000000E+00  0.45593999997E+02  0.45594000000E+02  0.51100000000E-03 0.  1.
         11   -1    0    0    0    0 -0.00000000000E+00 -0.00000000000E+00 -0.45593999997E+02  0.45594000000E+02  0.51100000000E-03 0. -1.
    9900012    2    1    2    0    0  0.10328178391E+02  0.28393260439E+02 -0.33410551700E+02  0.46142317941E+02  0.10000001642E+02 0.  0.
        -12    1    1    2    0    0 -0.10328178391E+02 -0.28393260439E+02  0.33410551700E+02  0.45045682059E+02  0.00000000000E+00 0.  1.
         11    1    3    3    0    0  0.69372792077E+01  0.14672150583E+02 -0.11073780356E+02  0.19647556010E+02  0.51100000000E-03 0. -1.
        -11    1    3    3    0    0  0.21595708273E+01  0.80592188299E+01 -0.14777931831E+02  0.16970622374E+02  0.51100000000E-03 0.  1.
         12    1    3    3    0    0  0.12313283558E+01  0.56618910262E+01 -0.75588395127E+01  0.95241395564E+01  0.00000000000E+00 0. -1.
</event>
<event>
 7    1  0.1486782E-008  0.4614232E+02  0.7816164E-02  0.1320468E+00
        -11   -1    0    0    0    0  0.00000000000E+00  0.00000000000E+00  0.45593999997E+02  0.45594000000E+02  0.51100000000E-03 0.  1.
         11   -1    0    0    0    0 -0.00000000000E+00 -0.00000000000E+00 -0.45593999997E+02  0.45594000000E+02  0.51100000000E-03 0. -1.
    9900012    2    1    2    0    0 -0.10109705247E+02 -0.55409004126E+01 -0.43545446106E+02  0.46142316587E+02  0.99999892973E+01 0.  0.
        -12    1    1    2    0    0  0.10109705247E+02  0.55409004126E+01  0.43545446106E+02  0.45045683413E+02  0.00000000000E+00 0.  1.
         11    1    3    3    0    0 -0.28229972501E+01 -0.23732758430E+01 -0.22590390572E+02  0.22889462601E+02  0.51100000000E-03 0. -1.
        -11    1    3    3    0    0 -0.74476972447E+01 -0.17692836078E+01 -0.12324997665E+02  0.14508760334E+02  0.51100000000E-03 0.  1.
        -12    1    3    3    0    0  0.16098924743E+00 -0.13983409617E+01 -0.86300578692E+01  0.87440936527E+01  0.00000000000E+00 0.  1.
</event>
<event>
 7    1  0.1486782E-008  0.4614232E+02  0.7816164E-02  0.1320468E+00
        -11   -1    0    0    0    0  0.00000000000E+00  0.00000000000E+00  0.45593999997E+02  0.45594000000E+02  0.51100000000E-03 0. -1.
         11   -1    0    0    0    0 -0.00000000000E+00 -0.00000000000E+00 -0.45593999997E+02  0.45594000000E+02  0.51100000000E-03 0.  1.
    9900012    2    1    2    0    0  0.97100715388E+01  0.43958965959E+02  0.15611751954E+01  0.46142318237E+02  0.10000004344E+02 0.  0.
        -12    1    1    2    0    0 -0.97100715388E+01 -0.43958965959E+02 -0.15611751954E+01  0.45045681763E+02  0.00000000000E+00 0.  1.
         11    1    3    3    0    0  0.67629797237E+01  0.12549988046E+02 -0.16224133031E+01  0.14348251458E+02  0.51100000000E-03 0. -1.
        -11    1    3    3    0    0  0.87692192062E+00  0.21096540263E+02  0.22631003352E+01  0.21235692278E+02  0.51100000000E-03 0.  1.
         12    1    3    3    0    0  0.20701698946E+01  0.10312437649E+02  0.92048816327E+00  0.10558374502E+02  0.00000000000E+00 0. -1.
</event>
<event>
 7    1  0.1486782E-008  0.4614232E+02  0.7816164E-02  0.1320468E+00
        -11   -1    0    0    0    0  0.00000000000E+00  0.00000000000E+00  0.45593999997E+02  0.45594000000E+02  0.51100000000E-03 0.  1.
         11   -1    0    0    0    0 -0.00000000000E+00 -0.00000000000E+00 -0.45593999997E+02  0.45594000000E+02  0.51100000000E-03 0. -1.
    9900012    2    1    2    0    0 -0.15624872255E+01 -0.22767511215E+02 -0.38837000032E+02  0.46142317580E+02  0.99999983453E+01 0.  0.
        -12    1    1    2    0    0  0.15624872255E+01  0.22767511215E+02  0.38837000032E+02  0.45045682420E+02  0.00000000000E+00 0.  1.
         11    1    3    3    0    0 -0.26775148054E+01 -0.16672467780E+02 -0.30064805464E+02  0.34482354840E+02  0.51100000000E-03 0. -1.
        -11    1    3    3    0    0  0.25361890621E+01 -0.16773972242E+01 -0.34906906066E+01  0.46293452646E+01  0.51100000000E-03 0.  1.
        -12    1    3    3    0    0 -0.14211614822E+01 -0.44176462102E+01 -0.52815039609E+01  0.70306174754E+01  0.00000000000E+00 0.  1.
</event>
<event>
 7    1  0.1486782E-008  0.4614232E+02  0.7816164E-02  0.1320468E+00
        -11   -1    0    0    0    0  0.00000000000E+00  0.00000000000E+00  0.45593999997E+02  0.45594000000E+02  0.51100000000E-03 0. -1.
         11   -1    0    0    0    0 -0.00000000000E+00 -0.00000000000E+00 -0.45593999997E+02  0.45594000000E+02  0.51100000000E-03 0.  1.
    9900012    2    1    2    0    0  0.38768427248E+02  0.22894171391E+02 -0.14069892296E+01  0.46142315927E+02  0.99999832723E+01 0.  0.
        -12    1    1    2    0    0 -0.38768427248E+02 -0.22894171391E+02  0.14069892296E+01  0.45045684073E+02  0.00000000000E+00 0.  1.
         11    1    3    3    0    0  0.10516390911E+02  0.11319445001E+02 -0.69014206341E+00  0.15466111640E+02  0.51100000000E-03 0. -1.
        -11    1    3    3    0    0  0.27401418995E+02  0.11592886790E+02 -0.10271147865E+01  0.29770585350E+02  0.51100000000E-03 0.  1.
         12    1    3    3    0    0  0.85061734118E+00 -0.18160399844E-01  0.31026762026E+00  0.90561893610E+00  0.00000000000E+00 0. -1.
</event>
<event>
 7    1  0.1486782E-008  0.4614232E+02  0.7816164E-02  0.1320468E+00
        -11   -1    0    0    0    0  0.00000000000E+00  0.00000000000E+00  0.45593999997E+02  0.45594000000E+02  0.51100000000E-03 0.  1.
         11   -1    0    0    0    0 -0.00000000000E+00 -0.00000000000E+00 -0.45593999997E+02  0.45594000000E+02  0.51100000000E-03 0. -1.
    9900012    2    1    2    0    0  0.15218901656E+01 -0.73367743882E+01 -0.44418116832E+02  0.46142317510E+02  0.99999977080E+01 0.  0.
        -12    1    1    2    0    0 -0.15218901656E+01  0.73367743882E+01  0.44418116832E+02  0.45045682490E+02  0.00000000000E+00 0.  1.
         11    1    3    3    0    0  0.18506616123E+01 -0.72102718329E+00 -0.22516272632E+02  0.22603702399E+02  0.51100000000E-03 0. -1.
        -11    1    3    3    0    0 -0.22735278674E+01 -0.14384395838E+01 -0.41547240036E+01  0.49497241547E+01  0.51100000000E-03 0.  1.
         12    1    3    3    0    0  0.19447564207E+01 -0.51773076211E+01 -0.17747120196E+02  0.18588890957E+02  0.00000000000E+00 0. -1.
</event>
<event>
 7    1  0.1486782E-008  0.4614232E+02  0.7816164E-02  0.1320468E+00
        -11   -1    0    0    0    0  0.00000000000E+00  0.00000000000E+00  0.45593999997E+02  0.45594000000E+02  0.51100000000E-03 0. -1.
         11   -1    0    0    0    0 -0.00000000000E+00 -0.00000000000E+00 -0.45593999997E+02  0.45594000000E+02  0.51100000000E-03 0.  1.
    9900012    2    1    2    0    0  0.26831077802E+02  0.24445300203E+02  0.26676469101E+02  0.46142318279E+02  0.10000004724E+02 0.  0.
        -12    1    1    2    0    0 -0.26831077802E+02 -0.24445300203E+02 -0.26676469101E+02  0.45045681721E+02  0.00000000000E+00 0.  1.
         11    1    3    3    0    0  0.13605507265E+02  0.95738860019E+01  0.78750992874E+01  0.18406148705E+02  0.51100000000E-03 0. -1.
        -11    1    3    3    0    0  0.71398074408E+01  0.10912549366E+02  0.13304920829E+02  0.18630123523E+02  0.51100000000E-03 0.  1.
         12    1    3    3    0    0  0.60857630956E+01  0.39588648350E+01  0.54964489844E+01  0.91060460506E+01  0.00000000000E+00 0. -1.
</event>
<event>
 7    1  0.1486782E-008  0.4614232E+02  0.7816164E-02  0.1320468E+00
        -11   -1    0    0    0    0  0.00000000000E+00  0.00000000000E+00  0.45593999997E+02  0.45594000000E+02  0.51100000000E-03 0. -1.
         11   -1    0    0    0    0 -0.00000000000E+00 -0.00000000000E+00 -0.45593999997E+02  0.45594000000E+02  0.51100000000E-03 0.  1.
    9900012    2    1    2    0    0 -0.41072623875E+00 -0.74156237797E+00  0.45037705211E+02  0.46142317615E+02  0.99999986695E+01 0.  0.
        -12    1    1    2    0    0  0.41072623875E+00  0.74156237797E+00 -0.45037705211E+02  0.45045682385E+02  0.00000000000E+00 0.  1.
         11    1    3    3    0    0  0.23136747926E+01 -0.49271776976E+00  0.34870038860E+02  0.34950185582E+02  0.51100000000E-03 0. -1.
        -11    1    3    3    0    0 -0.36078172822E+01  0.28656834509E-01  0.67801591332E+01  0.76803466646E+01  0.51100000000E-03 0.  1.
        -12    1    3    3    0    0  0.88341625084E+00 -0.27750144271E+00  0.33875072182E+01  0.35117853687E+01  0.00000000000E+00 0.  1.
</event>
<event>
 7    1  0.1486782E-008  0.4614232E+02  0.7816164E-02  0.1320468E+00
        -11   -1    0    0    0    0  0.00000000000E+00  0.00000000000E+00  0.45593999997E+02  0.45594000000E+02  0.51100000000E-03 0.  1.
         11   -1    0    0    0    0 -0.00000000000E+00 -0.00000000000E+00 -0.45593999997E+02  0.45594000000E+02  0.51100000000E-03 0. -1.
    9900012    2    1    2    0    0 -0.30334950044E+02 -0.80958984719E+01 -0.32301094835E+02  0.46142317701E+02  0.99999994514E+01 0.  0.
        -12    1    1    2    0    0  0.30334950044E+02  0.80958984719E+01  0.32301094835E+02  0.45045682299E+02  0.00000000000E+00 0.  1.
         11    1    3    3    0    0 -0.28101225605E+02 -0.77417388739E+01 -0.25081373011E+02  0.38453721194E+02  0.51100000000E-03 0. -1.
        -11    1    3    3    0    0 -0.60735080515E-01 -0.33250607515E+00 -0.20961428017E+01  0.21232201832E+01  0.51100000000E-03 0.  1.
         12    1    3    3    0    0 -0.21729893592E+01 -0.21653522889E-01 -0.51235790224E+01  0.55653763241E+01  0.00000000000E+00 0. -1.
</event>
<event>
 7    1  0.1486782E-008  0.4614232E+02  0.7816164E-02  0.1320468E+00
        -11   -1    0    0    0    0  0.00000000000E+00  0.00000000000E+00  0.45593999997E+02  0.45594000000E+02  0.51100000000E-03 0.  1.
         11   -1    0    0    0    0 -0.00000000000E+00 -0.00000000000E+00 -0.45593999997E+02  0.45594000000E+02  0.51100000000E-03 0. -1.
    9900012    2    1    2    0    0 -0.56304798184E-01 -0.69551939729E+01 -0.44505454714E+02  0.46142318823E+02  0.10000009684E+02 0.  0.
        -12    1    1    2    0    0  0.56304798184E-01  0.69551939729E+01  0.44505454714E+02  0.45045681177E+02  0.00000000000E+00 0.  1.
         11    1    3    3    0    0  0.24801438305E+01 -0.66820830235E+01 -0.25691666897E+02  0.26662015962E+02  0.51100000000E-03 0. -1.
        -11    1    3    3    0    0 -0.19866806854E+01  0.19075976814E+01 -0.89934023192E+01  0.94056958592E+01  0.51100000000E-03 0.  1.
        -12    1    3    3    0    0 -0.54976794327E+00 -0.21807086308E+01 -0.98203854976E+01  0.10074607002E+02  0.00000000000E+00 0.  1.
</event>
<event>
 7    1  0.1486782E-008  0.4614232E+02  0.7816164E-02  0.1320468E+00
        -11   -1    0    0    0    0  0.00000000000E+00  0.00000000000E+00  0.45593999997E+02  0.45594000000E+02  0.51100000000E-03 0.  1.
         11   -1    0    0    0    0 -0.00000000000E+00 -0.00000000000E+00 -0.45593999997E+02  0.45594000000E+02  0.51100000000E-03 0. -1.
    9900012    2    1    2    0    0  0.20906693298E+01  0.22606124876E+02 -0.38906371257E+02  0.46142317581E+02  0.99999983607E+01 0.  0.
        -12    1    1    2    0    0 -0.20906693298E+01 -0.22606124876E+02  0.38906371257E+02  0.45045682419E+02  0.00000000000E+00 0.  1.
         11    1    3    3    0    0  0.95872520223E+00  0.30482306421E+01 -0.10468091872E+02  0.10944944576E+02  0.51100000000E-03 0. -1.
        -11    1    3    3    0    0  0.28335108332E+01  0.36561811001E+01 -0.48823748049E+01  0.67256247201E+01  0.51100000000E-03 0.  1.
        -12    1    3    3    0    0 -0.17015667057E+01  0.15901713134E+02 -0.23555904580E+02  0.28471748286E+02  0.00000000000E+00 0.  1.
</event>
<event>
 7    1  0.1486782E-008  0.4614232E+02  0.7816164E-02  0.1320468E+00
        -11   -1    0    0    0    0  0.00000000000E+00  0.00000000000E+00  0.45593999997E+02  0.45594000000E+02  0.51100000000E-03 0.  1.
         11   -1    0    0    0    0 -0.00000000000E+00 -0.00000000000E+00 -0.45593999997E+02  0.45594000000E+02  0.51100000000E-03 0. -1.
    9900012    2    1    2    0    0  0.25647397495E+02  0.23500746108E+02 -0.28618866901E+02  0.46142316426E+02  0.99999878272E+01 0.  0.
        -12    1    1    2    0    0 -0.25647397495E+02 -0.23500746108E+02  0.28618866901E+02  0.45045683574E+02  0.00000000000E+00 0.  1.
         11    1    3    3    0    0  0.31193887453E+01  0.61037869700E+01 -0.59361413154E+01  0.90677767670E+01  0.51100000000E-03 0. -1.
        -11    1    3    3    0    0  0.11352304507E+02  0.64092330806E+01 -0.65764098487E+01  0.14601446951E+02  0.51100000000E-03 0.  1.
         12    1    3    3    0    0  0.11175704242E+02  0.10987726058E+02 -0.16106315737E+02  0.22473092708E+02  0.00000000000E+00 0. -1.
</event>
<event>
 7    1  0.1486782E-008  0.4614232E+02  0.7816164E-02  0.1320468E+00
        -11   -1    0    0    0    0  0.00000000000E+00  0.00000000000E+00  0.45593999997E+02  0.45594000000E+02  0.51100000000E-03 0.  1.
         11   -1    0    0    0    0 -0.00000000000E+00 -0.00000000000E+00 -0.45593999997E+02  0.45594000000E+02  0.51100000000E-03 0. -1.
    9900012    2    1    2    0    0  0.11678868838E+02 -0.38544815341E+02 -0.20174609057E+02  0.46142316327E+02  0.99999869214E+01 0.  0.
        -12    1    1    2    0    0 -0.11678868838E+02  0.38544815341E+02  0.20174609057E+02  0.45045683673E+02  0.00000000000E+00 0.  1.
         11    1    3    3    0    0  0.92533938910E+01 -0.28713495799E+02 -0.17632028178E+02  0.34942503594E+02  0.51100000000E-03 0. -1.
        -11    1    3    3    0    0  0.31689068686E+01 -0.96164492615E+01 -0.24735165221E+01  0.10422876349E+02  0.51100000000E-03 0.  1.
         12    1    3    3    0    0 -0.74343192161E+00 -0.21487028077E+00 -0.69064356848E-01  0.77693638415E+00  0.00000000000E+00 0. -1.
</event>
<event>
 7    1  0.1486782E-008  0.4614232E+02  0.7816164E-02  0.1320468E+00
        -11   -1    0    0    0    0  0.00000000000E+00  0.00000000000E+00  0.45593999997E+02  0.45594000000E+02  0.51100000000E-03 0.  1.
         11   -1    0    0    0    0 -0.00000000000E+00 -0.00000000000E+00 -0.45593999997E+02  0.45594000000E+02  0.51100000000E-03 0. -1.
    9900012    2    1    2    0    0  0.28286438834E+02  0.26038679769E+02 -0.23472920765E+02  0.46142317907E+02  0.10000001327E+02 0.  0.
        -12    1    1    2    0    0 -0.28286438834E+02 -0.26038679769E+02  0.23472920765E+02  0.45045682093E+02  0.00000000000E+00 0.  1.
         11    1    3    3    0    0  0.20452549696E+02  0.15486798756E+02 -0.13553127190E+02  0.29014392664E+02  0.51100000000E-03 0. -1.
        -11    1    3    3    0    0  0.54082368157E+01  0.99433812014E+01 -0.90084321917E+01  0.14466226391E+02  0.51100000000E-03 0.  1.
        -12    1    3    3    0    0  0.24256523221E+01  0.60849981236E+00 -0.91136138282E+00  0.26616988521E+01  0.00000000000E+00 0.  1.
</event>
<event>
 7    1  0.1486782E-008  0.4614232E+02  0.7816164E-02  0.1320468E+00
        -11   -1    0    0    0    0  0.00000000000E+00  0.00000000000E+00  0.45593999997E+02  0.45594000000E+02  0.51100000000E-03 0.  1.
         11   -1    0    0    0    0 -0.00000000000E+00 -0.00000000000E+00 -0.45593999997E+02  0.45594000000E+02  0.51100000000E-03 0. -1.
    9900012    2    1    2    0    0 -0.24569511397E+02 -0.30766699297E+02 -0.21882933670E+02  0.46142318055E+02  0.10000002679E+02 0.  0.
        -12    1    1    2    0    0  0.24569511397E+02  0.30766699297E+02  0.21882933670E+02  0.45045681945E+02  0.00000000000E+00 0.  1.
         11    1    3    3    0    0 -0.61772687926E+01 -0.15256560438E+02 -0.80959243283E+01  0.18342989864E+02  0.51100000000E-03 0. -1.
        -11    1    3    3    0    0 -0.14617459748E+02 -0.11234881766E+02 -0.10480552916E+02  0.21206949038E+02  0.51100000000E-03 0.  1.
         12    1    3    3    0    0 -0.37747828565E+01 -0.42752570923E+01 -0.33064564248E+01  0.65923791538E+01  0.00000000000E+00 0. -1.
</event>
<event>
 7    1  0.1486782E-008  0.4614232E+02  0.7816164E-02  0.1320468E+00
        -11   -1    0    0    0    0  0.00000000000E+00  0.00000000000E+00  0.45593999997E+02  0.45594000000E+02  0.51100000000E-03 0. -1.
         11   -1    0    0    0    0 -0.00000000000E+00 -0.00000000000E+00 -0.45593999997E+02  0.45594000000E+02  0.51100000000E-03 0.  1.
    9900012    2    1    2    0    0  0.39378175737E+02 -0.99349688531E+01  0.19487668236E+02  0.46142317146E+02  0.99999943907E+01 0.  0.
        -12    1    1    2    0    0 -0.39378175737E+02  0.99349688531E+01 -0.19487668236E+02  0.45045682854E+02  0.00000000000E+00 0.  1.
         11    1    3    3    0    0  0.11476313549E+02 -0.63571708213E+01  0.91175949685E+01  0.15976543174E+02  0.51100000000E-03 0. -1.
        -11    1    3    3    0    0  0.11270462206E+01  0.35853926722E+00 -0.45322802462E-02  0.11827106122E+01  0.51100000000E-03 0.  1.
         12    1    3    3    0    0  0.26774815968E+02 -0.39363372990E+01  0.10374605547E+02  0.28983063359E+02  0.00000000000E+00 0. -1.
</event>
<event>
 7    1  0.1486782E-008  0.4614232E+02  0.7816164E-02  0.1320468E+00
        -11   -1    0    0    0    0  0.00000000000E+00  0.00000000000E+00  0.45593999997E+02  0.45594000000E+02  0.51100000000E-03 0.  1.
         11   -1    0    0    0    0 -0.00000000000E+00 -0.00000000000E+00 -0.45593999997E+02  0.45594000000E+02  0.51100000000E-03 0. -1.
    9900012    2    1    2    0    0 -0.16407544379E+02  0.19623043553E+02 -0.37078863997E+02  0.46142317564E+02  0.99999982012E+01 0.  0.
        -12    1    1    2    0    0  0.16407544379E+02 -0.19623043553E+02  0.37078863997E+02  0.45045682436E+02  0.00000000000E+00 0.  1.
         11    1    3    3    0    0 -0.12073381383E+02  0.12677684945E+02 -0.21119549585E+02  0.27432200213E+02  0.51100000000E-03 0. -1.
        -11    1    3    3    0    0  0.48063872110E+00  0.83321863693E+00 -0.59755030020E+01  0.60524295341E+01  0.51100000000E-03 0.  1.
        -12    1    3    3    0    0 -0.48148017174E+01  0.61121399708E+01 -0.99838114101E+01  0.12657687817E+02  0.00000000000E+00 0.  1.
</event>
<event>
 7    1  0.1486782E-008  0.4614232E+02  0.7816164E-02  0.1320468E+00
        -11   -1    0    0    0    0  0.00000000000E+00  0.00000000000E+00  0.45593999997E+02  0.45594000000E+02  0.51100000000E-03 0.  1.
         11   -1    0    0    0    0 -0.00000000000E+00 -0.00000000000E+00 -0.45593999997E+02  0.45594000000E+02  0.51100000000E-03 0. -1.
    9900012    2    1    2    0    0  0.25829723541E+02 -0.18106124742E+02 -0.32157528241E+02  0.46142323249E+02  0.10000050040E+02 0.  0.
        -12    1    1    2    0    0 -0.25829723541E+02  0.18106124742E+02  0.32157528241E+02  0.45045676751E+02  0.00000000000E+00 0.  1.
         11    1    3    3    0    0  0.14449969229E+02 -0.73445735364E+01 -0.20234759462E+02  0.25926624576E+02  0.51100000000E-03 0. -1.
        -11    1    3    3    0    0  0.20131417349E+01 -0.78435962776E+00 -0.15357467076E+00  0.21659974864E+01  0.51100000000E-03 0.  1.
        -12    1    3    3    0    0  0.93666125777E+01 -0.99771915781E+01 -0.11769194108E+02  0.18049701187E+02  0.00000000000E+00 0.  1.
</event>
<event>
 7    1  0.1486782E-008  0.4614232E+02  0.7816164E-02  0.1320468E+00
        -11   -1    0    0    0    0  0.00000000000E+00  0.00000000000E+00  0.45593999997E+02  0.45594000000E+02  0.51100000000E-03 0.  1.
         11   -1    0    0    0    0 -0.00000000000E+00 -0.00000000000E+00 -0.45593999997E+02  0.45594000000E+02  0.51100000000E-03 0. -1.
    9900012    2    1    2    0    0 -0.15447907336E+02 -0.21786030781E+02 -0.36274569359E+02  0.46142319181E+02  0.10000012950E+02 0.  0.
        -12    1    1    2    0    0  0.15447907336E+02  0.21786030781E+02  0.36274569359E+02  0.45045680819E+02  0.00000000000E+00 0.  1.
         11    1    3    3    0    0 -0.10420415245E+02 -0.12452063823E+02 -0.24505075306E+02  0.29396218521E+02  0.51100000000E-03 0. -1.
        -11    1    3    3    0    0 -0.59676070864E+00 -0.40643910767E+01 -0.77564908389E+01  0.87771606208E+01  0.51100000000E-03 0.  1.
         12    1    3    3    0    0 -0.44307313828E+01 -0.52695758817E+01 -0.40130032135E+01  0.79689400394E+01  0.00000000000E+00 0. -1.
</event>
<event>
 7    1  0.1486782E-008  0.4614232E+02  0.7816164E-02  0.1320468E+00
        -11   -1    0    0    0    0  0.00000000000E+00  0.00000000000E+00  0.45593999997E+02  0.45594000000E+02  0.51100000000E-03 0.  1.
         11   -1    0    0    0    0 -0.00000000000E+00 -0.00000000000E+00 -0.45593999997E+02  0.45594000000E+02  0.51100000000E-03 0. -1.
    9900012    2    1    2    0    0  0.14223331081E+02  0.21138047500E+02 -0.37148261931E+02  0.46142316925E+02  0.99999923787E+01 0.  0.
        -12    1    1    2    0    0 -0.14223331081E+02 -0.21138047500E+02  0.37148261931E+02  0.45045683075E+02  0.00000000000E+00 0.  1.
         11    1    3    3    0    0  0.15464438727E+01 -0.41985105485E+00 -0.79713713874E+00  0.17897461940E+01  0.51100000000E-03 0. -1.
        -11    1    3    3    0    0  0.28789348911E+01  0.30756985817E+01 -0.88321731487E+01  0.97854724292E+01  0.51100000000E-03 0.  1.
         12    1    3    3    0    0  0.97979523173E+01  0.18482199973E+02 -0.27518951644E+02  0.34567098302E+02  0.00000000000E+00 0. -1.
</event>
<event>
 7    1  0.1486782E-008  0.4614232E+02  0.7816164E-02  0.1320468E+00
        -11   -1    0    0    0    0  0.00000000000E+00  0.00000000000E+00  0.45593999997E+02  0.45594000000E+02  0.51100000000E-03 0.  1.
         11   -1    0    0    0    0 -0.00000000000E+00 -0.00000000000E+00 -0.45593999997E+02  0.45594000000E+02  0.51100000000E-03 0. -1.
    9900012    2    1    2    0    0 -0.23867297060E+02  0.16046440401E+01 -0.38169237600E+02  0.46142318183E+02  0.10000003843E+02 0.  0.
        -12    1    1    2    0    0  0.23867297060E+02 -0.16046440401E+01  0.38169237600E+02  0.45045681817E+02  0.00000000000E+00 0.  1.
         11    1    3    3    0    0 -0.17400780888E+02 -0.46325518012E+00 -0.31796591986E+02  0.36249483349E+02  0.51100000000E-03 0. -1.
        -11    1    3    3    0    0 -0.43140553134E+01  0.98179082175E+00 -0.19068359185E+01  0.48177806038E+01  0.51100000000E-03 0.  1.
        -12    1    3    3    0    0 -0.21524608581E+01  0.10861083985E+01 -0.44658096954E+01  0.50750542297E+01  0.00000000000E+00 0.  1.
</event>
<event>
 7    1  0.1486782E-008  0.4614232E+02  0.7816164E-02  0.1320468E+00
        -11   -1    0    0    0    0  0.00000000000E+00  0.00000000000E+00  0.45593999997E+02  0.45594000000E+02  0.51100000000E-03 0.  1.
         11   -1    0    0    0    0 -0.00000000000E+00 -0.00000000000E+00 -0.45593999997E+02  0.45594000000E+02  0.51100000000E-03 0. -1.
    9900012    2    1    2    0    0 -0.18905229222E+02  0.40695396211E+02 -0.39484763785E+01  0.46142318404E+02  0.10000005865E+02 0.  0.
        -12    1    1    2    0    0  0.18905229222E+02 -0.40695396211E+02  0.39484763785E+01  0.45045681596E+02  0.00000000000E+00 0.  1.
         11    1    3    3    0    0 -0.65791284448E+01  0.20985055355E+02 -0.46291189105E+01  0.22474123375E+02  0.51100000000E-03 0. -1.
        -11    1    3    3    0    0 -0.71660014874E+01  0.76549918927E+01 -0.53026575867E+00  0.10499126641E+02  0.51100000000E-03 0.  1.
        -12    1    3    3    0    0 -0.51600992894E+01  0.12055348964E+02  0.12109082907E+01  0.13169068388E+02  0.00000000000E+00 0.  1.
</event>
<event>
 7    1  0.1486782E-008  0.4614232E+02  0.7816164E-02  0.1320468E+00
        -11   -1    0    0    0    0  0.00000000000E+00  0.00000000000E+00  0.45593999997E+02  0.45594000000E+02  0.51100000000E-03 0.  1.
         11   -1    0    0    0    0 -0.00000000000E+00 -0.00000000000E+00 -0.45593999997E+02  0.45594000000E+02  0.51100000000E-03 0. -1.
    9900012    2    1    2    0    0 -0.29142980870E+02 -0.12105380470E+02 -0.32144362374E+02  0.46142316492E+02  0.99999884291E+01 0.  0.
        -12    1    1    2    0    0  0.29142980870E+02  0.12105380470E+02  0.32144362374E+02  0.45045683508E+02  0.00000000000E+00 0.  1.
         11    1    3    3    0    0 -0.13387552606E+02 -0.73796119021E+01 -0.12641792841E+02  0.19836838535E+02  0.51100000000E-03 0. -1.
        -11    1    3    3    0    0 -0.60063875879E+00  0.11174268870E+01 -0.24288004656E+01  0.27401608948E+01  0.51100000000E-03 0.  1.
         12    1    3    3    0    0 -0.15154789505E+02 -0.58431954549E+01 -0.17073769067E+02  0.23565317062E+02  0.00000000000E+00 0. -1.
</event>
<event>
 7    1  0.1486782E-008  0.4614232E+02  0.7816164E-02  0.1320468E+00
        -11   -1    0    0    0    0  0.00000000000E+00  0.00000000000E+00  0.45593999997E+02  0.45594000000E+02  0.51100000000E-03 0.  1.
         11   -1    0    0    0    0 -0.00000000000E+00 -0.00000000000E+00 -0.45593999997E+02  0.45594000000E+02  0.51100000000E-03 0. -1.
    9900012    2    1    2    0    0  0.10908696007E+02 -0.14871368474E+02 -0.41096912577E+02  0.46142317940E+02  0.10000001636E+02 0.  0.
        -12    1    1    2    0    0 -0.10908696007E+02  0.14871368474E+02  0.41096912577E+02  0.45045682060E+02  0.00000000000E+00 0.  1.
         11    1    3    3    0    0  0.30332408400E+01 -0.54112895452E+01 -0.14614219314E+02  0.15876334934E+02  0.51100000000E-03 0. -1.
        -11    1    3    3    0    0  0.88799392999E+01 -0.92918864874E+01 -0.20490620043E+02  0.24187971938E+02  0.51100000000E-03 0.  1.
        -12    1    3    3    0    0 -0.10044841331E+01 -0.16819244158E+00 -0.59920732194E+01  0.60780110676E+01  0.00000000000E+00 0.  1.
</event>
<event>
 7    1  0.1486782E-008  0.4614232E+02  0.7816164E-02  0.1320468E+00
        -11   -1    0    0    0    0  0.00000000000E+00  0.00000000000E+00  0.45593999997E+02  0.45594000000E+02  0.51100000000E-03 0. -1.
         11   -1    0    0    0    0 -0.00000000000E+00 -0.00000000000E+00 -0.45593999997E+02  0.45594000000E+02  0.51100000000E-03 0.  1.
    9900012    2    1    2    0    0 -0.31650458944E+02 -0.27240618545E+02  0.16891140590E+02  0.46142317848E+02  0.10000000796E+02 0.  0.
        -12    1    1    2    0    0  0.31650458944E+02  0.27240618545E+02 -0.16891140590E+02  0.45045682152E+02  0.00000000000E+00 0.  1.
         11    1    3    3    0    0 -0.15967223824E+02 -0.17092618358E+02  0.98685657502E+01  0.25386973612E+02  0.51100000000E-03 0. -1.
        -11    1    3    3    0    0  0.92245271012E-01 -0.14212707040E+01  0.48535835577E-01  0.14250879245E+01  0.51100000000E-03 0.  1.
        -12    1    3    3    0    0 -0.15775480391E+02 -0.87267294833E+01  0.69740390047E+01  0.19330256312E+02  0.00000000000E+00 0.  1.
</event>
<event>
 7    1  0.1486782E-008  0.4614232E+02  0.7816164E-02  0.1320468E+00
        -11   -1    0    0    0    0  0.00000000000E+00  0.00000000000E+00  0.45593999997E+02  0.45594000000E+02  0.51100000000E-03 0. -1.
         11   -1    0    0    0    0 -0.00000000000E+00 -0.00000000000E+00 -0.45593999997E+02  0.45594000000E+02  0.51100000000E-03 0.  1.
    9900012    2    1    2    0    0  0.38799173760E+02 -0.22588762518E+02  0.36722279514E+01  0.46142319467E+02  0.10000015554E+02 0.  0.
        -12    1    1    2    0    0 -0.38799173760E+02  0.22588762518E+02 -0.36722279514E+01  0.45045680533E+02  0.00000000000E+00 0.  1.
         11    1    3    3    0    0  0.15936684922E+01  0.10425872109E+00 -0.90912206212E+00  0.18377030035E+01  0.51100000000E-03 0. -1.
        -11    1    3    3    0    0  0.12352934349E+01 -0.25654688106E+01  0.37348920232E+00  0.28717720198E+01  0.51100000000E-03 0.  1.
         12    1    3    3    0    0  0.35970211833E+02 -0.20127552428E+02  0.42078608112E+01  0.41432844444E+02  0.00000000000E+00 0. -1.
</event>
<event>
 7    1  0.1486782E-008  0.4614232E+02  0.7816164E-02  0.1320468E+00
        -11   -1    0    0    0    0  0.00000000000E+00  0.00000000000E+00  0.45593999997E+02  0.45594000000E+02  0.51100000000E-03 0.  1.
         11   -1    0    0    0    0 -0.00000000000E+00 -0.00000000000E+00 -0.45593999997E+02  0.45594000000E+02  0.51100000000E-03 0. -1.
    9900012    2    1    2    0    0 -0.13889390771E+02  0.30922478615E+02 -0.29664771247E+02  0.46142317490E+02  0.99999975265E+01 0.  0.
        -12    1    1    2    0    0  0.13889390771E+02 -0.30922478615E+02  0.29664771247E+02  0.45045682510E+02  0.00000000000E+00 0.  1.
         11    1    3    3    0    0 -0.11398987987E+02  0.20619982384E+02 -0.20093011450E+02  0.30965298482E+02  0.51100000000E-03 0. -1.
        -11    1    3    3    0    0 -0.17085944792E+01  0.10397932740E+02 -0.74256534581E+01  0.12890951474E+02  0.51100000000E-03 0.  1.
        -12    1    3    3    0    0 -0.78180830435E+00 -0.95436510078E-01 -0.21461063388E+01  0.22860675339E+01  0.00000000000E+00 0.  1.
</event>
<event>
 7    1  0.1486782E-008  0.4614231E+02  0.7816164E-02  0.1320468E+00
        -11   -1    0    0    0    0  0.00000000000E+00  0.00000000000E+00  0.45593999997E+02  0.45594000000E+02  0.51100000000E-03 0.  1.
         11   -1    0    0    0    0 -0.00000000000E+00 -0.00000000000E+00 -0.45593999997E+02  0.45594000000E+02  0.51100000000E-03 0. -1.
    9900012    2    1    2    0    0 -0.12220129177E+02  0.20711529079E+02 -0.38089565295E+02  0.46142312323E+02  0.99999504138E+01 0.  0.
        -12    1    1    2    0    0  0.12220129177E+02 -0.20711529079E+02  0.38089565295E+02  0.45045687677E+02  0.00000000000E+00 0.  1.
         11    1    3    3    0    0 -0.11268151437E+02  0.16729317916E+02 -0.23714230673E+02  0.31132074319E+02  0.51100000000E-03 0. -1.
        -11    1    3    3    0    0 -0.24522347129E+00  0.14764694625E+01 -0.77208734427E+01  0.78646032070E+01  0.51100000000E-03 0.  1.
         12    1    3    3    0    0 -0.70675426834E+00  0.25057417010E+01 -0.66544611789E+01  0.71456347969E+01  0.00000000000E+00 0. -1.
</event>
<event>
 7    1  0.1486782E-008  0.4614232E+02  0.7816164E-02  0.1320468E+00
        -11   -1    0    0    0    0  0.00000000000E+00  0.00000000000E+00  0.45593999997E+02  0.45594000000E+02  0.51100000000E-03 0.  1.
         11   -1    0    0    0    0 -0.00000000000E+00 -0.00000000000E+00 -0.45593999997E+02  0.45594000000E+02  0.51100000000E-03 0. -1.
    9900012    2    1    2    0    0  0.59485395615E+01 -0.44378218900E+02  0.49296944943E+01  0.46142319591E+02  0.10000016689E+02 0.  0.
        -12    1    1    2    0    0 -0.59485395615E+01  0.44378218900E+02 -0.49296944943E+01  0.45045680409E+02  0.00000000000E+00 0.  1.
         11    1    3    3    0    0  0.52107272425E+00 -0.30631044792E+01  0.12116628699E+01  0.33350041988E+01  0.51100000000E-03 0. -1.
        -11    1    3    3    0    0  0.57635141935E+00 -0.23006052891E+02  0.58547569005E+01  0.23746343491E+02  0.51100000000E-03 0.  1.
        -12    1    3    3    0    0  0.48511154179E+01 -0.18309061531E+02 -0.21367252761E+01  0.19060971902E+02  0.00000000000E+00 0.  1.
</event>
<event>
 7    1  0.1486782E-008  0.4614232E+02  0.7816164E-02  0.1320468E+00
        -11   -1    0    0    0    0  0.00000000000E+00  0.00000000000E+00  0.45593999997E+02  0.45594000000E+02  0.51100000000E-03 0. -1.
         11   -1    0    0    0    0 -0.00000000000E+00 -0.00000000000E+00 -0.45593999997E+02  0.45594000000E+02  0.51100000000E-03 0.  1.
    9900012    2    1    2    0    0  0.41558710056E+02  0.70721441131E+01  0.15873620492E+02  0.46142318393E+02  0.10000005766E+02 0.  0.
        -12    1    1    2    0    0 -0.41558710056E+02 -0.70721441131E+01 -0.15873620492E+02  0.45045681607E+02  0.00000000000E+00 0.  1.
         11    1    3    3    0    0  0.28511015983E+02  0.27368181056E+01  0.12119414730E+02  0.31100617669E+02  0.51100000000E-03 0. -1.
        -11    1    3    3    0    0  0.13155570616E+02  0.44656964117E+01  0.29276212302E+01  0.14197973412E+02  0.51100000000E-03 0.  1.
         12    1    3    3    0    0 -0.10787654265E+00 -0.13037040414E+00  0.82658453158E+00  0.84372731293E+00  0.00000000000E+00 0. -1.
</event>
<event>
 7    1  0.1486782E-008  0.4614232E+02  0.7816164E-02  0.1320468E+00
        -11   -1    0    0    0    0  0.00000000000E+00  0.00000000000E+00  0.45593999997E+02  0.45594000000E+02  0.51100000000E-03 0. -1.
         11   -1    0    0    0    0 -0.00000000000E+00 -0.00000000000E+00 -0.45593999997E+02  0.45594000000E+02  0.51100000000E-03 0.  1.
    9900012    2    1    2    0    0 -0.36684690690E+01  0.42907370972E+02  0.13214135620E+02  0.46142317308E+02  0.99999958662E+01 0.  0.
        -12    1    1    2    0    0  0.36684690690E+01 -0.42907370972E+02 -0.13214135620E+02  0.45045682692E+02  0.00000000000E+00 0.  1.
         11    1    3    3    0    0 -0.69141228874E+00  0.16907832731E+02  0.77504014059E+01  0.18612403950E+02  0.51100000000E-03 0. -1.
        -11    1    3    3    0    0 -0.54270848907E+00  0.57024567811E+01 -0.15215573431E+01  0.59268611299E+01  0.51100000000E-03 0.  1.
        -12    1    3    3    0    0 -0.24343482912E+01  0.20297081460E+02  0.69852915567E+01  0.21603052227E+02  0.00000000000E+00 0.  1.
</event>
<event>
 7    1  0.1486782E-008  0.4614232E+02  0.7816164E-02  0.1320468E+00
        -11   -1    0    0    0    0  0.00000000000E+00  0.00000000000E+00  0.45593999997E+02  0.45594000000E+02  0.51100000000E-03 0.  1.
         11   -1    0    0    0    0 -0.00000000000E+00 -0.00000000000E+00 -0.45593999997E+02  0.45594000000E+02  0.51100000000E-03 0. -1.
    9900012    2    1    2    0    0  0.87556193062E+00 -0.41474343926E+02 -0.17556357426E+02  0.46142317644E+02  0.99999989357E+01 0.  0.
        -12    1    1    2    0    0 -0.87556193062E+00  0.41474343926E+02  0.17556357426E+02  0.45045682356E+02  0.00000000000E+00 0.  1.
         11    1    3    3    0    0 -0.16733862876E+01 -0.36968672029E+02 -0.17458684843E+02  0.40918071923E+02  0.51100000000E-03 0. -1.
        -11    1    3    3    0    0  0.19925685615E+01 -0.31835267658E+01 -0.33383215850E+00  0.37704928473E+01  0.51100000000E-03 0.  1.
         12    1    3    3    0    0  0.55637965673E+00 -0.13221451319E+01  0.23615957554E+00  0.14537528736E+01  0.00000000000E+00 0. -1.
</event>
<event>
 7    1  0.1486782E-008  0.4614232E+02  0.7816164E-02  0.1320468E+00
        -11   -1    0    0    0    0  0.00000000000E+00  0.00000000000E+00  0.45593999997E+02  0.45594000000E+02  0.51100000000E-03 0.  1.
         11   -1    0    0    0    0 -0.00000000000E+00 -0.00000000000E+00 -0.45593999997E+02  0.45594000000E+02  0.51100000000E-03 0. -1.
    9900012    2    1    2    0    0  0.33748357221E+02 -0.77083855530E+01 -0.28822607339E+02  0.46142317446E+02  0.99999971259E+01 0.  0.
        -12    1    1    2    0    0 -0.33748357221E+02  0.77083855530E+01  0.28822607339E+02  0.45045682554E+02  0.00000000000E+00 0.  1.
         11    1    3    3    0    0  0.17025464495E+02 -0.10303649249E+01 -0.12753810030E+02  0.21297599951E+02  0.51100000000E-03 0. -1.
        -11    1    3    3    0    0 -0.42918829889E+00 -0.21061572145E+00 -0.10252177906E+01  0.11312088036E+01  0.51100000000E-03 0.  1.
        -12    1    3    3    0    0  0.17152081025E+02 -0.64674049067E+01 -0.15043579518E+02  0.23713508691E+02  0.00000000000E+00 0.  1.
</event>
<event>
 7    1  0.1486782E-008  0.4614232E+02  0.7816164E-02  0.1320468E+00
        -11   -1    0    0    0    0  0.00000000000E+00  0.00000000000E+00  0.45593999997E+02  0.45594000000E+02  0.51100000000E-03 0.  1.
         11   -1    0    0    0    0 -0.00000000000E+00 -0.00000000000E+00 -0.45593999997E+02  0.45594000000E+02  0.51100000000E-03 0. -1.
    9900012    2    1    2    0    0  0.34756465998E+02  0.25977217249E+02  0.12094865113E+02  0.46142317557E+02  0.99999981418E+01 0.  0.
        -12    1    1    2    0    0 -0.34756465998E+02 -0.25977217249E+02 -0.12094865113E+02  0.45045682443E+02  0.00000000000E+00 0.  1.
         11    1    3    3    0    0  0.10130400197E+01  0.13342659858E+01  0.41628312196E+00  0.17262119514E+01  0.51100000000E-03 0. -1.
        -11    1    3    3    0    0  0.26855603261E+02  0.21021072758E+02  0.56435432055E+01  0.34568171872E+02  0.51100000000E-03 0.  1.
        -12    1    3    3    0    0  0.68878227173E+01  0.36218785051E+01  0.60350387856E+01  0.98479337342E+01  0.00000000000E+00 0.  1.
</event>
<event>
 7    1  0.1486782E-008  0.4614233E+02  0.7816164E-02  0.1320468E+00
        -11   -1    0    0    0    0  0.00000000000E+00  0.00000000000E+00  0.45593999997E+02  0.45594000000E+02  0.51100000000E-03 0. -1.
         11   -1    0    0    0    0 -0.00000000000E+00 -0.00000000000E+00 -0.45593999997E+02  0.45594000000E+02  0.51100000000E-03 0.  1.
    9900012    2    1    2    0    0 -0.29750592153E+02 -0.32142780477E+02  0.10528839643E+02  0.46142328350E+02  0.10000096555E+02 0.  0.
        -12    1    1    2    0    0  0.29750592153E+02  0.32142780477E+02 -0.10528839643E+02  0.45045671650E+02  0.00000000000E+00 0.  1.
         11    1    3    3    0    0 -0.11687678806E+02 -0.80063279786E+01  0.58385158465E+01  0.15322904135E+02  0.51100000000E-03 0. -1.
        -11    1    3    3    0    0 -0.43943512680E+01 -0.46389554966E+01 -0.63021363623E+00  0.64208566916E+01  0.51100000000E-03 0.  1.
         12    1    3    3    0    0 -0.13668562079E+02 -0.19497497001E+02  0.53205374324E+01  0.24398567523E+02  0.00000000000E+00 0. -1.
</event>
<event>
 7    1  0.1486782E-008  0.4614232E+02  0.7816164E-02  0.1320468E+00
        -11   -1    0    0    0    0  0.00000000000E+00  0.00000000000E+00  0.45593999997E+02  0.45594000000E+02  0.51100000000E-03 0.  1.
         11   -1    0    0    0    0 -0.00000000000E+00 -0.00000000000E+00 -0.45593999997E+02  0.45594000000E+02  0.51100000000E-03 0. -1.
    9900012    2    1    2    0    0  0.51020937040E+01 -0.33555009332E+02 -0.29616606673E+02  0.46142318718E+02  0.10000008722E+02 0.  0.
        -12    1    1    2    0    0 -0.51020937040E+01  0.33555009332E+02  0.29616606673E+02  0.45045681282E+02  0.00000000000E+00 0.  1.
         11    1    3    3    0    0  0.72012747502E+01 -0.23882378124E+02 -0.21615802754E+02  0.33007109413E+02  0.51100000000E-03 0. -1.
        -11    1    3    3    0    0  0.70130935043E-01  0.24586267235E+00 -0.11909447142E+00  0.28204708109E+00  0.51100000000E-03 0.  1.
         12    1    3    3    0    0 -0.21693119813E+01 -0.99184938798E+01 -0.78817094475E+01  0.12853162223E+02  0.00000000000E+00 0. -1.
</event>
<event>
 7    1  0.1486782E-008  0.4614232E+02  0.7816164E-02  0.1320468E+00
        -11   -1    0    0    0    0  0.00000000000E+00  0.00000000000E+00  0.45593999997E+02  0.45594000000E+02  0.51100000000E-03 0.  1.
         11   -1    0    0    0    0 -0.00000000000E+00 -0.00000000000E+00 -0.45593999997E+02  0.45594000000E+02  0.51100000000E-03 0. -1.
    9900012    2    1    2    0    0  0.34331676513E+02 -0.92861259766E+01 -0.27644482150E+02  0.46142317175E+02  0.99999946521E+01 0.  0.
        -12    1    1    2    0    0 -0.34331676513E+02  0.92861259766E+01  0.27644482150E+02  0.45045682825E+02  0.00000000000E+00 0.  1.
         11    1    3    3    0    0  0.12330965206E+02 -0.15406554532E+01 -0.11949973275E+02  0.17240306948E+02  0.51100000000E-03 0. -1.
        -11    1    3    3    0    0  0.14383911580E+02 -0.72620946115E+01 -0.77313909297E+01  0.17872026647E+02  0.51100000000E-03 0.  1.
        -12    1    3    3    0    0  0.76167997265E+01 -0.48337591180E+00 -0.79631179460E+01  0.11029983580E+02  0.00000000000E+00 0.  1.
</event>
<event>
 7    1  0.1486782E-008  0.4614232E+02  0.7816164E-02  0.1320468E+00
        -11   -1    0    0    0    0  0.00000000000E+00  0.00000000000E+00  0.45593999997E+02  0.45594000000E+02  0.51100000000E-03 0.  1.
         11   -1    0    0    0    0 -0.00000000000E+00 -0.00000000000E+00 -0.45593999997E+02  0.45594000000E+02  0.51100000000E-03 0. -1.
    9900012    2    1    2    0    0  0.40846715429E+02 -0.14208044896E+02 -0.12601221163E+02  0.46142317900E+02  0.10000001266E+02 0.  0.
        -12    1    1    2    0    0 -0.40846715429E+02  0.14208044896E+02  0.12601221163E+02  0.45045682100E+02  0.00000000000E+00 0.  1.
         11    1    3    3    0    0  0.25768793143E+02 -0.12647573114E+02 -0.70935771391E+01  0.29568744353E+02  0.51100000000E-03 0. -1.
        -11    1    3    3    0    0  0.77258030881E+01  0.11063832287E+01 -0.29842684840E+01  0.83557151609E+01  0.51100000000E-03 0.  1.
        -12    1    3    3    0    0  0.73521191977E+01 -0.26668550105E+01 -0.25233755394E+01  0.82178583863E+01  0.00000000000E+00 0.  1.
</event>
<event>
 7    1  0.1486782E-008  0.4614231E+02  0.7816164E-02  0.1320468E+00
        -11   -1    0    0    0    0  0.00000000000E+00  0.00000000000E+00  0.45593999997E+02  0.45594000000E+02  0.51100000000E-03 0.  1.
         11   -1    0    0    0    0 -0.00000000000E+00 -0.00000000000E+00 -0.45593999997E+02  0.45594000000E+02  0.51100000000E-03 0. -1.
    9900012    2    1    2    0    0  0.41553226627E+02 -0.12055140835E+02 -0.12534629957E+02  0.46142311950E+02  0.99999470109E+01 0.  0.
        -12    1    1    2    0    0 -0.41553226627E+02  0.12055140835E+02  0.12534629957E+02  0.45045688050E+02  0.00000000000E+00 0.  1.
         11    1    3    3    0    0  0.16375768088E+02 -0.73800649093E+01 -0.87055308172E+00  0.17983019809E+02  0.51100000000E-03 0.  1.
        -11    1    3    3    0    0  0.16348720613E+02 -0.25916406001E+01 -0.72459940610E+01  0.18069357954E+02  0.51100000000E-03 0. -1.
         12    1    3    3    0    0  0.88287379266E+01 -0.20834353261E+01 -0.44180828147E+01  0.10089934187E+02  0.00000000000E+00 0. -1.
</event>
<event>
 7    1  0.1486782E-008  0.4614232E+02  0.7816164E-02  0.1320468E+00
        -11   -1    0    0    0    0  0.00000000000E+00  0.00000000000E+00  0.45593999997E+02  0.45594000000E+02  0.51100000000E-03 0. -1.
         11   -1    0    0    0    0 -0.00000000000E+00 -0.00000000000E+00 -0.45593999997E+02  0.45594000000E+02  0.51100000000E-03 0.  1.
    9900012    2    1    2    0    0 -0.13716311909E+02 -0.37691794472E+02  0.20501338851E+02  0.46142317881E+02  0.10000001097E+02 0.  0.
        -12    1    1    2    0    0  0.13716311909E+02  0.37691794472E+02 -0.20501338851E+02  0.45045682119E+02  0.00000000000E+00 0.  1.
         11    1    3    3    0    0 -0.50246889348E+01 -0.23977097286E+02  0.13605894019E+02  0.28022652363E+02  0.51100000000E-03 0. -1.
        -11    1    3    3    0    0 -0.22547268466E+01 -0.47575892741E+01  0.31163803927E+00  0.52740465852E+01  0.51100000000E-03 0.  1.
         12    1    3    3    0    0 -0.64368961274E+01 -0.89571079117E+01  0.65838067926E+01  0.12845618933E+02  0.00000000000E+00 0. -1.
</event>
<event>
 7    1  0.1486782E-008  0.4614232E+02  0.7816164E-02  0.1320468E+00
        -11   -1    0    0    0    0  0.00000000000E+00  0.00000000000E+00  0.45593999997E+02  0.45594000000E+02  0.51100000000E-03 0.  1.
         11   -1    0    0    0    0 -0.00000000000E+00 -0.00000000000E+00 -0.45593999997E+02  0.45594000000E+02  0.51100000000E-03 0. -1.
    9900012    2    1    2    0    0  0.21574852666E+02 -0.57702836410E+01 -0.39119599312E+02  0.46142317730E+02  0.99999997159E+01 0.  0.
        -12    1    1    2    0    0 -0.21574852666E+02  0.57702836410E+01  0.39119599312E+02  0.45045682270E+02  0.00000000000E+00 0.  1.
         11    1    3    3    0    0  0.14772925262E+02 -0.79905788141E+01 -0.30466755307E+02  0.34789536498E+02  0.51100000000E-03 0. -1.
        -11    1    3    3    0    0  0.49855098885E+01  0.86062648224E+00 -0.63631564027E+01  0.81293140213E+01  0.51100000000E-03 0.  1.
         12    1    3    3    0    0  0.18164175161E+01  0.13596686909E+01 -0.22896876022E+01  0.32234672105E+01  0.00000000000E+00 0. -1.
</event>
<event>
 7    1  0.1486782E-008  0.4614232E+02  0.7816164E-02  0.1320468E+00
        -11   -1    0    0    0    0  0.00000000000E+00  0.00000000000E+00  0.45593999997E+02  0.45594000000E+02  0.51100000000E-03 0. -1.
         11   -1    0    0    0    0 -0.00000000000E+00 -0.00000000000E+00 -0.45593999997E+02  0.45594000000E+02  0.51100000000E-03 0.  1.
    9900012    2    1    2    0    0 -0.17803197206E+02 -0.32828307391E+02  0.25188527382E+02  0.46142317537E+02  0.99999979535E+01 0.  0.
        -12    1    1    2    0    0  0.17803197206E+02  0.32828307391E+02 -0.25188527382E+02  0.45045682463E+02  0.00000000000E+00 0.  1.
         11    1    3    3    0    0 -0.82170896118E+01 -0.10489334675E+02  0.84280391981E+01  0.15766373984E+02  0.51100000000E-03 0. -1.
        -11    1    3    3    0    0 -0.81464250026E+01 -0.18104163689E+02  0.98947852013E+01  0.22181788874E+02  0.51100000000E-03 0.  1.
        -12    1    3    3    0    0 -0.14396825916E+01 -0.42348090268E+01  0.68657029824E+01  0.81941546789E+01  0.00000000000E+00 0.  1.
</event>
<event>
 7    1  0.1486782E-008  0.4614232E+02  0.7816164E-02  0.1320468E+00
        -11   -1    0    0    0    0  0.00000000000E+00  0.00000000000E+00  0.45593999997E+02  0.45594000000E+02  0.51100000000E-03 0.  1.
         11   -1    0    0    0    0 -0.00000000000E+00 -0.00000000000E+00 -0.45593999997E+02  0.45594000000E+02  0.51100000000E-03 0. -1.
    9900012    2    1    2    0    0  0.38417685683E+02 -0.19262645520E+02 -0.13496116996E+02  0.46142320300E+02  0.10000023153E+02 0.  0.
        -12    1    1    2    0    0 -0.38417685683E+02  0.19262645520E+02  0.13496116996E+02  0.45045679700E+02  0.00000000000E+00 0.  1.
         11    1    3    3    0    0  0.34476041682E+02 -0.17878872162E+02 -0.11736868517E+02  0.40570994598E+02  0.51100000000E-03 0. -1.
        -11    1    3    3    0    0  0.68873586584E+00  0.86033286978E+00 -0.11141726202E+01  0.15671345279E+01  0.51100000000E-03 0.  1.
        -12    1    3    3    0    0  0.32529081353E+01 -0.22441062270E+01 -0.64507585939E+00  0.40041911742E+01  0.00000000000E+00 0.  1.
</event>
<event>
 7    1  0.1486782E-008  0.4614232E+02  0.7816164E-02  0.1320468E+00
        -11   -1    0    0    0    0  0.00000000000E+00  0.00000000000E+00  0.45593999997E+02  0.45594000000E+02  0.51100000000E-03 0. -1.
         11   -1    0    0    0    0 -0.00000000000E+00 -0.00000000000E+00 -0.45593999997E+02  0.45594000000E+02  0.51100000000E-03 0.  1.
    9900012    2    1    2    0    0 -0.26601458294E+02  0.16092574781E+02  0.32596088548E+02  0.46142317242E+02  0.99999952688E+01 0.  0.
        -12    1    1    2    0    0  0.26601458294E+02 -0.16092574781E+02 -0.32596088548E+02  0.45045682758E+02  0.00000000000E+00 0.  1.
         11    1    3    3    0    0 -0.27902397061E+01  0.19895339683E+01  0.45887711460E+01  0.57271724192E+01  0.51100000000E-03 0. -1.
        -11    1    3    3    0    0  0.45823845420E+00  0.16339583383E+01  0.27663793218E+01  0.32454055440E+01  0.51100000000E-03 0.  1.
        -12    1    3    3    0    0 -0.24269457042E+02  0.12469082475E+02  0.25240938081E+02  0.37169739279E+02  0.00000000000E+00 0.  1.
</event>
<event>
 7    1  0.1486782E-008  0.4614232E+02  0.7816164E-02  0.1320468E+00
        -11   -1    0    0    0    0  0.00000000000E+00  0.00000000000E+00  0.45593999997E+02  0.45594000000E+02  0.51100000000E-03 0.  1.
         11   -1    0    0    0    0 -0.00000000000E+00 -0.00000000000E+00 -0.45593999997E+02  0.45594000000E+02  0.51100000000E-03 0. -1.
    9900012    2    1    2    0    0 -0.34529466726E+02 -0.27410291066E+02 -0.92469124677E+01  0.46142317422E+02  0.99999969111E+01 0.  0.
        -12    1    1    2    0    0  0.34529466726E+02  0.27410291066E+02  0.92469124677E+01  0.45045682578E+02  0.00000000000E+00 0.  1.
         11    1    3    3    0    0 -0.24641062501E+02 -0.16812811063E+02 -0.38463449552E+01  0.30077349397E+02  0.51100000000E-03 0. -1.
        -11    1    3    3    0    0 -0.84525006137E-01 -0.18366641049E+01  0.32058199478E-01  0.18388875714E+01  0.51100000000E-03 0.  1.
         12    1    3    3    0    0 -0.98038792194E+01 -0.87608158980E+01 -0.54326257120E+01  0.14226080454E+02  0.00000000000E+00 0. -1.
</event>
<event>
 7    1  0.1486782E-008  0.4614231E+02  0.7816164E-02  0.1320468E+00
        -11   -1    0    0    0    0  0.00000000000E+00  0.00000000000E+00  0.45593999997E+02  0.45594000000E+02  0.51100000000E-03 0.  1.
         11   -1    0    0    0    0 -0.00000000000E+00 -0.00000000000E+00 -0.45593999997E+02  0.45594000000E+02  0.51100000000E-03 0. -1.
    9900012    2    1    2    0    0 -0.13453584826E+02 -0.38159335159E+02 -0.19798485928E+02  0.46142313753E+02  0.99999634473E+01 0.  0.
        -12    1    1    2    0    0  0.13453584826E+02  0.38159335159E+02  0.19798485928E+02  0.45045686247E+02  0.00000000000E+00 0.  1.
         11    1    3    3    0    0 -0.40710503059E+01 -0.17795669798E+02 -0.82589559243E+01  0.20036707997E+02  0.51100000000E-03 0. -1.
        -11    1    3    3    0    0 -0.90591114809E+01 -0.12791374677E+02 -0.63073842640E+01  0.16895853440E+02  0.51100000000E-03 0.  1.
        -12    1    3    3    0    0 -0.32342303927E+00 -0.75722906842E+01 -0.52321457397E+01  0.92097523153E+01  0.00000000000E+00 0.  1.
</event>
<event>
 7    1  0.1486782E-008  0.4614232E+02  0.7816164E-02  0.1320468E+00
        -11   -1    0    0    0    0  0.00000000000E+00  0.00000000000E+00  0.45593999997E+02  0.45594000000E+02  0.51100000000E-03 0.  1.
         11   -1    0    0    0    0 -0.00000000000E+00 -0.00000000000E+00 -0.45593999997E+02  0.45594000000E+02  0.51100000000E-03 0. -1.
    9900012    2    1    2    0    0  0.35344740232E+02  0.26237703891E+02 -0.95627250399E+01  0.46142317879E+02  0.10000001075E+02 0.  0.
        -12    1    1    2    0    0 -0.35344740232E+02 -0.26237703891E+02  0.95627250399E+01  0.45045682121E+02  0.00000000000E+00 0.  1.
         11    1    3    3    0    0  0.20002727490E+01  0.40055671257E+01 -0.22251714445E+01  0.49997047200E+01  0.51100000000E-03 0. -1.
        -11    1    3    3    0    0  0.59297801706E+01  0.39973544404E+01  0.88583645146E+00  0.72059587754E+01  0.51100000000E-03 0.  1.
        -12    1    3    3    0    0  0.27414687312E+02  0.18234782325E+02 -0.82233900468E+01  0.33936654384E+02  0.00000000000E+00 0.  1.
</event>
<event>
 7    1  0.1486782E-008  0.4614232E+02  0.7816164E-02  0.1320468E+00
        -11   -1    0    0    0    0  0.00000000000E+00  0.00000000000E+00  0.45593999997E+02  0.45594000000E+02  0.51100000000E-03 0.  1.
         11   -1    0    0    0    0 -0.00000000000E+00 -0.00000000000E+00 -0.45593999997E+02  0.45594000000E+02  0.51100000000E-03 0. -1.
    9900012    2    1    2    0    0 -0.23545099613E+02 -0.34944540841E+02 -0.15925481725E+02  0.46142316316E+02  0.99999868197E+01 0.  0.
        -12    1    1    2    0    0  0.23545099613E+02  0.34944540841E+02  0.15925481725E+02  0.45045683684E+02  0.00000000000E+00 0.  1.
         11    1    3    3    0    0 -0.97056139285E+01 -0.11346458093E+02 -0.10152540297E+02  0.18055889005E+02  0.51100000000E-03 0. -1.
        -11    1    3    3    0    0 -0.11902707519E+02 -0.19711047489E+02 -0.57927994130E+01  0.23743554172E+02  0.51100000000E-03 0.  1.
         12    1    3    3    0    0 -0.19367781653E+01 -0.38870352586E+01  0.19857985098E-01  0.43428731391E+01  0.00000000000E+00 0. -1.
</event>
<event>
 7    1  0.1486782E-008  0.4614232E+02  0.7816164E-02  0.1320468E+00
        -11   -1    0    0    0    0  0.00000000000E+00  0.00000000000E+00  0.45593999997E+02  0.45594000000E+02  0.51100000000E-03 0. -1.
         11   -1    0    0    0    0 -0.00000000000E+00 -0.00000000000E+00 -0.45593999997E+02  0.45594000000E+02  0.51100000000E-03 0.  1.
    9900012    2    1    2    0    0  0.37868867207E+02 -0.13478489060E+02  0.20332061281E+02  0.46142317778E+02  0.10000000153E+02 0.  0.
        -12    1    1    2    0    0 -0.37868867207E+02  0.13478489060E+02 -0.20332061281E+02  0.45045682222E+02  0.00000000000E+00 0.  1.
         11    1    3    3    0    0 -0.12644178933E+00 -0.64452910226E+00 -0.44966462456E+00  0.79599235264E+00  0.51100000000E-03 0. -1.
        -11    1    3    3    0    0  0.22477936391E+02 -0.72217249912E+01  0.14397968632E+02  0.27653434456E+02  0.51100000000E-03 0.  1.
         12    1    3    3    0    0  0.15517372606E+02 -0.56122349669E+01  0.63837572736E+01  0.17692890969E+02  0.00000000000E+00 0. -1.
</event>
<event>
 7    1  0.1486782E-008  0.4614232E+02  0.7816164E-02  0.1320468E+00
        -11   -1    0    0    0    0  0.00000000000E+00  0.00000000000E+00  0.45593999997E+02  0.45594000000E+02  0.51100000000E-03 0.  1.
         11   -1    0    0    0    0 -0.00000000000E+00 -0.00000000000E+00 -0.45593999997E+02  0.45594000000E+02  0.51100000000E-03 0. -1.
    9900012    2    1    2    0    0  0.33800440144E+02 -0.24532915904E+02 -0.16875418730E+02  0.46142317920E+02  0.10000001453E+02 0.  0.
        -12    1    1    2    0    0 -0.33800440144E+02  0.24532915904E+02  0.16875418730E+02  0.45045682080E+02  0.00000000000E+00 0.  1.
         11    1    3    3    0    0  0.85321312291E+01 -0.65876257680E+01 -0.62830875118E+01  0.12476829145E+02  0.51100000000E-03 0. -1.
        -11    1    3    3    0    0  0.32380017228E+01 -0.24876512657E+01  0.12392831505E+01  0.42671872428E+01  0.51100000000E-03 0.  1.
         12    1    3    3    0    0  0.22030307192E+02 -0.15457638870E+02 -0.11831614369E+02  0.29398301533E+02  0.00000000000E+00 0. -1.
</event>
<event>
 7    1  0.1486782E-008  0.4614232E+02  0.7816164E-02  0.1320468E+00
        -11   -1    0    0    0    0  0.00000000000E+00  0.00000000000E+00  0.45593999997E+02  0.45594000000E+02  0.51100000000E-03 0. -1.
         11   -1    0    0    0    0 -0.00000000000E+00 -0.00000000000E+00 -0.45593999997E+02  0.45594000000E+02  0.51100000000E-03 0.  1.
    9900012    2    1    2    0    0  0.39788973629E+01 -0.42892443233E+02 -0.13172685830E+02  0.46142323596E+02  0.10000053207E+02 0.  0.
        -12    1    1    2    0    0 -0.39788973629E+01  0.42892443233E+02  0.13172685830E+02  0.45045676404E+02  0.00000000000E+00 0.  1.
         11    1    3    3    0    0  0.10339091158E+01 -0.17769331570E+02 -0.26229195645E+01  0.17991604148E+02  0.51100000000E-03 0. -1.
        -11    1    3    3    0    0  0.43221750687E+01 -0.12278090120E+02 -0.68693935419E+01  0.14718059051E+02  0.51100000000E-03 0.  1.
        -12    1    3    3    0    0 -0.13771868216E+01 -0.12845021542E+02 -0.36803727237E+01  0.13432660397E+02  0.00000000000E+00 0.  1.
</event>
<event>
 7    1  0.1486782E-008  0.4614232E+02  0.7816164E-02  0.1320468E+00
        -11   -1    0    0    0    0  0.00000000000E+00  0.00000000000E+00  0.45593999997E+02  0.45594000000E+02  0.51100000000E-03 0.  1.
         11   -1    0    0    0    0 -0.00000000000E+00 -0.00000000000E+00 -0.45593999997E+02  0.45594000000E+02  0.51100000000E-03 0. -1.
    9900012    2    1    2    0    0 -0.21513267738E+02 -0.31391677721E+01 -0.39451722590E+02  0.46142317872E+02  0.10000001013E+02 0.  0.
        -12    1    1    2    0    0  0.21513267738E+02  0.31391677721E+01  0.39451722590E+02  0.45045682128E+02  0.00000000000E+00 0.  1.
         11    1    3    3    0    0 -0.17670084391E+02 -0.14275994468E+01 -0.33619381739E+02  0.38007009240E+02  0.51100000000E-03 0. -1.
        -11    1    3    3    0    0 -0.10798692713E+01  0.12185941955E+01 -0.14113272852E+01  0.21547469512E+01  0.51100000000E-03 0.  1.
         12    1    3    3    0    0 -0.27633140753E+01 -0.29301625208E+01 -0.44210135654E+01  0.59805616812E+01  0.00000000000E+00 0. -1.
</event>
<event>
 7    1  0.1486782E-008  0.4614232E+02  0.7816164E-02  0.1320468E+00
        -11   -1    0    0    0    0  0.00000000000E+00  0.00000000000E+00  0.45593999997E+02  0.45594000000E+02  0.51100000000E-03 0.  1.
         11   -1    0    0    0    0 -0.00000000000E+00 -0.00000000000E+00 -0.45593999997E+02  0.45594000000E+02  0.51100000000E-03 0. -1.
    9900012    2    1    2    0    0  0.13276793943E+02 -0.27209939372E+02 -0.33353545092E+02  0.46142322869E+02  0.10000046577E+02 0.  0.
        -12    1    1    2    0    0 -0.13276793943E+02  0.27209939372E+02  0.33353545092E+02  0.45045677131E+02  0.00000000000E+00 0.  1.
         11    1    3    3    0    0  0.26027785005E+01 -0.13803945963E+02 -0.15044252591E+02  0.20582830621E+02  0.51100000000E-03 0.  1.
        -11    1    3    3    0    0  0.10055716288E+02 -0.10546180594E+02 -0.13148975873E+02  0.19627402323E+02  0.51100000000E-03 0. -1.
         12    1    3    3    0    0  0.61829915415E+00 -0.28598128141E+01 -0.51603166278E+01  0.59320899247E+01  0.00000000000E+00 0. -1.
</event>
<event>
 7    1  0.1486782E-008  0.4614232E+02  0.7816164E-02  0.1320468E+00
        -11   -1    0    0    0    0  0.00000000000E+00  0.00000000000E+00  0.45593999997E+02  0.45594000000E+02  0.51100000000E-03 0.  1.
         11   -1    0    0    0    0 -0.00000000000E+00 -0.00000000000E+00 -0.45593999997E+02  0.45594000000E+02  0.51100000000E-03 0. -1.
    9900012    2    1    2    0    0 -0.17771040358E+02  0.38438074986E+02 -0.15356367275E+02  0.46142317633E+02  0.99999988279E+01 0.  0.
        -12    1    1    2    0    0  0.17771040358E+02 -0.38438074986E+02  0.15356367275E+02  0.45045682367E+02  0.00000000000E+00 0.  1.
         11    1    3    3    0    0 -0.13469490691E+02  0.32002230896E+02 -0.10416748402E+02  0.36250222197E+02  0.51100000000E-03 0. -1.
        -11    1    3    3    0    0 -0.34999711815E+01  0.44554996357E+01 -0.15305189170E+01  0.58688809574E+01  0.51100000000E-03 0.  1.
         12    1    3    3    0    0 -0.80157848607E+00  0.19803444541E+01 -0.34090999560E+01  0.40232144781E+01  0.00000000000E+00 0. -1.
</event>
<event>
 7    1  0.1486782E-008  0.4614232E+02  0.7816164E-02  0.1320468E+00
        -11   -1    0    0    0    0  0.00000000000E+00  0.00000000000E+00  0.45593999997E+02  0.45594000000E+02  0.51100000000E-03 0.  1.
         11   -1    0    0    0    0 -0.00000000000E+00 -0.00000000000E+00 -0.45593999997E+02  0.45594000000E+02  0.51100000000E-03 0. -1.
    9900012    2    1    2    0    0 -0.17089368999E+02  0.31533700469E+02 -0.27252388760E+02  0.46142317730E+02  0.99999997165E+01 0.  0.
        -12    1    1    2    0    0  0.17089368999E+02 -0.31533700469E+02  0.27252388760E+02  0.45045682270E+02  0.00000000000E+00 0.  1.
         11    1    3    3    0    0 -0.14131892370E+02  0.18255574781E+02 -0.19329637129E+02  0.30109986123E+02  0.51100000000E-03 0. -1.
        -11    1    3    3    0    0 -0.11037704899E+01  0.10674858827E+02 -0.63612844865E+01  0.12475450327E+02  0.51100000000E-03 0.  1.
        -12    1    3    3    0    0 -0.18537061388E+01  0.26032668603E+01 -0.15614671446E+01  0.35568812798E+01  0.00000000000E+00 0.  1.
</event>
<event>
 7    1  0.1486782E-008  0.4614232E+02  0.7816164E-02  0.1320468E+00
        -11   -1    0    0    0    0  0.00000000000E+00  0.00000000000E+00  0.45593999997E+02  0.45594000000E+02  0.51100000000E-03 0.  1.
         11   -1    0    0    0    0 -0.00000000000E+00 -0.00000000000E+00 -0.45593999997E+02  0.45594000000E+02  0.51100000000E-03 0. -1.
    9900012    2    1    2    0    0 -0.30460262840E+02  0.11575188067E+02 -0.31101461528E+02  0.46142317629E+02  0.99999987987E+01 0.  0.
        -12    1    1    2    0    0  0.30460262840E+02 -0.11575188067E+02  0.31101461528E+02  0.45045682371E+02  0.00000000000E+00 0.  1.
         11    1    3    3    0    0 -0.24386271846E+02  0.11953831909E+02 -0.25017296126E+02  0.36924916487E+02  0.51100000000E-03 0. -1.
        -11    1    3    3    0    0 -0.36674676470E+01 -0.13101144017E+01 -0.51851281211E+01  0.64847723615E+01  0.51100000000E-03 0.  1.
         12    1    3    3    0    0 -0.24065233462E+01  0.93147055991E+00 -0.89903728100E+00  0.27326287805E+01  0.00000000000E+00 0. -1.
</event>
<event>
 7    1  0.1486782E-008  0.4614232E+02  0.7816164E-02  0.1320468E+00
        -11   -1    0    0    0    0  0.00000000000E+00  0.00000000000E+00  0.45593999997E+02  0.45594000000E+02  0.51100000000E-03 0.  1.
         11   -1    0    0    0    0 -0.00000000000E+00 -0.00000000000E+00 -0.45593999997E+02  0.45594000000E+02  0.51100000000E-03 0. -1.
    9900012    2    1    2    0    0 -0.31819509586E+02 -0.35020006517E+01 -0.31691772922E+02  0.46142315747E+02  0.99999816364E+01 0.  0.
        -12    1    1    2    0    0  0.31819509586E+02  0.35020006517E+01  0.31691772922E+02  0.45045684253E+02  0.00000000000E+00 0.  1.
         11    1    3    3    0    0 -0.11167210404E+01 -0.11193466977E+01 -0.46623009143E+01  0.49231141556E+01  0.51100000000E-03 0. -1.
        -11    1    3    3    0    0 -0.17575011767E+02 -0.18805255222E+01 -0.12609611748E+02  0.21712202181E+02  0.51100000000E-03 0.  1.
         12    1    3    3    0    0 -0.13127776779E+02 -0.50212843183E+00 -0.14419860259E+02  0.19506999411E+02  0.00000000000E+00 0. -1.
</event>
<event>
 7    1  0.1486782E-008  0.4614231E+02  0.7816164E-02  0.1320468E+00
        -11   -1    0    0    0    0  0.00000000000E+00  0.00000000000E+00  0.45593999997E+02  0.45594000000E+02  0.51100000000E-03 0. -1.
         11   -1    0    0    0    0 -0.00000000000E+00 -0.00000000000E+00 -0.45593999997E+02  0.45594000000E+02  0.51100000000E-03 0.  1.
    9900012    2    1    2    0    0  0.26349852674E+02 -0.36534505195E+02  0.17242810211E+00  0.46142306119E+02  0.99998938370E+01 0.  0.
        -12    1    1    2    0    0 -0.26349852674E+02  0.36534505195E+02 -0.17242810211E+00  0.45045693881E+02  0.00000000000E+00 0.  1.
         11    1    3    3    0    0  0.15047227934E+01 -0.15221744464E+01  0.22394537614E+01  0.30977990801E+01  0.51100000000E-03 0. -1.
        -11    1    3    3    0    0  0.19929679445E+02 -0.29395039453E+02 -0.21570371973E+01  0.35579675054E+02  0.51100000000E-03 0.  1.
         12    1    3    3    0    0  0.49154504358E+01 -0.56172912957E+01  0.90011538027E-01  0.74648319850E+01  0.00000000000E+00 0. -1.
</event>
<event>
 7    1  0.1486782E-008  0.4614232E+02  0.7816164E-02  0.1320468E+00
        -11   -1    0    0    0    0  0.00000000000E+00  0.00000000000E+00  0.45593999997E+02  0.45594000000E+02  0.51100000000E-03 0.  1.
         11   -1    0    0    0    0 -0.00000000000E+00 -0.00000000000E+00 -0.45593999997E+02  0.45594000000E+02  0.51100000000E-03 0. -1.
    9900012    2    1    2    0    0  0.28645860050E+00  0.21942133524E+02 -0.39339219327E+02  0.46142318083E+02  0.10000002935E+02 0.  0.
        -12    1    1    2    0    0 -0.28645860050E+00 -0.21942133524E+02  0.39339219327E+02  0.45045681917E+02  0.00000000000E+00 0.  1.
         11    1    3    3    0    0  0.48411726178E+00  0.14941106081E+01  0.17619621280E+00  0.15804370911E+01  0.51100000000E-03 0.  1.
        -11    1    3    3    0    0 -0.34383858944E+00  0.14988224452E+02 -0.26499835583E+02  0.30446779524E+02  0.51100000000E-03 0. -1.
        -12    1    3    3    0    0  0.14617992816E+00  0.54597984638E+01 -0.13015579957E+02  0.14115101468E+02  0.00000000000E+00 0.  1.
</event>
<event>
 7    1  0.1486782E-008  0.4614232E+02  0.7816164E-02  0.1320468E+00
        -11   -1    0    0    0    0  0.00000000000E+00  0.00000000000E+00  0.45593999997E+02  0.45594000000E+02  0.51100000000E-03 0.  1.
         11   -1    0    0    0    0 -0.00000000000E+00 -0.00000000000E+00 -0.45593999997E+02  0.45594000000E+02  0.51100000000E-03 0. -1.
    9900012    2    1    2    0    0  0.15412508371E+02 -0.15311243697E+01 -0.42299217751E+02  0.46142316761E+02  0.99999908779E+01 0.  0.
        -12    1    1    2    0    0 -0.15412508371E+02  0.15311243697E+01  0.42299217751E+02  0.45045683239E+02  0.00000000000E+00 0.  1.
         11    1    3    3    0    0  0.13699106210E+01  0.13265644876E+01 -0.12188273147E+02  0.12336548586E+02  0.51100000000E-03 0. -1.
        -11    1    3    3    0    0  0.67188947647E+01 -0.35636518934E+01 -0.19143571785E+02  0.20599017031E+02  0.51100000000E-03 0.  1.
        -12    1    3    3    0    0  0.73237029852E+01  0.70596303608E+00 -0.10967372819E+02  0.13206751144E+02  0.00000000000E+00 0.  1.
</event>
<event>
 7    1  0.1486782E-008  0.4614232E+02  0.7816164E-02  0.1320468E+00
        -11   -1    0    0    0    0  0.00000000000E+00  0.00000000000E+00  0.45593999997E+02  0.45594000000E+02  0.51100000000E-03 0.  1.
         11   -1    0    0    0    0 -0.00000000000E+00 -0.00000000000E+00 -0.45593999997E+02  0.45594000000E+02  0.51100000000E-03 0. -1.
    9900012    2    1    2    0    0  0.28842858212E+02 -0.29322030253E+02 -0.18369036243E+02  0.46142318515E+02  0.10000006871E+02 0.  0.
        -12    1    1    2    0    0 -0.28842858212E+02  0.29322030253E+02  0.18369036243E+02  0.45045681485E+02  0.00000000000E+00 0.  1.
         11    1    3    3    0    0  0.61646369768E+01 -0.58116027553E+01 -0.54337690256E+01  0.10064955128E+02  0.51100000000E-03 0. -1.
        -11    1    3    3    0    0  0.29906979409E+01 -0.15225065195E+00 -0.21279643513E+01  0.36736476391E+01  0.51100000000E-03 0.  1.
        -12    1    3    3    0    0  0.19687523294E+02 -0.23358176846E+02 -0.10807302866E+02  0.32403715748E+02  0.00000000000E+00 0.  1.
</event>
<event>
 7    1  0.1486782E-008  0.4614232E+02  0.7816164E-02  0.1320468E+00
        -11   -1    0    0    0    0  0.00000000000E+00  0.00000000000E+00  0.45593999997E+02  0.45594000000E+02  0.51100000000E-03 0. -1.
         11   -1    0    0    0    0 -0.00000000000E+00 -0.00000000000E+00 -0.45593999997E+02  0.45594000000E+02  0.51100000000E-03 0.  1.
    9900012    2    1    2    0    0  0.10878179043E+02 -0.10163410379E+02  0.42514509387E+02  0.46142320981E+02  0.10000029361E+02 0.  0.
        -12    1    1    2    0    0 -0.10878179043E+02  0.10163410379E+02 -0.42514509387E+02  0.45045679019E+02  0.00000000000E+00 0.  1.
         11    1    3    3    0    0 -0.52862857602E+00 -0.17381250092E+01  0.30173126079E+01  0.35220309984E+01  0.51100000000E-03 0.  1.
        -11    1    3    3    0    0  0.68360483939E+01 -0.85762466681E+01  0.22683361263E+02  0.25195603644E+02  0.51100000000E-03 0. -1.
        -12    1    3    3    0    0  0.45707592251E+01  0.15096129790E+00  0.16813835517E+02  0.17424686338E+02  0.00000000000E+00 0.  1.
</event>
<event>
 7    1  0.1486782E-008  0.4614232E+02  0.7816164E-02  0.1320468E+00
        -11   -1    0    0    0    0  0.00000000000E+00  0.00000000000E+00  0.45593999997E+02  0.45594000000E+02  0.51100000000E-03 0. -1.
         11   -1    0    0    0    0 -0.00000000000E+00 -0.00000000000E+00 -0.45593999997E+02  0.45594000000E+02  0.51100000000E-03 0.  1.
    9900012    2    1    2    0    0 -0.24312420787E+02  0.19802833790E+02  0.32339875223E+02  0.46142316966E+02  0.99999927451E+01 0.  0.
        -12    1    1    2    0    0  0.24312420787E+02 -0.19802833790E+02 -0.32339875223E+02  0.45045683034E+02  0.00000000000E+00 0.  1.
         11    1    3    3    0    0 -0.76794542853E+01  0.40775441114E+01  0.90454637655E+01  0.12546744562E+02  0.51100000000E-03 0. -1.
        -11    1    3    3    0    0 -0.72701176330E+01  0.22306588013E+01  0.55369075946E+01  0.94067951534E+01  0.51100000000E-03 0.  1.
        -12    1    3    3    0    0 -0.93628488685E+01  0.13494630877E+02  0.17757503863E+02  0.24188777250E+02  0.00000000000E+00 0.  1.
</event>
<event>
 7    1  0.1486782E-008  0.4614232E+02  0.7816164E-02  0.1320468E+00
        -11   -1    0    0    0    0  0.00000000000E+00  0.00000000000E+00  0.45593999997E+02  0.45594000000E+02  0.51100000000E-03 0. -1.
         11   -1    0    0    0    0 -0.00000000000E+00 -0.00000000000E+00 -0.45593999997E+02  0.45594000000E+02  0.51100000000E-03 0.  1.
    9900012    2    1    2    0    0 -0.42045416021E+02  0.82312016657E+00  0.16143694891E+02  0.46142318521E+02  0.10000006931E+02 0.  0.
        -12    1    1    2    0    0  0.42045416021E+02 -0.82312016657E+00 -0.16143694891E+02  0.45045681479E+02  0.00000000000E+00 0.  1.
         11    1    3    3    0    0 -0.17133775489E+02 -0.27447970318E+01  0.79105415302E+01  0.19070313076E+02  0.51100000000E-03 0. -1.
        -11    1    3    3    0    0 -0.53778434602E+01 -0.23419249076E+00  0.40508972832E+01  0.67368995440E+01  0.51100000000E-03 0.  1.
         12    1    3    3    0    0 -0.19533797071E+02  0.38021096891E+01  0.41822560779E+01  0.20335105901E+02  0.00000000000E+00 0. -1.
</event>
<event>
 7    1  0.1486782E-008  0.4614232E+02  0.7816164E-02  0.1320468E+00
        -11   -1    0    0    0    0  0.00000000000E+00  0.00000000000E+00  0.45593999997E+02  0.45594000000E+02  0.51100000000E-03 0.  1.
         11   -1    0    0    0    0 -0.00000000000E+00 -0.00000000000E+00 -0.45593999997E+02  0.45594000000E+02  0.51100000000E-03 0. -1.
    9900012    2    1    2    0    0 -0.24692198158E+02  0.29976743322E+02 -0.22821123410E+02  0.46142318035E+02  0.10000002496E+02 0.  0.
        -12    1    1    2    0    0  0.24692198158E+02 -0.29976743322E+02  0.22821123410E+02  0.45045681965E+02  0.00000000000E+00 0.  1.
         11    1    3    3    0    0 -0.13865868496E+02  0.17587897917E+02 -0.15114392421E+02  0.27019276838E+02  0.51100000000E-03 0. -1.
        -11    1    3    3    0    0 -0.41167019948E+01  0.52642289716E+01 -0.26895485215E-01  0.66828186873E+01  0.51100000000E-03 0.  1.
        -12    1    3    3    0    0 -0.67096276668E+01  0.71246164325E+01 -0.76798355030E+01  0.12440222510E+02  0.00000000000E+00 0.  1.
</event>
<event>
 7    1  0.1486782E-008  0.4614232E+02  0.7816164E-02  0.1320468E+00
        -11   -1    0    0    0    0  0.00000000000E+00  0.00000000000E+00  0.45593999997E+02  0.45594000000E+02  0.51100000000E-03 0.  1.
         11   -1    0    0    0    0 -0.00000000000E+00 -0.00000000000E+00 -0.45593999997E+02  0.45594000000E+02  0.51100000000E-03 0. -1.
    9900012    2    1    2    0    0  0.31943192351E+01  0.14165739225E+02 -0.42640840449E+02  0.46142321880E+02  0.10000037556E+02 0.  0.
        -12    1    1    2    0    0 -0.31943192351E+01 -0.14165739225E+02  0.42640840449E+02  0.45045678120E+02  0.00000000000E+00 0.  1.
         11    1    3    3    0    0  0.21981387467E+01  0.90117996344E+01 -0.29323935220E+02  0.30756097341E+02  0.51100000000E-03 0. -1.
        -11    1    3    3    0    0  0.21028372551E+01  0.19436291434E+01 -0.10762759674E+02  0.11137172659E+02  0.51100000000E-03 0.  1.
        -12    1    3    3    0    0 -0.11066567667E+01  0.32103104467E+01 -0.25541455548E+01  0.42490518800E+01  0.00000000000E+00 0.  1.
</event>
<event>
 7    1  0.1486782E-008  0.4614232E+02  0.7816164E-02  0.1320468E+00
        -11   -1    0    0    0    0  0.00000000000E+00  0.00000000000E+00  0.45593999997E+02  0.45594000000E+02  0.51100000000E-03 0. -1.
         11   -1    0    0    0    0 -0.00000000000E+00 -0.00000000000E+00 -0.45593999997E+02  0.45594000000E+02  0.51100000000E-03 0.  1.
    9900012    2    1    2    0    0 -0.80811545462E+01 -0.42519262602E+02 -0.12486823281E+02  0.46142317558E+02  0.99999981445E+01 0.  0.
        -12    1    1    2    0    0  0.80811545462E+01  0.42519262602E+02  0.12486823281E+02  0.45045682442E+02  0.00000000000E+00 0.  1.
         11    1    3    3    0    0 -0.52630505703E+01 -0.36071411945E+02 -0.11846963576E+02  0.38330105756E+02  0.51100000000E-03 0. -1.
        -11    1    3    3    0    0 -0.28259637718E+01 -0.51602212255E+01  0.73432659594E+00  0.59290125777E+01  0.51100000000E-03 0.  1.
        -12    1    3    3    0    0  0.78597958536E-02 -0.12876294321E+01 -0.13741863001E+01  0.18831992242E+01  0.00000000000E+00 0.  1.
</event>
<event>
 7    1  0.1486782E-008  0.4614231E+02  0.7816164E-02  0.1320468E+00
        -11   -1    0    0    0    0  0.00000000000E+00  0.00000000000E+00  0.45593999997E+02  0.45594000000E+02  0.51100000000E-03 0.  1.
         11   -1    0    0    0    0 -0.00000000000E+00 -0.00000000000E+00 -0.45593999997E+02  0.45594000000E+02  0.51100000000E-03 0. -1.
    9900012    2    1    2    0    0  0.45000577858E+02 -0.20141635810E+01 -0.71431512079E-01  0.46142312471E+02  0.99999517602E+01 0.  0.
        -12    1    1    2    0    0 -0.45000577858E+02  0.20141635810E+01  0.71431512079E-01  0.45045687529E+02  0.00000000000E+00 0.  1.
         11    1    3    3    0    0  0.35427530057E+02  0.60730137398E+00 -0.95698703721E+00  0.35445655945E+02  0.51100000000E-03 0. -1.
        -11    1    3    3    0    0  0.10088999489E+01 -0.17451747187E+01 -0.17170477256E+00  0.20231155913E+01  0.51100000000E-03 0.  1.
         12    1    3    3    0    0  0.85641478521E+01 -0.87629023631E+00  0.10572602977E+01  0.86735409348E+01  0.00000000000E+00 0. -1.
</event>
<event>
 7    1  0.1486782E-008  0.4614232E+02  0.7816164E-02  0.1320468E+00
        -11   -1    0    0    0    0  0.00000000000E+00  0.00000000000E+00  0.45593999997E+02  0.45594000000E+02  0.51100000000E-03 0.  1.
         11   -1    0    0    0    0 -0.00000000000E+00 -0.00000000000E+00 -0.45593999997E+02  0.45594000000E+02  0.51100000000E-03 0. -1.
    9900012    2    1    2    0    0 -0.15668562548E+02  0.90088039020E+01 -0.41260768951E+02  0.46142318137E+02  0.10000003431E+02 0.  0.
        -12    1    1    2    0    0  0.15668562548E+02 -0.90088039020E+01  0.41260768951E+02  0.45045681863E+02  0.00000000000E+00 0.  1.
         11    1    3    3    0    0 -0.86788171330E+01  0.15633997260E+01 -0.15298117405E+02  0.17657816454E+02  0.51100000000E-03 0. -1.
        -11    1    3    3    0    0  0.52502127984E+00 -0.46627821008E+00 -0.26998672683E+01  0.27896856886E+01  0.51100000000E-03 0.  1.
         12    1    3    3    0    0 -0.75147666946E+01  0.79116823861E+01 -0.23262784278E+02  0.25694815995E+02  0.00000000000E+00 0. -1.
</event>
<event>
 7    1  0.1486782E-008  0.4614232E+02  0.7816164E-02  0.1320468E+00
        -11   -1    0    0    0    0  0.00000000000E+00  0.00000000000E+00  0.45593999997E+02  0.45594000000E+02  0.51100000000E-03 0. -1.
         11   -1    0    0    0    0 -0.00000000000E+00 -0.00000000000E+00 -0.45593999997E+02  0.45594000000E+02  0.51100000000E-03 0.  1.
    9900012    2    1    2    0    0 -0.39340028600E+02 -0.21301810468E+02  0.52638539269E+01  0.46142321654E+02  0.10000035500E+02 0.  0.
        -12    1    1    2    0    0  0.39340028600E+02  0.21301810468E+02 -0.52638539269E+01  0.45045678346E+02  0.00000000000E+00 0.  1.
         11    1    3    3    0    0 -0.27714292961E+02 -0.13067467589E+02  0.75289468321E+01  0.31551953730E+02  0.51100000000E-03 0. -1.
        -11    1    3    3    0    0 -0.67584096722E+01 -0.60214411147E+01 -0.11019728513E+01  0.91185634187E+01  0.51100000000E-03 0.  1.
        -12    1    3    3    0    0 -0.48673259672E+01 -0.22129017640E+01 -0.11631200539E+01  0.54718045056E+01  0.00000000000E+00 0.  1.
</event>
<event>
 7    1  0.1486782E-008  0.4614232E+02  0.7816164E-02  0.1320468E+00
        -11   -1    0    0    0    0  0.00000000000E+00  0.00000000000E+00  0.45593999997E+02  0.45594000000E+02  0.51100000000E-03 0.  1.
         11   -1    0    0    0    0 -0.00000000000E+00 -0.00000000000E+00 -0.45593999997E+02  0.45594000000E+02  0.51100000000E-03 0. -1.
    9900012    2    1    2    0    0  0.70141276176E+01 -0.37937998436E+02 -0.23251315793E+02  0.46142318768E+02  0.10000009186E+02 0.  0.
        -12    1    1    2    0    0 -0.70141276176E+01  0.37937998436E+02  0.23251315793E+02  0.45045681232E+02  0.00000000000E+00 0.  1.
         11    1    3    3    0    0  0.56629785886E+00 -0.15365447350E+02 -0.71202274705E+01  0.16944477124E+02  0.51100000000E-03 0. -1.
        -11    1    3    3    0    0  0.23234029777E+01 -0.27969728751E+01 -0.53162957461E+00  0.36747637920E+01  0.51100000000E-03 0.  1.
         12    1    3    3    0    0  0.41244267810E+01 -0.19775578211E+02 -0.15599458747E+02  0.25523077852E+02  0.00000000000E+00 0. -1.
</event>
<event>
 7    1  0.1486782E-008  0.4614232E+02  0.7816164E-02  0.1320468E+00
        -11   -1    0    0    0    0  0.00000000000E+00  0.00000000000E+00  0.45593999997E+02  0.45594000000E+02  0.51100000000E-03 0.  1.
         11   -1    0    0    0    0 -0.00000000000E+00 -0.00000000000E+00 -0.45593999997E+02  0.45594000000E+02  0.51100000000E-03 0. -1.
    9900012    2    1    2    0    0  0.38238347709E+02  0.22934434647E+02  0.63995292207E+01  0.46142317606E+02  0.99999985887E+01 0.  0.
        -12    1    1    2    0    0 -0.38238347709E+02 -0.22934434647E+02 -0.63995292207E+01  0.45045682394E+02  0.00000000000E+00 0.  1.
         11    1    3    3    0    0  0.18101348404E+02  0.14568966985E+02  0.29512375817E+01  0.23422711555E+02  0.51100000000E-03 0. -1.
        -11    1    3    3    0    0  0.78490311945E+00 -0.88700316649E-01 -0.85867086626E+00  0.11667290049E+01  0.51100000000E-03 0.  1.
        -12    1    3    3    0    0  0.19352096185E+02  0.84541679786E+01  0.43069625053E+01  0.21552877046E+02  0.00000000000E+00 0.  1.
</event>
<event>
 7    1  0.1486782E-008  0.4614232E+02  0.7816164E-02  0.1320468E+00
        -11   -1    0    0    0    0  0.00000000000E+00  0.00000000000E+00  0.45593999997E+02  0.45594000000E+02  0.51100000000E-03 0.  1.
         11   -1    0    0    0    0 -0.00000000000E+00 -0.00000000000E+00 -0.45593999997E+02  0.45594000000E+02  0.51100000000E-03 0. -1.
    9900012    2    1    2    0    0 -0.35143501286E+02  0.26989702228E+02 -0.80996086736E+01  0.46142319079E+02  0.10000012020E+02 0.  0.
        -12    1    1    2    0    0  0.35143501286E+02 -0.26989702228E+02  0.80996086736E+01  0.45045680921E+02  0.00000000000E+00 0.  1.
         11    1    3    3    0    0 -0.12666642544E+02  0.64765926275E+01 -0.18715687226E+01  0.14348967041E+02  0.51100000000E-03 0. -1.
        -11    1    3    3    0    0 -0.20459560305E+02  0.17078598389E+02 -0.33099648796E+01  0.26855688384E+02  0.51100000000E-03 0.  1.
        -12    1    3    3    0    0 -0.20172984366E+01  0.34345112112E+01 -0.29180750714E+01  0.49376636544E+01  0.00000000000E+00 0.  1.
</event>
<event>
 7    1  0.1486782E-008  0.4614231E+02  0.7816164E-02  0.1320468E+00
        -11   -1    0    0    0    0  0.00000000000E+00  0.00000000000E+00  0.45593999997E+02  0.45594000000E+02  0.51100000000E-03 0.  1.
         11   -1    0    0    0    0 -0.00000000000E+00 -0.00000000000E+00 -0.45593999997E+02  0.45594000000E+02  0.51100000000E-03 0. -1.
    9900012    2    1    2    0    0  0.32557013574E+02 -0.18365147803E+02 -0.25137143024E+02  0.46142314901E+02  0.99999739152E+01 0.  0.
        -12    1    1    2    0    0 -0.32557013574E+02  0.18365147803E+02  0.25137143024E+02  0.45045685099E+02  0.00000000000E+00 0.  1.
         11    1    3    3    0    0  0.98522258820E+01 -0.35314258678E+01 -0.45841534861E+01  0.11425926087E+02  0.51100000000E-03 0. -1.
        -11    1    3    3    0    0  0.13728023536E+02 -0.11471671544E+02 -0.16400086944E+02  0.24269749283E+02  0.51100000000E-03 0.  1.
        -12    1    3    3    0    0  0.89767641557E+01 -0.33620503917E+01 -0.41529025937E+01  0.10446639531E+02  0.00000000000E+00 0.  1.
</event>
<event>
 7    1  0.1486782E-008  0.4614232E+02  0.7816164E-02  0.1320468E+00
        -11   -1    0    0    0    0  0.00000000000E+00  0.00000000000E+00  0.45593999997E+02  0.45594000000E+02  0.51100000000E-03 0.  1.
         11   -1    0    0    0    0 -0.00000000000E+00 -0.00000000000E+00 -0.45593999997E+02  0.45594000000E+02  0.51100000000E-03 0. -1.
    9900012    2    1    2    0    0 -0.27081515068E+02  0.22075891609E+02 -0.28431673017E+02  0.46142317862E+02  0.10000000924E+02 0.  0.
        -12    1    1    2    0    0  0.27081515068E+02 -0.22075891609E+02  0.28431673017E+02  0.45045682138E+02  0.00000000000E+00 0.  1.
         11    1    3    3    0    0 -0.12133795931E+02  0.12223461005E+02 -0.11052854953E+02  0.20464789407E+02  0.51100000000E-03 0. -1.
        -11    1    3    3    0    0 -0.14133045371E+02  0.10671948521E+02 -0.16674082900E+02  0.24324031276E+02  0.51100000000E-03 0.  1.
        -12    1    3    3    0    0 -0.81467376658E+00 -0.81951791720E+00 -0.70473516453E+00  0.13534971794E+01  0.00000000000E+00 0.  1.
</event>
<event>
 7    1  0.1486782E-008  0.4614232E+02  0.7816164E-02  0.1320468E+00
        -11   -1    0    0    0    0  0.00000000000E+00  0.00000000000E+00  0.45593999997E+02  0.45594000000E+02  0.51100000000E-03 0.  1.
         11   -1    0    0    0    0 -0.00000000000E+00 -0.00000000000E+00 -0.45593999997E+02  0.45594000000E+02  0.51100000000E-03 0. -1.
    9900012    2    1    2    0    0 -0.86197340053E+01  0.13561918471E+02 -0.42081920436E+02  0.46142317915E+02  0.10000001400E+02 0.  0.
        -12    1    1    2    0    0  0.86197340053E+01 -0.13561918471E+02  0.42081920436E+02  0.45045682085E+02  0.00000000000E+00 0.  1.
         11    1    3    3    0    0 -0.50654532162E-01  0.43020515469E+01 -0.13901336095E+02  0.14551885063E+02  0.51100000000E-03 0. -1.
        -11    1    3    3    0    0 -0.73785995796E+01  0.53815631223E+01 -0.13069070015E+02  0.15943824658E+02  0.51100000000E-03 0.  1.
        -12    1    3    3    0    0 -0.11904798935E+01  0.38783038018E+01 -0.15111514326E+02  0.15646608194E+02  0.00000000000E+00 0.  1.
</event>
<event>
 7    1  0.1486782E-008  0.4614232E+02  0.7816164E-02  0.1320468E+00
        -11   -1    0    0    0    0  0.00000000000E+00  0.00000000000E+00  0.45593999997E+02  0.45594000000E+02  0.51100000000E-03 0. -1.
         11   -1    0    0    0    0 -0.00000000000E+00 -0.00000000000E+00 -0.45593999997E+02  0.45594000000E+02  0.51100000000E-03 0.  1.
    9900012    2    1    2    0    0  0.22563011734E+02  0.99148629547E+01  0.37705696352E+02  0.46142317151E+02  0.99999944371E+01 0.  0.
        -12    1    1    2    0    0 -0.22563011734E+02 -0.99148629547E+01 -0.37705696352E+02  0.45045682849E+02  0.00000000000E+00 0.  1.
         11    1    3    3    0    0  0.12449607078E+02  0.53425858526E+01  0.19245165567E+02  0.23535342316E+02  0.51100000000E-03 0. -1.
        -11    1    3    3    0    0  0.21570111859E+01  0.32365059446E+01  0.10810566189E+02  0.11488951631E+02  0.51100000000E-03 0.  1.
        -12    1    3    3    0    0  0.79563934703E+01  0.13357711575E+01  0.76499645961E+01  0.11118023204E+02  0.00000000000E+00 0.  1.
</event>
<event>
 7    1  0.1486782E-008  0.4614232E+02  0.7816164E-02  0.1320468E+00
        -11   -1    0    0    0    0  0.00000000000E+00  0.00000000000E+00  0.45593999997E+02  0.45594000000E+02  0.51100000000E-03 0.  1.
         11   -1    0    0    0    0 -0.00000000000E+00 -0.00000000000E+00 -0.45593999997E+02  0.45594000000E+02  0.51100000000E-03 0. -1.
    9900012    2    1    2    0    0 -0.11910301221E+02 -0.18615385036E+02 -0.39252078267E+02  0.46142317816E+02  0.10000000496E+02 0.  0.
        -12    1    1    2    0    0  0.11910301221E+02  0.18615385036E+02  0.39252078267E+02  0.45045682184E+02  0.00000000000E+00 0.  1.
         11    1    3    3    0    0 -0.40383541983E+01 -0.90105988316E+01 -0.14808041615E+02  0.17798238471E+02  0.51100000000E-03 0.  1.
        -11    1    3    3    0    0 -0.81759834141E+01 -0.10000143994E+02 -0.19594733743E+02  0.23469196309E+02  0.51100000000E-03 0. -1.
        -12    1    3    3    0    0  0.30403639151E+00  0.39535778924E+00 -0.48493029080E+01  0.48748830348E+01  0.00000000000E+00 0.  1.
</event>
<event>
 7    1  0.1486782E-008  0.4614232E+02  0.7816164E-02  0.1320468E+00
        -11   -1    0    0    0    0  0.00000000000E+00  0.00000000000E+00  0.45593999997E+02  0.45594000000E+02  0.51100000000E-03 0.  1.
         11   -1    0    0    0    0 -0.00000000000E+00 -0.00000000000E+00 -0.45593999997E+02  0.45594000000E+02  0.51100000000E-03 0. -1.
    9900012    2    1    2    0    0 -0.34025852171E+01 -0.11126385233E+01 -0.44903206759E+02  0.46142317323E+02  0.99999960032E+01 0.  0.
        -12    1    1    2    0    0  0.34025852171E+01  0.11126385233E+01  0.44903206759E+02  0.45045682677E+02  0.00000000000E+00 0.  1.
         11    1    3    3    0    0 -0.10600056374E-01  0.19705410611E+00 -0.20313461698E+01  0.20409091612E+01  0.51100000000E-03 0. -1.
        -11    1    3    3    0    0 -0.24620635228E+01 -0.18341071233E+01 -0.42922931675E+02  0.43032589622E+02  0.51100000000E-03 0.  1.
        -12    1    3    3    0    0 -0.92992163785E+00  0.52441449396E+00  0.51071086462E-01  0.10688185393E+01  0.00000000000E+00 0.  1.
</event>
<event>
 7    1  0.1486782E-008  0.4614232E+02  0.7816164E-02  0.1320468E+00
        -11   -1    0    0    0    0  0.00000000000E+00  0.00000000000E+00  0.45593999997E+02  0.45594000000E+02  0.51100000000E-03 0. -1.
         11   -1    0    0    0    0 -0.00000000000E+00 -0.00000000000E+00 -0.45593999997E+02  0.45594000000E+02  0.51100000000E-03 0.  1.
    9900012    2    1    2    0    0 -0.34439414744E+02 -0.22139626798E+02  0.18785030527E+02  0.46142315029E+02  0.99999750837E+01 0.  0.
        -12    1    1    2    0    0  0.34439414744E+02  0.22139626798E+02 -0.18785030527E+02  0.45045684971E+02  0.00000000000E+00 0.  1.
         11    1    3    3    0    0 -0.26967008678E+02 -0.14373299289E+02  0.16395613103E+02  0.34678918939E+02  0.51100000000E-03 0. -1.
        -11    1    3    3    0    0 -0.68686600789E+01 -0.53110802931E+01  0.17967708849E+01  0.88664790663E+01  0.51100000000E-03 0.  1.
         12    1    3    3    0    0 -0.60374598692E+00 -0.24552472156E+01  0.59264653897E+00  0.25969170235E+01  0.00000000000E+00 0. -1.
</event>
<event>
 7    1  0.1486782E-008  0.4614232E+02  0.7816164E-02  0.1320468E+00
        -11   -1    0    0    0    0  0.00000000000E+00  0.00000000000E+00  0.45593999997E+02  0.45594000000E+02  0.51100000000E-03 0.  1.
         11   -1    0    0    0    0 -0.00000000000E+00 -0.00000000000E+00 -0.45593999997E+02  0.45594000000E+02  0.51100000000E-03 0. -1.
    9900012    2    1    2    0    0  0.44154631529E+02  0.88829960909E+01 -0.75783039597E+00  0.46142318610E+02  0.10000007741E+02 0.  0.
        -12    1    1    2    0    0 -0.44154631529E+02 -0.88829960909E+01  0.75783039597E+00  0.45045681390E+02  0.00000000000E+00 0.  1.
         11    1    3    3    0    0  0.10942429056E+02  0.57276296382E+01  0.20863867078E+01  0.12525793575E+02  0.51100000000E-03 0. -1.
        -11    1    3    3    0    0  0.11733113048E+02  0.10133968404E-01 -0.82503287743E-01  0.11733407500E+02  0.51100000000E-03 0.  1.
         12    1    3    3    0    0  0.21479089424E+02  0.31452324843E+01 -0.27617138160E+01  0.21883117536E+02  0.00000000000E+00 0. -1.
</event>
<event>
 7    1  0.1486782E-008  0.4614232E+02  0.7816164E-02  0.1320468E+00
        -11   -1    0    0    0    0  0.00000000000E+00  0.00000000000E+00  0.45593999997E+02  0.45594000000E+02  0.51100000000E-03 0. -1.
         11   -1    0    0    0    0 -0.00000000000E+00 -0.00000000000E+00 -0.45593999997E+02  0.45594000000E+02  0.51100000000E-03 0.  1.
    9900012    2    1    2    0    0  0.18730165382E+01 -0.44609212549E+02  0.59685379896E+01  0.46142317843E+02  0.10000000751E+02 0.  0.
        -12    1    1    2    0    0 -0.18730165382E+01  0.44609212549E+02 -0.59685379896E+01  0.45045682157E+02  0.00000000000E+00 0.  1.
         11    1    3    3    0    0 -0.12891469586E+01 -0.57192384716E+01  0.38710825856E+00  0.58754950124E+01  0.51100000000E-03 0. -1.
        -11    1    3    3    0    0 -0.16072324692E+01 -0.24450683826E+02  0.16428628823E+01  0.24558463602E+02  0.51100000000E-03 0.  1.
         12    1    3    3    0    0  0.47693959661E+01 -0.14439290251E+02  0.39385668487E+01  0.15708359229E+02  0.00000000000E+00 0. -1.
</event>
<event>
 7    1  0.1486782E-008  0.4614232E+02  0.7816164E-02  0.1320468E+00
        -11   -1    0    0    0    0  0.00000000000E+00  0.00000000000E+00  0.45593999997E+02  0.45594000000E+02  0.51100000000E-03 0. -1.
         11   -1    0    0    0    0 -0.00000000000E+00 -0.00000000000E+00 -0.45593999997E+02  0.45594000000E+02  0.51100000000E-03 0.  1.
    9900012    2    1    2    0    0 -0.24478025689E+02  0.16515892480E+02  0.34017127375E+02  0.46142318732E+02  0.10000008855E+02 0.  0.
        -12    1    1    2    0    0  0.24478025689E+02 -0.16515892480E+02 -0.34017127375E+02  0.45045681268E+02  0.00000000000E+00 0.  1.
         11    1    3    3    0    0 -0.33467969009E+01  0.41860655848E+01  0.59194958369E+01  0.79852755620E+01  0.51100000000E-03 0. -1.
        -11    1    3    3    0    0 -0.19665103959E+02  0.94506202067E+01  0.27066918913E+02  0.34765624339E+02  0.51100000000E-03 0.  1.
        -12    1    3    3    0    0 -0.14661248287E+01  0.28792066889E+01  0.10307126251E+01  0.33914188309E+01  0.00000000000E+00 0.  1.
</event>
<event>
 7    1  0.1486782E-008  0.4614232E+02  0.7816164E-02  0.1320468E+00
        -11   -1    0    0    0    0  0.00000000000E+00  0.00000000000E+00  0.45593999997E+02  0.45594000000E+02  0.51100000000E-03 0.  1.
         11   -1    0    0    0    0 -0.00000000000E+00 -0.00000000000E+00 -0.45593999997E+02  0.45594000000E+02  0.51100000000E-03 0. -1.
    9900012    2    1    2    0    0 -0.42922623232E+02 -0.86324612117E+01 -0.10594448261E+02  0.46142319790E+02  0.10000018497E+02 0.  0.
        -12    1    1    2    0    0  0.42922623232E+02  0.86324612117E+01  0.10594448261E+02  0.45045680210E+02  0.00000000000E+00 0.  1.
         11    1    3    3    0    0 -0.12350711663E+02 -0.25435666997E+01  0.53571259248E+00  0.12621283547E+02  0.51100000000E-03 0. -1.
        -11    1    3    3    0    0 -0.90633806341E+01 -0.43138455823E+01 -0.35305517105E+01  0.10640438331E+02  0.51100000000E-03 0.  1.
        -12    1    3    3    0    0 -0.21508530935E+02 -0.17750489297E+01 -0.75996091433E+01  0.22880597912E+02  0.00000000000E+00 0.  1.
</event>
<event>
 7    1  0.1486782E-008  0.4614232E+02  0.7816164E-02  0.1320468E+00
        -11   -1    0    0    0    0  0.00000000000E+00  0.00000000000E+00  0.45593999997E+02  0.45594000000E+02  0.51100000000E-03 0.  1.
         11   -1    0    0    0    0 -0.00000000000E+00 -0.00000000000E+00 -0.45593999997E+02  0.45594000000E+02  0.51100000000E-03 0. -1.
    9900012    2    1    2    0    0 -0.43101123876E+02 -0.13067558208E+02 -0.80347042548E+00  0.46142317392E+02  0.99999966311E+01 0.  0.
        -12    1    1    2    0    0  0.43101123876E+02  0.13067558208E+02  0.80347042548E+00  0.45045682608E+02  0.00000000000E+00 0.  1.
         11    1    3    3    0    0 -0.93260248534E+01 -0.25058588949E+01  0.15389150558E+00  0.96580407549E+01  0.51100000000E-03 0. -1.
        -11    1    3    3    0    0 -0.30305958425E+02 -0.70759233208E+01 -0.27674523455E+01  0.31243856991E+02  0.51100000000E-03 0.  1.
        -12    1    3    3    0    0 -0.34691405975E+01 -0.34857759926E+01  0.18100904144E+01  0.52404196458E+01  0.00000000000E+00 0.  1.
</event>
<event>
 7    1  0.1486782E-008  0.4614232E+02  0.7816164E-02  0.1320468E+00
        -11   -1    0    0    0    0  0.00000000000E+00  0.00000000000E+00  0.45593999997E+02  0.45594000000E+02  0.51100000000E-03 0. -1.
         11   -1    0    0    0    0 -0.00000000000E+00 -0.00000000000E+00 -0.45593999997E+02  0.45594000000E+02  0.51100000000E-03 0.  1.
    9900012    2    1    2    0    0 -0.12855580874E+02 -0.11487591587E+02  0.41615897879E+02  0.46142315674E+02  0.99999809698E+01 0.  0.
        -12    1    1    2    0    0  0.12855580874E+02  0.11487591587E+02 -0.41615897879E+02  0.45045684326E+02  0.00000000000E+00 0.  1.
         11    1    3    3    0    0 -0.41958849620E+01 -0.14603780679E+01  0.56312068433E+01  0.71727711164E+01  0.51100000000E-03 0. -1.
        -11    1    3    3    0    0  0.80597442532E+00 -0.31457161737E+01  0.73187738917E+01  0.80068456060E+01  0.51100000000E-03 0.  1.
         12    1    3    3    0    0 -0.94656703377E+01 -0.68814973450E+01  0.28665917144E+02  0.30962698952E+02  0.00000000000E+00 0. -1.
</event>
<event>
 7    1  0.1486782E-008  0.4614232E+02  0.7816164E-02  0.1320468E+00
        -11   -1    0    0    0    0  0.00000000000E+00  0.00000000000E+00  0.45593999997E+02  0.45594000000E+02  0.51100000000E-03 0.  1.
         11   -1    0    0    0    0 -0.00000000000E+00 -0.00000000000E+00 -0.45593999997E+02  0.45594000000E+02  0.51100000000E-03 0. -1.
    9900012    2    1    2    0    0  0.55028796955E+01  0.20583051557E+02 -0.39688408795E+02  0.46142317754E+02  0.99999999314E+01 0.  0.
        -12    1    1    2    0    0 -0.55028796955E+01 -0.20583051557E+02  0.39688408795E+02  0.45045682246E+02  0.00000000000E+00 0.  1.
         11    1    3    3    0    0 -0.49694851783E+00  0.11876055487E+01 -0.63302934381E+01  0.64598746150E+01  0.51100000000E-03 0. -1.
        -11    1    3    3    0    0 -0.62393091688E+00  0.87683800514E+01 -0.11285557200E+02  0.14305159212E+02  0.51100000000E-03 0.  1.
        -12    1    3    3    0    0  0.66237591302E+01  0.10627065957E+02 -0.22072558157E+02  0.25377283926E+02  0.00000000000E+00 0.  1.
</event>
<event>
 7    1  0.1486782E-008  0.4614232E+02  0.7816164E-02  0.1320468E+00
        -11   -1    0    0    0    0  0.00000000000E+00  0.00000000000E+00  0.45593999997E+02  0.45594000000E+02  0.51100000000E-03 0.  1.
         11   -1    0    0    0    0 -0.00000000000E+00 -0.00000000000E+00 -0.45593999997E+02  0.45594000000E+02  0.51100000000E-03 0. -1.
    9900012    2    1    2    0    0  0.17437003552E+01  0.40740022409E+02 -0.19139567261E+02  0.46142323718E+02  0.10000054317E+02 0.  0.
        -12    1    1    2    0    0 -0.17437003552E+01 -0.40740022409E+02  0.19139567261E+02  0.45045676282E+02  0.00000000000E+00 0.  1.
         11    1    3    3    0    0  0.97420987025E+00  0.10285615903E+02 -0.83911563273E+00  0.10365669041E+02  0.51100000000E-03 0.  1.
        -11    1    3    3    0    0  0.81117259385E+00  0.29390917672E+02 -0.16583057017E+02  0.33756211619E+02  0.51100000000E-03 0. -1.
         12    1    3    3    0    0 -0.41682108869E-01  0.10634888344E+01 -0.17173946106E+01  0.20204430573E+01  0.00000000000E+00 0. -1.
</event>
<event>
 7    1  0.1486782E-008  0.4614232E+02  0.7816164E-02  0.1320468E+00
        -11   -1    0    0    0    0  0.00000000000E+00  0.00000000000E+00  0.45593999997E+02  0.45594000000E+02  0.51100000000E-03 0.  1.
         11   -1    0    0    0    0 -0.00000000000E+00 -0.00000000000E+00 -0.45593999997E+02  0.45594000000E+02  0.51100000000E-03 0. -1.
    9900012    2    1    2    0    0  0.14995926814E+02 -0.16195446475E+02 -0.39267584319E+02  0.46142317790E+02  0.10000000261E+02 0.  0.
        -12    1    1    2    0    0 -0.14995926814E+02  0.16195446475E+02  0.39267584319E+02  0.45045682210E+02  0.00000000000E+00 0.  1.
         11    1    3    3    0    0  0.91600835284E+01 -0.49812307492E+01 -0.23247785342E+02  0.25478997500E+02  0.51100000000E-03 0. -1.
        -11    1    3    3    0    0 -0.15533197623E-01 -0.20885270065E+01 -0.37357495403E+01  0.42799545823E+01  0.51100000000E-03 0.  1.
         12    1    3    3    0    0  0.58513764831E+01 -0.91256887190E+01 -0.12284049437E+02  0.16383365707E+02  0.00000000000E+00 0. -1.
</event>
<event>
 7    1  0.1486782E-008  0.4614232E+02  0.7816164E-02  0.1320468E+00
        -11   -1    0    0    0    0  0.00000000000E+00  0.00000000000E+00  0.45593999997E+02  0.45594000000E+02  0.51100000000E-03 0.  1.
         11   -1    0    0    0    0 -0.00000000000E+00 -0.00000000000E+00 -0.45593999997E+02  0.45594000000E+02  0.51100000000E-03 0. -1.
    9900012    2    1    2    0    0  0.32061734605E+02 -0.26126379686E+02  0.17848553237E+02  0.46142318808E+02  0.10000009548E+02 0.  0.
        -12    1    1    2    0    0 -0.32061734605E+02  0.26126379686E+02 -0.17848553237E+02  0.45045681192E+02  0.00000000000E+00 0.  1.
         11    1    3    3    0    0  0.15085209615E+02 -0.12124756273E+02  0.46190989490E+01  0.19897470673E+02  0.51100000000E-03 0. -1.
        -11    1    3    3    0    0  0.16576284240E+02 -0.12208461643E+02  0.13103374446E+02  0.24403240708E+02  0.51100000000E-03 0.  1.
         12    1    3    3    0    0  0.40024074961E+00 -0.17931617700E+01  0.12607984185E+00  0.18416074276E+01  0.00000000000E+00 0. -1.
</event>
<event>
 7    1  0.1486782E-008  0.4614232E+02  0.7816164E-02  0.1320468E+00
        -11   -1    0    0    0    0  0.00000000000E+00  0.00000000000E+00  0.45593999997E+02  0.45594000000E+02  0.51100000000E-03 0.  1.
         11   -1    0    0    0    0 -0.00000000000E+00 -0.00000000000E+00 -0.45593999997E+02  0.45594000000E+02  0.51100000000E-03 0. -1.
    9900012    2    1    2    0    0 -0.10668310880E+02 -0.32793370479E+02 -0.28980951242E+02  0.46142317196E+02  0.99999948456E+01 0.  0.
        -12    1    1    2    0    0  0.10668310880E+02  0.32793370479E+02  0.28980951242E+02  0.45045682804E+02  0.00000000000E+00 0.  1.
         11    1    3    3    0    0 -0.58704967784E+01 -0.19935223841E+02 -0.20266596058E+02  0.29027759094E+02  0.51100000000E-03 0. -1.
        -11    1    3    3    0    0 -0.37367823033E+01 -0.29438587819E+01 -0.26882045372E+01  0.54640909952E+01  0.51100000000E-03 0.  1.
        -12    1    3    3    0    0 -0.10610317982E+01 -0.99142878561E+01 -0.60261506472E+01  0.11650467106E+02  0.00000000000E+00 0.  1.
</event>
<event>
 7    1  0.1486782E-008  0.4614232E+02  0.7816164E-02  0.1320468E+00
        -11   -1    0    0    0    0  0.00000000000E+00  0.00000000000E+00  0.45593999997E+02  0.45594000000E+02  0.51100000000E-03 0. -1.
         11   -1    0    0    0    0 -0.00000000000E+00 -0.00000000000E+00 -0.45593999997E+02  0.45594000000E+02  0.51100000000E-03 0.  1.
    9900012    2    1    2    0    0  0.46632224679E+01 -0.44655143858E+02 -0.36449939548E+01  0.46142317657E+02  0.99999990516E+01 0.  0.
        -12    1    1    2    0    0 -0.46632224679E+01  0.44655143858E+02  0.36449939548E+01  0.45045682343E+02  0.00000000000E+00 0.  1.
         11    1    3    3    0    0  0.53728692335E+00 -0.51841535774E+01  0.16604499251E+01  0.54700292291E+01  0.51100000000E-03 0. -1.
        -11    1    3    3    0    0  0.42156101212E+01 -0.36508465715E+02 -0.67650320795E+01  0.37368504075E+02  0.51100000000E-03 0.  1.
        -12    1    3    3    0    0 -0.89674576642E-01 -0.29625245664E+01  0.14595881997E+01  0.33037843526E+01  0.00000000000E+00 0.  1.
</event>
<event>
 7    1  0.1486782E-008  0.4614232E+02  0.7816164E-02  0.1320468E+00
        -11   -1    0    0    0    0  0.00000000000E+00  0.00000000000E+00  0.45593999997E+02  0.45594000000E+02  0.51100000000E-03 0.  1.
         11   -1    0    0    0    0 -0.00000000000E+00 -0.00000000000E+00 -0.45593999997E+02  0.45594000000E+02  0.51100000000E-03 0. -1.
    9900012    2    1    2    0    0 -0.37545373407E+01 -0.19455374643E+02 -0.40453742363E+02  0.46142318472E+02  0.10000006484E+02 0.  0.
        -12    1    1    2    0    0  0.37545373407E+01  0.19455374643E+02  0.40453742363E+02  0.45045681528E+02  0.00000000000E+00 0.  1.
         11    1    3    3    0    0 -0.67596494875E+01 -0.14794525654E+02 -0.26747987407E+02  0.31305361859E+02  0.51100000000E-03 0. -1.
        -11    1    3    3    0    0  0.24379436812E+01 -0.40437497688E+01 -0.12553176693E+02  0.13411850243E+02  0.51100000000E-03 0.  1.
         12    1    3    3    0    0  0.56716846562E+00 -0.61709922036E+00 -0.11525782624E+01  0.14251063704E+01  0.00000000000E+00 0. -1.
</event>
<event>
 7    1  0.1486782E-008  0.4614232E+02  0.7816164E-02  0.1320468E+00
        -11   -1    0    0    0    0  0.00000000000E+00  0.00000000000E+00  0.45593999997E+02  0.45594000000E+02  0.51100000000E-03 0.  1.
         11   -1    0    0    0    0 -0.00000000000E+00 -0.00000000000E+00 -0.45593999997E+02  0.45594000000E+02  0.51100000000E-03 0. -1.
    9900012    2    1    2    0    0  0.13219032337E+02 -0.36063889413E+02 -0.23532242185E+02  0.46142319211E+02  0.10000013220E+02 0.  0.
        -12    1    1    2    0    0 -0.13219032337E+02  0.36063889413E+02  0.23532242185E+02  0.45045680789E+02  0.00000000000E+00 0.  1.
         11    1    3    3    0    0  0.88013406778E+01 -0.21561214813E+02 -0.12880556536E+02  0.26613123058E+02  0.51100000000E-03 0. -1.
        -11    1    3    3    0    0  0.33729625757E+01 -0.56379621549E+01 -0.77130165306E+01  0.10131836855E+02  0.51100000000E-03 0.  1.
        -12    1    3    3    0    0  0.10447290834E+01 -0.88647124450E+01 -0.29386691176E+01  0.93973592978E+01  0.00000000000E+00 0.  1.
</event>
<event>
 7    1  0.1486782E-008  0.4614232E+02  0.7816164E-02  0.1320468E+00
        -11   -1    0    0    0    0  0.00000000000E+00  0.00000000000E+00  0.45593999997E+02  0.45594000000E+02  0.51100000000E-03 0. -1.
         11   -1    0    0    0    0 -0.00000000000E+00 -0.00000000000E+00 -0.45593999997E+02  0.45594000000E+02  0.51100000000E-03 0.  1.
    9900012    2    1    2    0    0 -0.10487997926E+02 -0.35305422738E+02  0.25935352000E+02  0.46142318092E+02  0.10000003015E+02 0.  0.
        -12    1    1    2    0    0  0.10487997926E+02  0.35305422738E+02 -0.25935352000E+02  0.45045681908E+02  0.00000000000E+00 0.  1.
         11    1    3    3    0    0  0.76931374790E+00 -0.58731416776E+01  0.70021997459E+01  0.91715014229E+01  0.51100000000E-03 0. -1.
        -11    1    3    3    0    0 -0.10417194630E+02 -0.23900222466E+02  0.16603154366E+02  0.30909599044E+02  0.51100000000E-03 0.  1.
        -12    1    3    3    0    0 -0.84011704424E+00 -0.55320585940E+01  0.23299978884E+01  0.60612176248E+01  0.00000000000E+00 0.  1.
</event>
<event>
 7    1  0.1486782E-008  0.4614232E+02  0.7816164E-02  0.1320468E+00
        -11   -1    0    0    0    0  0.00000000000E+00  0.00000000000E+00  0.45593999997E+02  0.45594000000E+02  0.51100000000E-03 0.  1.
         11   -1    0    0    0    0 -0.00000000000E+00 -0.00000000000E+00 -0.45593999997E+02  0.45594000000E+02  0.51100000000E-03 0. -1.
    9900012    2    1    2    0    0 -0.10314753166E+02 -0.10759160034E+02 -0.42508350006E+02  0.46142317879E+02  0.10000001073E+02 0.  0.
        -12    1    1    2    0    0  0.10314753166E+02  0.10759160034E+02  0.42508350006E+02  0.45045682121E+02  0.00000000000E+00 0.  1.
         11    1    3    3    0    0 -0.68879432908E+01 -0.10356243986E+02 -0.29193372752E+02  0.31732452870E+02  0.51100000000E-03 0. -1.
        -11    1    3    3    0    0  0.72528720659E-01  0.63186694971E+00 -0.34263360813E-01  0.63693837730E+00  0.51100000000E-03 0.  1.
         12    1    3    3    0    0 -0.34993385959E+01 -0.10347829972E+01 -0.13280713894E+02  0.13772926631E+02  0.00000000000E+00 0. -1.
</event>
<event>
 7    1  0.1486782E-008  0.4614232E+02  0.7816164E-02  0.1320468E+00
        -11   -1    0    0    0    0  0.00000000000E+00  0.00000000000E+00  0.45593999997E+02  0.45594000000E+02  0.51100000000E-03 0.  1.
         11   -1    0    0    0    0 -0.00000000000E+00 -0.00000000000E+00 -0.45593999997E+02  0.45594000000E+02  0.51100000000E-03 0. -1.
    9900012    2    1    2    0    0  0.29348998315E+02  0.26936934488E+02 -0.21027396367E+02  0.46142317192E+02  0.99999948069E+01 0.  0.
        -12    1    1    2    0    0 -0.29348998315E+02 -0.26936934488E+02  0.21027396367E+02  0.45045682808E+02  0.00000000000E+00 0.  1.
         11    1    3    3    0    0  0.16903123562E+02  0.15949504576E+02 -0.79515090105E+01  0.24562751845E+02  0.51100000000E-03 0. -1.
        -11    1    3    3    0    0  0.15741979123E+01  0.39267145067E-01 -0.43559906365E+00  0.16338261171E+01  0.51100000000E-03 0.  1.
        -12    1    3    3    0    0  0.10871676840E+02  0.10948162767E+02 -0.12640288293E+02  0.19945739230E+02  0.00000000000E+00 0.  1.
</event>
<event>
 7    1  0.1486782E-008  0.4614232E+02  0.7816164E-02  0.1320468E+00
        -11   -1    0    0    0    0  0.00000000000E+00  0.00000000000E+00  0.45593999997E+02  0.45594000000E+02  0.51100000000E-03 0.  1.
         11   -1    0    0    0    0 -0.00000000000E+00 -0.00000000000E+00 -0.45593999997E+02  0.45594000000E+02  0.51100000000E-03 0. -1.
    9900012    2    1    2    0    0  0.16289078200E+02 -0.11572555364E+02 -0.40371467227E+02  0.46142317940E+02  0.10000001628E+02 0.  0.
        -12    1    1    2    0    0 -0.16289078200E+02  0.11572555364E+02  0.40371467227E+02  0.45045682060E+02  0.00000000000E+00 0.  1.
         11    1    3    3    0    0  0.12549050420E+02 -0.58906555333E+01 -0.31075888193E+02  0.34027772720E+02  0.51100000000E-03 0. -1.
        -11    1    3    3    0    0  0.23997248101E+00 -0.17019360755E+01 -0.50163078462E+01  0.53025953896E+01  0.51100000000E-03 0.  1.
         12    1    3    3    0    0  0.35000552982E+01 -0.39799637555E+01 -0.42792711874E+01  0.68119498296E+01  0.00000000000E+00 0. -1.
</event>
<event>
 7    1  0.1486782E-008  0.4614232E+02  0.7816164E-02  0.1320468E+00
        -11   -1    0    0    0    0  0.00000000000E+00  0.00000000000E+00  0.45593999997E+02  0.45594000000E+02  0.51100000000E-03 0.  1.
         11   -1    0    0    0    0 -0.00000000000E+00 -0.00000000000E+00 -0.45593999997E+02  0.45594000000E+02  0.51100000000E-03 0. -1.
    9900012    2    1    2    0    0 -0.71951174287E-01 -0.47421897928E+01 -0.44795311648E+02  0.46142317780E+02  0.10000000174E+02 0.  0.
        -12    1    1    2    0    0  0.71951174287E-01  0.47421897928E+01  0.44795311648E+02  0.45045682220E+02  0.00000000000E+00 0.  1.
         11    1    3    3    0    0  0.24095343392E+01 -0.33521656560E+01 -0.11827465303E+02  0.12527242556E+02  0.51100000000E-03 0. -1.
        -11    1    3    3    0    0 -0.18184303147E+01 -0.29168572428E+01 -0.30127141920E+02  0.30322589360E+02  0.51100000000E-03 0.  1.
        -12    1    3    3    0    0 -0.66305519874E+00  0.15268331060E+01 -0.28407044258E+01  0.32924858640E+01  0.00000000000E+00 0.  1.
</event>
<event>
 7    1  0.1933709E-008  0.4614232E+02  0.7816164E-02  0.1320468E+00
        -11   -1    0    0    0    0  0.00000000000E+00  0.00000000000E+00  0.45593999997E+02  0.45594000000E+02  0.51100000000E-03 0.  1.
         11   -1    0    0    0    0 -0.00000000000E+00 -0.00000000000E+00 -0.45593999997E+02  0.45594000000E+02  0.51100000000E-03 0. -1.
    9900012    2    1    2    0    0  0.25258328883E+02 -0.25831243476E+02 -0.26904966488E+02  0.46142317197E+02  0.99999948542E+01 0.  0.
        -12    1    1    2    0    0 -0.25258328883E+02  0.25831243476E+02  0.26904966488E+02  0.45045682803E+02  0.00000000000E+00 0.  1.
         11    1    3    3    0    0  0.19004341366E+02 -0.18197771951E+02 -0.17402541668E+02  0.31546352428E+02  0.51100000000E-03 0. -1.
        -11    1    3    3    0    0  0.35350705515E+00 -0.23618860797E+01 -0.21913192975E+00  0.23982268774E+01  0.51100000000E-03 0.  1.
         12    1    3    3    0    0  0.59004804620E+01 -0.52715854462E+01 -0.92832928898E+01  0.12197737892E+02  0.00000000000E+00 0. -1.
</event>
<event>
 7    1  0.1486782E-008  0.4614232E+02  0.7816164E-02  0.1320468E+00
        -11   -1    0    0    0    0  0.00000000000E+00  0.00000000000E+00  0.45593999997E+02  0.45594000000E+02  0.51100000000E-03 0.  1.
         11   -1    0    0    0    0 -0.00000000000E+00 -0.00000000000E+00 -0.45593999997E+02  0.45594000000E+02  0.51100000000E-03 0. -1.
    9900012    2    1    2    0    0 -0.28897618899E+02 -0.34532142889E+02  0.12538646205E+01  0.46142318220E+02  0.10000004181E+02 0.  0.
        -12    1    1    2    0    0  0.28897618899E+02  0.34532142889E+02 -0.12538646205E+01  0.45045681780E+02  0.00000000000E+00 0.  1.
         11    1    3    3    0    0 -0.23508147622E+02 -0.25888227661E+02  0.24429029518E+01  0.35054259530E+02  0.51100000000E-03 0. -1.
        -11    1    3    3    0    0  0.68486423024E-01 -0.32660121015E+01 -0.10257930200E+01  0.34240001487E+01  0.51100000000E-03 0.  1.
        -12    1    3    3    0    0 -0.54579577003E+01 -0.53779031263E+01 -0.16324531122E+00  0.76640585414E+01  0.00000000000E+00 0.  1.
</event>
<event>
 7    1  0.1486782E-008  0.4614232E+02  0.7816164E-02  0.1320468E+00
        -11   -1    0    0    0    0  0.00000000000E+00  0.00000000000E+00  0.45593999997E+02  0.45594000000E+02  0.51100000000E-03 0.  1.
         11   -1    0    0    0    0 -0.00000000000E+00 -0.00000000000E+00 -0.45593999997E+02  0.45594000000E+02  0.51100000000E-03 0. -1.
    9900012    2    1    2    0    0 -0.36698716128E+02 -0.16043335281E+02  0.20613809916E+02  0.46142317281E+02  0.99999956210E+01 0.  0.
        -12    1    1    2    0    0  0.36698716128E+02  0.16043335281E+02 -0.20613809916E+02  0.45045682719E+02  0.00000000000E+00 0.  1.
         11    1    3    3    0    0 -0.17601566168E+02 -0.62248184074E+01  0.11315691725E+02  0.21831362194E+02  0.51100000000E-03 0. -1.
        -11    1    3    3    0    0 -0.42098569971E+01 -0.55228639740E+01  0.33954816856E+01  0.77300852874E+01  0.51100000000E-03 0.  1.
        -12    1    3    3    0    0 -0.14887292963E+02 -0.42956528996E+01  0.59026365057E+01  0.16580869800E+02  0.00000000000E+00 0.  1.
</event>
<event>
 7    1  0.1486782E-008  0.4614232E+02  0.7816164E-02  0.1320468E+00
        -11   -1    0    0    0    0  0.00000000000E+00  0.00000000000E+00  0.45593999997E+02  0.45594000000E+02  0.51100000000E-03 0.  1.
         11   -1    0    0    0    0 -0.00000000000E+00 -0.00000000000E+00 -0.45593999997E+02  0.45594000000E+02  0.51100000000E-03 0. -1.
    9900012    2    1    2    0    0  0.13170928833E+02  0.86693202538E+00 -0.43068413819E+02  0.46142320892E+02  0.10000028550E+02 0.  0.
        -12    1    1    2    0    0 -0.13170928833E+02 -0.86693202538E+00  0.43068413819E+02  0.45045679108E+02  0.00000000000E+00 0.  1.
         11    1    3    3    0    0  0.68026189173E+01  0.17711119651E+01 -0.28711693553E+02  0.29559665233E+02  0.51100000000E-03 0. -1.
        -11    1    3    3    0    0 -0.93882060110E+00 -0.13643800774E+00 -0.17800876120E+01  0.20171047614E+01  0.51100000000E-03 0.  1.
        -12    1    3    3    0    0  0.73071305163E+01 -0.76774193199E+00 -0.12576632654E+02  0.14565550898E+02  0.00000000000E+00 0.  1.
</event>
<event>
 7    1  0.1486782E-008  0.4614232E+02  0.7816164E-02  0.1320468E+00
        -11   -1    0    0    0    0  0.00000000000E+00  0.00000000000E+00  0.45593999997E+02  0.45594000000E+02  0.51100000000E-03 0. -1.
         11   -1    0    0    0    0 -0.00000000000E+00 -0.00000000000E+00 -0.45593999997E+02  0.45594000000E+02  0.51100000000E-03 0.  1.
    9900012    2    1    2    0    0 -0.54344067434E+01 -0.44545174081E+02  0.39125812408E+01  0.46142316494E+02  0.99999884457E+01 0.  0.
        -12    1    1    2    0    0  0.54344067434E+01  0.44545174081E+02 -0.39125812408E+01  0.45045683506E+02  0.00000000000E+00 0.  1.
         11    1    3    3    0    0 -0.18979687406E+01 -0.15864564151E+02 -0.70669954798E+00  0.15993314402E+02  0.51100000000E-03 0. -1.
        -11    1    3    3    0    0  0.94121681847E+00 -0.14481723165E+02  0.47197746739E+01  0.15260487153E+02  0.51100000000E-03 0.  1.
        -12    1    3    3    0    0 -0.44776548212E+01 -0.14198886765E+02 -0.10049388504E+00  0.14888514939E+02  0.00000000000E+00 0.  1.
</event>
<event>
 7    1  0.1486782E-008  0.4614232E+02  0.7816164E-02  0.1320468E+00
        -11   -1    0    0    0    0  0.00000000000E+00  0.00000000000E+00  0.45593999997E+02  0.45594000000E+02  0.51100000000E-03 0. -1.
         11   -1    0    0    0    0 -0.00000000000E+00 -0.00000000000E+00 -0.45593999997E+02  0.45594000000E+02  0.51100000000E-03 0.  1.
    9900012    2    1    2    0    0  0.11310904856E+02 -0.12663853316E+02  0.41722939061E+02  0.46142318816E+02  0.10000009621E+02 0.  0.
        -12    1    1    2    0    0 -0.11310904856E+02  0.12663853316E+02 -0.41722939061E+02  0.45045681184E+02  0.00000000000E+00 0.  1.
         11    1    3    3    0    0  0.30066425618E+01 -0.77204991885E+01  0.21274527828E+02  0.22830933879E+02  0.51100000000E-03 0. -1.
        -11    1    3    3    0    0  0.41529588360E+01 -0.41346911826E+00  0.13012229764E+02  0.13665143522E+02  0.51100000000E-03 0.  1.
        -12    1    3    3    0    0  0.41513034584E+01 -0.45298850088E+01  0.74361814688E+01  0.96462414148E+01  0.00000000000E+00 0.  1.
</event>
<event>
 7    1  0.1486782E-008  0.4614232E+02  0.7816164E-02  0.1320468E+00
        -11   -1    0    0    0    0  0.00000000000E+00  0.00000000000E+00  0.45593999997E+02  0.45594000000E+02  0.51100000000E-03 0.  1.
         11   -1    0    0    0    0 -0.00000000000E+00 -0.00000000000E+00 -0.45593999997E+02  0.45594000000E+02  0.51100000000E-03 0. -1.
    9900012    2    1    2    0    0 -0.64109718684E+01 -0.33970096391E+02 -0.28879845849E+02  0.46142317573E+02  0.99999982823E+01 0.  0.
        -12    1    1    2    0    0  0.64109718684E+01  0.33970096391E+02  0.28879845849E+02  0.45045682427E+02  0.00000000000E+00 0.  1.
         11    1    3    3    0    0 -0.87521143604E+01 -0.27018209378E+02 -0.24216563062E+02  0.37323251072E+02  0.51100000000E-03 0. -1.
        -11    1    3    3    0    0  0.36187534277E+00 -0.59111065972E+00 -0.99986807438E+00  0.12165944283E+01  0.51100000000E-03 0.  1.
         12    1    3    3    0    0  0.19792671491E+01 -0.63607763526E+01 -0.36634147121E+01  0.76024720722E+01  0.00000000000E+00 0. -1.
</event>
<event>
 7    1  0.1486782E-008  0.4614232E+02  0.7816164E-02  0.1320468E+00
        -11   -1    0    0    0    0  0.00000000000E+00  0.00000000000E+00  0.45593999997E+02  0.45594000000E+02  0.51100000000E-03 0.  1.
         11   -1    0    0    0    0 -0.00000000000E+00 -0.00000000000E+00 -0.45593999997E+02  0.45594000000E+02  0.51100000000E-03 0. -1.
    9900012    2    1    2    0    0  0.34923617900E+01 -0.13952895639E+02 -0.42687627610E+02  0.46142318314E+02  0.10000005041E+02 0.  0.
        -12    1    1    2    0    0 -0.34923617900E+01  0.13952895639E+02  0.42687627610E+02  0.45045681686E+02  0.00000000000E+00 0.  1.
         11    1    3    3    0    0  0.20559424692E+01 -0.38192192359E+01 -0.17106823148E+02  0.17648136828E+02  0.51100000000E-03 0. -1.
        -11    1    3    3    0    0 -0.19473302713E+01 -0.86317038200E+01 -0.18178413667E+02  0.20217644020E+02  0.51100000000E-03 0.  1.
         12    1    3    3    0    0  0.33837495921E+01 -0.15019725831E+01 -0.74023907950E+01  0.82765374659E+01  0.00000000000E+00 0. -1.
</event>
<event>
 7    1  0.1486782E-008  0.4614232E+02  0.7816164E-02  0.1320468E+00
        -11   -1    0    0    0    0  0.00000000000E+00  0.00000000000E+00  0.45593999997E+02  0.45594000000E+02  0.51100000000E-03 0.  1.
         11   -1    0    0    0    0 -0.00000000000E+00 -0.00000000000E+00 -0.45593999997E+02  0.45594000000E+02  0.51100000000E-03 0. -1.
    9900012    2    1    2    0    0  0.23083736146E+02  0.94025673746E+01 -0.37521278321E+02  0.46142317915E+02  0.10000001402E+02 0.  0.
        -12    1    1    2    0    0 -0.23083736146E+02 -0.94025673746E+01  0.37521278321E+02  0.45045682085E+02  0.00000000000E+00 0.  1.
         11    1    3    3    0    0  0.67065447960E+01  0.17464917748E+01 -0.13928231733E+02  0.15557108218E+02  0.51100000000E-03 0. -1.
        -11    1    3    3    0    0  0.21335997744E+01  0.35727029593E+01 -0.83370654567E+01  0.93178922039E+01  0.51100000000E-03 0.  1.
        -12    1    3    3    0    0  0.14243591576E+02  0.40833726405E+01 -0.15255981131E+02  0.21267317493E+02  0.00000000000E+00 0.  1.
</event>
<event>
 7    1  0.1486782E-008  0.4614232E+02  0.7816164E-02  0.1320468E+00
        -11   -1    0    0    0    0  0.00000000000E+00  0.00000000000E+00  0.45593999997E+02  0.45594000000E+02  0.51100000000E-03 0.  1.
         11   -1    0    0    0    0 -0.00000000000E+00 -0.00000000000E+00 -0.45593999997E+02  0.45594000000E+02  0.51100000000E-03 0. -1.
    9900012    2    1    2    0    0 -0.39252021243E+02 -0.99990091843E+01 -0.19708174124E+02  0.46142317814E+02  0.10000000482E+02 0.  0.
        -12    1    1    2    0    0  0.39252021243E+02  0.99990091843E+01  0.19708174124E+02  0.45045682186E+02  0.00000000000E+00 0.  1.
         11    1    3    3    0    0 -0.18516608241E+02 -0.36243370618E+00 -0.83122649705E+01  0.20299997245E+02  0.51100000000E-03 0. -1.
        -11    1    3    3    0    0 -0.18167386828E+02 -0.86902053649E+01 -0.85041752098E+01  0.21860800756E+02  0.51100000000E-03 0.  1.
         12    1    3    3    0    0 -0.25680261741E+01 -0.94637011318E+00 -0.28917339435E+01  0.39815198131E+01  0.00000000000E+00 0. -1.
</event>
<event>
 7    1  0.1486782E-008  0.4614232E+02  0.7816164E-02  0.1320468E+00
        -11   -1    0    0    0    0  0.00000000000E+00  0.00000000000E+00  0.45593999997E+02  0.45594000000E+02  0.51100000000E-03 0. -1.
         11   -1    0    0    0    0 -0.00000000000E+00 -0.00000000000E+00 -0.45593999997E+02  0.45594000000E+02  0.51100000000E-03 0.  1.
    9900012    2    1    2    0    0 -0.29899234869E+02  0.30320629810E+02  0.14690432990E+02  0.46142315864E+02  0.99999827049E+01 0.  0.
        -12    1    1    2    0    0  0.29899234869E+02 -0.30320629810E+02 -0.14690432990E+02  0.45045684136E+02  0.00000000000E+00 0.  1.
         11    1    3    3    0    0 -0.19220613941E+02  0.21108702917E+02  0.89565217218E+01  0.29920371333E+02  0.51100000000E-03 0. -1.
        -11    1    3    3    0    0 -0.31206436114E+01  0.59005322931E+01  0.11206623514E+01  0.67683515171E+01  0.51100000000E-03 0.  1.
        -12    1    3    3    0    0 -0.75579773163E+01  0.33113946001E+01  0.46132489170E+01  0.94535930144E+01  0.00000000000E+00 0.  1.
</event>
<event>
 7    1  0.1486782E-008  0.4614232E+02  0.7816164E-02  0.1320468E+00
        -11   -1    0    0    0    0  0.00000000000E+00  0.00000000000E+00  0.45593999997E+02  0.45594000000E+02  0.51100000000E-03 0. -1.
         11   -1    0    0    0    0 -0.00000000000E+00 -0.00000000000E+00 -0.45593999997E+02  0.45594000000E+02  0.51100000000E-03 0.  1.
    9900012    2    1    2    0    0  0.44253734505E+02  0.25669724636E+01  0.80081919402E+01  0.46142317594E+02  0.99999984754E+01 0.  0.
        -12    1    1    2    0    0 -0.44253734505E+02 -0.25669724636E+01 -0.80081919402E+01  0.45045682406E+02  0.00000000000E+00 0.  1.
         11    1    3    3    0    0  0.31716418600E+02  0.28276058382E+01  0.57797931896E+01  0.32362518029E+02  0.51100000000E-03 0. -1.
        -11    1    3    3    0    0  0.17404952008E+01  0.10628299628E+01  0.20630930017E+01  0.29009109033E+01  0.51100000000E-03 0.  1.
        -12    1    3    3    0    0  0.10796820704E+02 -0.13234633374E+01  0.16530574888E+00  0.10878888662E+02  0.00000000000E+00 0.  1.
</event>
<event>
 7    1  0.1486782E-008  0.4614231E+02  0.7816164E-02  0.1320468E+00
        -11   -1    0    0    0    0  0.00000000000E+00  0.00000000000E+00  0.45593999997E+02  0.45594000000E+02  0.51100000000E-03 0. -1.
         11   -1    0    0    0    0 -0.00000000000E+00 -0.00000000000E+00 -0.45593999997E+02  0.45594000000E+02  0.51100000000E-03 0.  1.
    9900012    2    1    2    0    0 -0.31839637373E+02 -0.27560217458E+02  0.15993324218E+02  0.46142306378E+02  0.99998961964E+01 0.  0.
        -12    1    1    2    0    0  0.31839637373E+02  0.27560217458E+02 -0.15993324218E+02  0.45045693622E+02  0.00000000000E+00 0.  1.
         11    1    3    3    0    0 -0.14298120137E+02 -0.11948050345E+02  0.12128595160E+02  0.22232745384E+02  0.51100000000E-03 0. -1.
        -11    1    3    3    0    0 -0.60844074017E+01 -0.43581314854E+01  0.19641181479E+01  0.77376407150E+01  0.51100000000E-03 0.  1.
         12    1    3    3    0    0 -0.11457109835E+02 -0.11254035627E+02  0.19006109096E+01  0.16171920278E+02  0.00000000000E+00 0. -1.
</event>
<event>
 7    1  0.1486782E-008  0.4614232E+02  0.7816164E-02  0.1320468E+00
        -11   -1    0    0    0    0  0.00000000000E+00  0.00000000000E+00  0.45593999997E+02  0.45594000000E+02  0.51100000000E-03 0.  1.
         11   -1    0    0    0    0 -0.00000000000E+00 -0.00000000000E+00 -0.45593999997E+02  0.45594000000E+02  0.51100000000E-03 0. -1.
    9900012    2    1    2    0    0  0.38249184423E+02 -0.10664436301E+02 -0.21269300556E+02  0.46142318111E+02  0.10000003195E+02 0.  0.
        -12    1    1    2    0    0 -0.38249184423E+02  0.10664436301E+02  0.21269300556E+02  0.45045681889E+02  0.00000000000E+00 0.  1.
         11    1    3    3    0    0  0.69462450083E+01 -0.18130936543E+01 -0.80911386923E-01  0.71794272214E+01  0.51100000000E-03 0. -1.
        -11    1    3    3    0    0  0.31098656617E+02 -0.86918433065E+01 -0.21297702036E+02  0.38681606685E+02  0.51100000000E-03 0.  1.
        -12    1    3    3    0    0  0.20428279783E+00 -0.15949934032E+00  0.10931286704E+00  0.28128420495E+00  0.00000000000E+00 0.  1.
</event>
<event>
 7    1  0.1486782E-008  0.4614232E+02  0.7816164E-02  0.1320468E+00
        -11   -1    0    0    0    0  0.00000000000E+00  0.00000000000E+00  0.45593999997E+02  0.45594000000E+02  0.51100000000E-03 0.  1.
         11   -1    0    0    0    0 -0.00000000000E+00 -0.00000000000E+00 -0.45593999997E+02  0.45594000000E+02  0.51100000000E-03 0. -1.
    9900012    2    1    2    0    0  0.14580552974E+02  0.27537116041E+02 -0.32530420231E+02  0.46142317351E+02  0.99999962598E+01 0.  0.
        -12    1    1    2    0    0 -0.14580552974E+02 -0.27537116041E+02  0.32530420231E+02  0.45045682649E+02  0.00000000000E+00 0.  1.
         11    1    3    3    0    0  0.10476646841E+02  0.18627214336E+02 -0.19144842199E+02  0.28692476819E+02  0.51100000000E-03 0. -1.
        -11    1    3    3    0    0  0.99868651411E+00  0.90680545347E+00 -0.59247257102E+01  0.60763513629E+01  0.51100000000E-03 0.  1.
        -12    1    3    3    0    0  0.31052196194E+01  0.80030962518E+01 -0.74608523228E+01  0.11373489169E+02  0.00000000000E+00 0.  1.
</event>
<event>
 7    1  0.1486782E-008  0.4614232E+02  0.7816164E-02  0.1320468E+00
        -11   -1    0    0    0    0  0.00000000000E+00  0.00000000000E+00  0.45593999997E+02  0.45594000000E+02  0.51100000000E-03 0.  1.
         11   -1    0    0    0    0 -0.00000000000E+00 -0.00000000000E+00 -0.45593999997E+02  0.45594000000E+02  0.51100000000E-03 0. -1.
    9900012    2    1    2    0    0  0.66741195585E+01  0.13131570067E+02 -0.42569137580E+02  0.46142317870E+02  0.10000000989E+02 0.  0.
        -12    1    1    2    0    0 -0.66741195585E+01 -0.13131570067E+02  0.42569137580E+02  0.45045682130E+02  0.00000000000E+00 0.  1.
         11    1    3    3    0    0  0.53103878374E+01  0.62906582834E+01 -0.17838293381E+02  0.19646305292E+02  0.51100000000E-03 0.  1.
        -11    1    3    3    0    0 -0.16124167109E+01  0.53087853877E+01 -0.19597206470E+02  0.20367464045E+02  0.51100000000E-03 0. -1.
         12    1    3    3    0    0  0.29761484319E+01  0.15321263959E+01 -0.51336377284E+01  0.61285485320E+01  0.00000000000E+00 0. -1.
</event>
<event>
 7    1  0.1486782E-008  0.4614232E+02  0.7816164E-02  0.1320468E+00
        -11   -1    0    0    0    0  0.00000000000E+00  0.00000000000E+00  0.45593999997E+02  0.45594000000E+02  0.51100000000E-03 0.  1.
         11   -1    0    0    0    0 -0.00000000000E+00 -0.00000000000E+00 -0.45593999997E+02  0.45594000000E+02  0.51100000000E-03 0. -1.
    9900012    2    1    2    0    0  0.11174748326E+02  0.23916592165E+02 -0.36499795607E+02  0.46142318073E+02  0.10000002840E+02 0.  0.
        -12    1    1    2    0    0 -0.11174748326E+02 -0.23916592165E+02  0.36499795607E+02  0.45045681927E+02  0.00000000000E+00 0.  1.
         11    1    3    3    0    0  0.85342350874E+01  0.17218900591E+02 -0.28026270129E+02  0.33982282497E+02  0.51100000000E-03 0. -1.
        -11    1    3    3    0    0  0.27182077702E+01  0.29269314515E+01 -0.15670109183E+01  0.42908163190E+01  0.51100000000E-03 0.  1.
         12    1    3    3    0    0 -0.77694531853E-01  0.37707601223E+01 -0.69065145596E+01  0.78692192562E+01  0.00000000000E+00 0. -1.
</event>
<event>
 7    1  0.1486782E-008  0.4614232E+02  0.7816164E-02  0.1320468E+00
        -11   -1    0    0    0    0  0.00000000000E+00  0.00000000000E+00  0.45593999997E+02  0.45594000000E+02  0.51100000000E-03 0.  1.
         11   -1    0    0    0    0 -0.00000000000E+00 -0.00000000000E+00 -0.45593999997E+02  0.45594000000E+02  0.51100000000E-03 0. -1.
    9900012    2    1    2    0    0  0.36063946063E+02 -0.91890233073E+01 -0.25378477297E+02  0.46142318022E+02  0.10000002379E+02 0.  0.
        -12    1    1    2    0    0 -0.36063946063E+02  0.91890233073E+01  0.25378477297E+02  0.45045681978E+02  0.00000000000E+00 0.  1.
         11    1    3    3    0    0  0.18136793129E+02 -0.90253465071E+01 -0.13521243473E+02  0.24356193666E+02  0.51100000000E-03 0. -1.
        -11    1    3    3    0    0  0.16024225295E+02  0.53388837872E+00 -0.11493048530E+02  0.19726910500E+02  0.51100000000E-03 0.  1.
        -12    1    3    3    0    0  0.19029276385E+01 -0.69756517885E+00 -0.36418529467E+00  0.20592138561E+01  0.00000000000E+00 0.  1.
</event>
<event>
 7    1  0.1486782E-008  0.4614232E+02  0.7816164E-02  0.1320468E+00
        -11   -1    0    0    0    0  0.00000000000E+00  0.00000000000E+00  0.45593999997E+02  0.45594000000E+02  0.51100000000E-03 0.  1.
         11   -1    0    0    0    0 -0.00000000000E+00 -0.00000000000E+00 -0.45593999997E+02  0.45594000000E+02  0.51100000000E-03 0. -1.
    9900012    2    1    2    0    0  0.22134405334E+02  0.38933005024E+02  0.48376244759E+01  0.46142318850E+02  0.10000009927E+02 0.  0.
        -12    1    1    2    0    0 -0.22134405334E+02 -0.38933005024E+02 -0.48376244759E+01  0.45045681150E+02  0.00000000000E+00 0.  1.
         11    1    3    3    0    0  0.77756233605E+01  0.11888396770E+02  0.70974220121E+00  0.14223151221E+02  0.51100000000E-03 0. -1.
        -11    1    3    3    0    0 -0.14562904383E+00  0.30720971989E+00 -0.10139711413E+01  0.10694500301E+01  0.51100000000E-03 0.  1.
        -12    1    3    3    0    0  0.14504411017E+02  0.26737398534E+02  0.51418534160E+01  0.30849717598E+02  0.00000000000E+00 0.  1.
</event>
<event>
 7    1  0.1486782E-008  0.4614232E+02  0.7816164E-02  0.1320468E+00
        -11   -1    0    0    0    0  0.00000000000E+00  0.00000000000E+00  0.45593999997E+02  0.45594000000E+02  0.51100000000E-03 0.  1.
         11   -1    0    0    0    0 -0.00000000000E+00 -0.00000000000E+00 -0.45593999997E+02  0.45594000000E+02  0.51100000000E-03 0. -1.
    9900012    2    1    2    0    0 -0.34844598213E+02 -0.17996765580E+02 -0.22160410902E+02  0.46142318661E+02  0.10000008206E+02 0.  0.
        -12    1    1    2    0    0  0.34844598213E+02  0.17996765580E+02  0.22160410902E+02  0.45045681339E+02  0.00000000000E+00 0.  1.
         11    1    3    3    0    0 -0.10668608789E+02 -0.52136572191E+01 -0.38770589497E+01  0.12491317843E+02  0.51100000000E-03 0. -1.
        -11    1    3    3    0    0 -0.19241505162E+02 -0.70737985282E+01 -0.15097032108E+02  0.25459664673E+02  0.51100000000E-03 0.  1.
        -12    1    3    3    0    0 -0.49344842623E+01 -0.57093098330E+01 -0.31863198435E+01  0.81913361455E+01  0.00000000000E+00 0.  1.
</event>
<event>
 7    1  0.1486782E-008  0.4614232E+02  0.7816164E-02  0.1320468E+00
        -11   -1    0    0    0    0  0.00000000000E+00  0.00000000000E+00  0.45593999997E+02  0.45594000000E+02  0.51100000000E-03 0.  1.
         11   -1    0    0    0    0 -0.00000000000E+00 -0.00000000000E+00 -0.45593999997E+02  0.45594000000E+02  0.51100000000E-03 0. -1.
    9900012    2    1    2    0    0  0.10452035598E+02 -0.36075385647E+02 -0.24868352742E+02  0.46142318011E+02  0.10000002277E+02 0.  0.
        -12    1    1    2    0    0 -0.10452035598E+02  0.36075385647E+02  0.24868352742E+02  0.45045681989E+02  0.00000000000E+00 0.  1.
         11    1    3    3    0    0  0.20278029621E+01 -0.74799908166E+01 -0.76379423713E+01  0.10881195311E+02  0.51100000000E-03 0. -1.
        -11    1    3    3    0    0 -0.51120653500E+00 -0.10944237609E+02 -0.54719041570E+01  0.12246607870E+02  0.51100000000E-03 0.  1.
        -12    1    3    3    0    0  0.89354391712E+01 -0.17651157222E+02 -0.11758506214E+02  0.23014514829E+02  0.00000000000E+00 0.  1.
</event>
<event>
 7    1  0.1486782E-008  0.4614232E+02  0.7816164E-02  0.1320468E+00
        -11   -1    0    0    0    0  0.00000000000E+00  0.00000000000E+00  0.45593999997E+02  0.45594000000E+02  0.51100000000E-03 0. -1.
         11   -1    0    0    0    0 -0.00000000000E+00 -0.00000000000E+00 -0.45593999997E+02  0.45594000000E+02  0.51100000000E-03 0.  1.
    9900012    2    1    2    0    0 -0.13825804918E+02  0.40743435245E+02  0.13339162809E+02  0.46142315838E+02  0.99999824609E+01 0.  0.
        -12    1    1    2    0    0  0.13825804918E+02 -0.40743435245E+02 -0.13339162809E+02  0.45045684162E+02  0.00000000000E+00 0.  1.
         11    1    3    3    0    0  0.10663517489E+01  0.92217171645E+01  0.22518204513E+01  0.95523750513E+01  0.51100000000E-03 0. -1.
        -11    1    3    3    0    0 -0.62711870470E+01  0.12591906388E+02  0.46705043211E+01  0.14822196340E+02  0.51100000000E-03 0.  1.
         12    1    3    3    0    0 -0.86209696195E+01  0.18929811693E+02  0.64168380361E+01  0.21767744446E+02  0.00000000000E+00 0. -1.
</event>
<event>
 7    1  0.1486782E-008  0.4614232E+02  0.7816164E-02  0.1320468E+00
        -11   -1    0    0    0    0  0.00000000000E+00  0.00000000000E+00  0.45593999997E+02  0.45594000000E+02  0.51100000000E-03 0.  1.
         11   -1    0    0    0    0 -0.00000000000E+00 -0.00000000000E+00 -0.45593999997E+02  0.45594000000E+02  0.51100000000E-03 0. -1.
    9900012    2    1    2    0    0 -0.18586847938E+02 -0.29816469676E+02 -0.28189016746E+02  0.46142318239E+02  0.10000004357E+02 0.  0.
        -12    1    1    2    0    0  0.18586847938E+02  0.29816469676E+02  0.28189016746E+02  0.45045681761E+02  0.00000000000E+00 0.  1.
         11    1    3    3    0    0 -0.59379007745E+01 -0.17189433384E+02 -0.14793707917E+02  0.23443316315E+02  0.51100000000E-03 0.  1.
        -11    1    3    3    0    0 -0.41721784508E+01 -0.65722655452E+01 -0.70428804736E+01  0.10497805154E+02  0.51100000000E-03 0. -1.
         12    1    3    3    0    0 -0.84767687126E+01 -0.60547707471E+01 -0.63524283558E+01  0.12201196770E+02  0.00000000000E+00 0. -1.
</event>
<event>
 7    1  0.1486782E-008  0.4614232E+02  0.7816164E-02  0.1320468E+00
        -11   -1    0    0    0    0  0.00000000000E+00  0.00000000000E+00  0.45593999997E+02  0.45594000000E+02  0.51100000000E-03 0. -1.
         11   -1    0    0    0    0 -0.00000000000E+00 -0.00000000000E+00 -0.45593999997E+02  0.45594000000E+02  0.51100000000E-03 0.  1.
    9900012    2    1    2    0    0  0.11837293498E+02  0.30765025697E+02  0.30700244181E+02  0.46142319671E+02  0.10000017418E+02 0.  0.
        -12    1    1    2    0    0 -0.11837293498E+02 -0.30765025697E+02 -0.30700244181E+02  0.45045680329E+02  0.00000000000E+00 0.  1.
         11    1    3    3    0    0  0.12433857544E+02  0.29861435722E+02  0.28982093896E+02  0.43431186073E+02  0.51100000000E-03 0. -1.
        -11    1    3    3    0    0 -0.67155094734E+00 -0.40647095321E+00  0.64418811724E+00  0.10154693015E+01  0.51100000000E-03 0.  1.
         12    1    3    3    0    0  0.74986901283E-01  0.13100609283E+01  0.10739621673E+01  0.16956642970E+01  0.00000000000E+00 0. -1.
</event>
<event>
 7    1  0.1486782E-008  0.4614232E+02  0.7816164E-02  0.1320468E+00
        -11   -1    0    0    0    0  0.00000000000E+00  0.00000000000E+00  0.45593999997E+02  0.45594000000E+02  0.51100000000E-03 0.  1.
         11   -1    0    0    0    0 -0.00000000000E+00 -0.00000000000E+00 -0.45593999997E+02  0.45594000000E+02  0.51100000000E-03 0. -1.
    9900012    2    1    2    0    0  0.19072043480E+01 -0.47579824940E+01 -0.44753074394E+02  0.46142317703E+02  0.99999994743E+01 0.  0.
        -12    1    1    2    0    0 -0.19072043480E+01  0.47579824940E+01  0.44753074394E+02  0.45045682297E+02  0.00000000000E+00 0.  1.
         11    1    3    3    0    0 -0.72500328224E+00 -0.29329080997E+01 -0.28669702228E+02  0.28828447856E+02  0.51100000000E-03 0. -1.
        -11    1    3    3    0    0  0.20376641547E+01 -0.53735665301E+00 -0.13288213282E+01  0.24913036273E+01  0.51100000000E-03 0.  1.
        -12    1    3    3    0    0  0.59454347558E+00 -0.12877177413E+01 -0.14754550838E+02  0.14822566220E+02  0.00000000000E+00 0.  1.
</event>
<event>
 7    1  0.1486782E-008  0.4614232E+02  0.7816164E-02  0.1320468E+00
        -11   -1    0    0    0    0  0.00000000000E+00  0.00000000000E+00  0.45593999997E+02  0.45594000000E+02  0.51100000000E-03 0.  1.
         11   -1    0    0    0    0 -0.00000000000E+00 -0.00000000000E+00 -0.45593999997E+02  0.45594000000E+02  0.51100000000E-03 0. -1.
    9900012    2    1    2    0    0  0.62478744981E+01  0.21426602986E+02 -0.39127714934E+02  0.46142319550E+02  0.10000016313E+02 0.  0.
        -12    1    1    2    0    0 -0.62478744981E+01 -0.21426602986E+02  0.39127714934E+02  0.45045680450E+02  0.00000000000E+00 0.  1.
         11    1    3    3    0    0  0.93318787922E+00  0.97602895823E+01 -0.18272556168E+02  0.20736933272E+02  0.51100000000E-03 0. -1.
        -11    1    3    3    0    0  0.18395604853E+01  0.45480634586E+01 -0.14317448611E+02  0.15134668777E+02  0.51100000000E-03 0.  1.
        -12    1    3    3    0    0  0.34751261335E+01  0.71182499448E+01 -0.65377101553E+01  0.10270717501E+02  0.00000000000E+00 0.  1.
</event>
<event>
 7    1  0.1486782E-008  0.4614232E+02  0.7816164E-02  0.1320468E+00
        -11   -1    0    0    0    0  0.00000000000E+00  0.00000000000E+00  0.45593999997E+02  0.45594000000E+02  0.51100000000E-03 0.  1.
         11   -1    0    0    0    0 -0.00000000000E+00 -0.00000000000E+00 -0.45593999997E+02  0.45594000000E+02  0.51100000000E-03 0. -1.
    9900012    2    1    2    0    0 -0.23666027913E+01  0.32350524103E+02 -0.31256299381E+02  0.46142317971E+02  0.10000001911E+02 0.  0.
        -12    1    1    2    0    0  0.23666027913E+01 -0.32350524103E+02  0.31256299381E+02  0.45045682029E+02  0.00000000000E+00 0.  1.
         11    1    3    3    0    0  0.16959136356E+01  0.17646837483E+02 -0.13487228485E+02  0.22275374940E+02  0.51100000000E-03 0. -1.
        -11    1    3    3    0    0 -0.13702079994E+01  0.47410101547E+00 -0.15100299375E+01  0.20934259977E+01  0.51100000000E-03 0.  1.
         12    1    3    3    0    0 -0.26923084276E+01  0.14229585604E+02 -0.16259040958E+02  0.21773517034E+02  0.00000000000E+00 0. -1.
</event>
<event>
 7    1  0.1486782E-008  0.4614232E+02  0.7816164E-02  0.1320468E+00
        -11   -1    0    0    0    0  0.00000000000E+00  0.00000000000E+00  0.45593999997E+02  0.45594000000E+02  0.51100000000E-03 0. -1.
         11   -1    0    0    0    0 -0.00000000000E+00 -0.00000000000E+00 -0.45593999997E+02  0.45594000000E+02  0.51100000000E-03 0.  1.
    9900012    2    1    2    0    0 -0.10351056075E+02 -0.34175577748E+02  0.27459043492E+02  0.46142317124E+02  0.99999941927E+01 0.  0.
        -12    1    1    2    0    0  0.10351056075E+02  0.34175577748E+02 -0.27459043492E+02  0.45045682876E+02  0.00000000000E+00 0.  1.
         11    1    3    3    0    0 -0.10770694886E+02 -0.28012353333E+02  0.19824835439E+02  0.35968373719E+02  0.51100000000E-03 0. -1.
        -11    1    3    3    0    0  0.10199867664E+01 -0.59752948944E+01  0.71876141065E+01  0.94024634476E+01  0.51100000000E-03 0.  1.
         12    1    3    3    0    0 -0.60034795478E+00 -0.18792952053E+00  0.44659394701E+00  0.77147995762E+00  0.00000000000E+00 0. -1.
</event>
<event>
 7    1  0.1486782E-008  0.4614232E+02  0.7816164E-02  0.1320468E+00
        -11   -1    0    0    0    0  0.00000000000E+00  0.00000000000E+00  0.45593999997E+02  0.45594000000E+02  0.51100000000E-03 0.  1.
         11   -1    0    0    0    0 -0.00000000000E+00 -0.00000000000E+00 -0.45593999997E+02  0.45594000000E+02  0.51100000000E-03 0. -1.
    9900012    2    1    2    0    0 -0.96743039901E+00 -0.12417943876E+02 -0.43289401034E+02  0.46142317703E+02  0.99999994716E+01 0.  0.
        -12    1    1    2    0    0  0.96743039901E+00  0.12417943876E+02  0.43289401034E+02  0.45045682297E+02  0.00000000000E+00 0.  1.
         11    1    3    3    0    0  0.26575548875E+01 -0.30111716407E+01 -0.17458064214E+02  0.17914065953E+02  0.51100000000E-03 0. -1.
        -11    1    3    3    0    0 -0.35483026221E+00  0.28190873973E+00 -0.71877972607E-02  0.45324273636E+00  0.51100000000E-03 0.  1.
         12    1    3    3    0    0 -0.32701550243E+01 -0.96886809755E+01 -0.25824149023E+02  0.27775009013E+02  0.00000000000E+00 0. -1.
</event>
<event>
 7    1  0.1486782E-008  0.4614232E+02  0.7816164E-02  0.1320468E+00
        -11   -1    0    0    0    0  0.00000000000E+00  0.00000000000E+00  0.45593999997E+02  0.45594000000E+02  0.51100000000E-03 0.  1.
         11   -1    0    0    0    0 -0.00000000000E+00 -0.00000000000E+00 -0.45593999997E+02  0.45594000000E+02  0.51100000000E-03 0. -1.
    9900012    2    1    2    0    0  0.24968560370E+02  0.52222577548E+01  0.37126977667E+02  0.46142318146E+02  0.10000003512E+02 0.  0.
        -12    1    1    2    0    0 -0.24968560370E+02 -0.52222577548E+01 -0.37126977667E+02  0.45045681854E+02  0.00000000000E+00 0.  1.
         11    1    3    3    0    0  0.15263531851E+02  0.20460328696E+01  0.13844379257E+02  0.20708174529E+02  0.51100000000E-03 0. -1.
        -11    1    3    3    0    0  0.82132063732E+01  0.29398587044E+01  0.19586115535E+02  0.21440975960E+02  0.51100000000E-03 0.  1.
         12    1    3    3    0    0  0.14918221455E+01  0.23636618088E+00  0.36964828754E+01  0.39931676566E+01  0.00000000000E+00 0. -1.
</event>
<event>
 7    1  0.1486782E-008  0.4614232E+02  0.7816164E-02  0.1320468E+00
        -11   -1    0    0    0    0  0.00000000000E+00  0.00000000000E+00  0.45593999997E+02  0.45594000000E+02  0.51100000000E-03 0.  1.
         11   -1    0    0    0    0 -0.00000000000E+00 -0.00000000000E+00 -0.45593999997E+02  0.45594000000E+02  0.51100000000E-03 0. -1.
    9900012    2    1    2    0    0 -0.37672810813E+02  0.76022234440E-01 -0.24695483007E+02  0.46142319465E+02  0.10000015536E+02 0.  0.
        -12    1    1    2    0    0  0.37672810813E+02 -0.76022234440E-01  0.24695483007E+02  0.45045680535E+02  0.00000000000E+00 0.  1.
         11    1    3    3    0    0 -0.12135198877E+02  0.22483843767E+01 -0.89090735258E+01  0.15221362470E+02  0.51100000000E-03 0. -1.
        -11    1    3    3    0    0 -0.40441523911E+01  0.37873099812E-01  0.19039845591E+00  0.40488090555E+01  0.51100000000E-03 0.  1.
        -12    1    3    3    0    0 -0.21493459545E+02 -0.22102352420E+01 -0.15976807937E+02  0.26872147940E+02  0.00000000000E+00 0.  1.
</event>
<event>
 7    1  0.1486782E-008  0.4614232E+02  0.7816164E-02  0.1320468E+00
        -11   -1    0    0    0    0  0.00000000000E+00  0.00000000000E+00  0.45593999997E+02  0.45594000000E+02  0.51100000000E-03 0.  1.
         11   -1    0    0    0    0 -0.00000000000E+00 -0.00000000000E+00 -0.45593999997E+02  0.45594000000E+02  0.51100000000E-03 0. -1.
    9900012    2    1    2    0    0 -0.30788915199E+02  0.35597330076E+01 -0.32687680114E+02  0.46142318416E+02  0.10000005968E+02 0.  0.
        -12    1    1    2    0    0  0.30788915199E+02 -0.35597330076E+01  0.32687680114E+02  0.45045681584E+02  0.00000000000E+00 0.  1.
         11    1    3    3    0    0 -0.17346673282E+02  0.29593027189E+01 -0.13117537210E+02  0.21948447081E+02  0.51100000000E-03 0. -1.
        -11    1    3    3    0    0 -0.11896208415E+02  0.44692384118E+00 -0.19209042426E+02  0.22598823570E+02  0.51100000000E-03 0.  1.
         12    1    3    3    0    0 -0.15460335016E+01  0.15350644749E+00 -0.36110047800E+00  0.15950477650E+01  0.00000000000E+00 0. -1.
</event>
<event>
 7    1  0.1486782E-008  0.4614232E+02  0.7816164E-02  0.1320468E+00
        -11   -1    0    0    0    0  0.00000000000E+00  0.00000000000E+00  0.45593999997E+02  0.45594000000E+02  0.51100000000E-03 0.  1.
         11   -1    0    0    0    0 -0.00000000000E+00 -0.00000000000E+00 -0.45593999997E+02  0.45594000000E+02  0.51100000000E-03 0. -1.
    9900012    2    1    2    0    0 -0.10481360328E+02  0.41449167764E+02 -0.14185239770E+02  0.46142318187E+02  0.10000003885E+02 0.  0.
        -12    1    1    2    0    0  0.10481360328E+02 -0.41449167764E+02  0.14185239770E+02  0.45045681813E+02  0.00000000000E+00 0.  1.
         11    1    3    3    0    0 -0.12002086134E+01  0.37519425556E+01  0.14179709200E+01  0.41866711654E+01  0.51100000000E-03 0.  1.
        -11    1    3    3    0    0 -0.52578617423E+01  0.21581289888E+02 -0.10570369462E+02  0.24599388085E+02  0.51100000000E-03 0. -1.
        -12    1    3    3    0    0 -0.40232899722E+01  0.16115935320E+02 -0.50328412285E+01  0.17356258936E+02  0.00000000000E+00 0.  1.
</event>
<event>
 7    1  0.1486782E-008  0.4614232E+02  0.7816164E-02  0.1320468E+00
        -11   -1    0    0    0    0  0.00000000000E+00  0.00000000000E+00  0.45593999997E+02  0.45594000000E+02  0.51100000000E-03 0. -1.
         11   -1    0    0    0    0 -0.00000000000E+00 -0.00000000000E+00 -0.45593999997E+02  0.45594000000E+02  0.51100000000E-03 0.  1.
    9900012    2    1    2    0    0 -0.20941465713E+02  0.34655558615E+02 -0.19737297642E+02  0.46142315997E+02  0.99999839101E+01 0.  0.
        -12    1    1    2    0    0  0.20941465713E+02 -0.34655558615E+02  0.19737297642E+02  0.45045684003E+02  0.00000000000E+00 0.  1.
         11    1    3    3    0    0 -0.10132031691E+02  0.22302630674E+02 -0.79566757874E+01  0.25756049600E+02  0.51100000000E-03 0. -1.
        -11    1    3    3    0    0 -0.96509835738E+01  0.11654530177E+02 -0.11497504294E+02  0.19004266965E+02  0.51100000000E-03 0.  1.
         12    1    3    3    0    0 -0.11584504480E+01  0.69839776392E+00 -0.28311755995E+00  0.13819994319E+01  0.00000000000E+00 0. -1.
</event>
<event>
 7    1  0.1486782E-008  0.4614232E+02  0.7816164E-02  0.1320468E+00
        -11   -1    0    0    0    0  0.00000000000E+00  0.00000000000E+00  0.45593999997E+02  0.45594000000E+02  0.51100000000E-03 0.  1.
         11   -1    0    0    0    0 -0.00000000000E+00 -0.00000000000E+00 -0.45593999997E+02  0.45594000000E+02  0.51100000000E-03 0. -1.
    9900012    2    1    2    0    0  0.39321248394E+02 -0.12371239323E+02 -0.18163293997E+02  0.46142318892E+02  0.10000010316E+02 0.  0.
        -12    1    1    2    0    0 -0.39321248394E+02  0.12371239323E+02  0.18163293997E+02  0.45045681108E+02  0.00000000000E+00 0.  1.
         11    1    3    3    0    0  0.14043625348E+02 -0.71713383735E+01 -0.11222887101E+02  0.19354707493E+02  0.51100000000E-03 0. -1.
        -11    1    3    3    0    0  0.14227079922E+02 -0.23056223309E+01 -0.31600536528E+01  0.14755054618E+02  0.51100000000E-03 0.  1.
         12    1    3    3    0    0  0.11050543124E+02 -0.28942786186E+01 -0.37803532424E+01  0.12032556782E+02  0.00000000000E+00 0. -1.
</event>
<event>
 7    1  0.1486782E-008  0.4614232E+02  0.7816164E-02  0.1320468E+00
        -11   -1    0    0    0    0  0.00000000000E+00  0.00000000000E+00  0.45593999997E+02  0.45594000000E+02  0.51100000000E-03 0.  1.
         11   -1    0    0    0    0 -0.00000000000E+00 -0.00000000000E+00 -0.45593999997E+02  0.45594000000E+02  0.51100000000E-03 0. -1.
    9900012    2    1    2    0    0 -0.17700760917E+02 -0.21185181434E+01 -0.41367964454E+02  0.46142317197E+02  0.99999948537E+01 0.  0.
        -12    1    1    2    0    0  0.17700760917E+02  0.21185181434E+01  0.41367964454E+02  0.45045682803E+02  0.00000000000E+00 0.  1.
         11    1    3    3    0    0 -0.63106376865E+01 -0.13165178106E+01 -0.21190016605E+02  0.22148909028E+02  0.51100000000E-03 0. -1.
        -11    1    3    3    0    0 -0.11523177120E+02  0.42855703755E+00 -0.19276494294E+02  0.22462201687E+02  0.51100000000E-03 0.  1.
        -12    1    3    3    0    0  0.13305388955E+00 -0.12305573704E+01 -0.90145355453E+00  0.15312064819E+01  0.00000000000E+00 0.  1.
</event>
<event>
 7    1  0.1486782E-008  0.4614232E+02  0.7816164E-02  0.1320468E+00
        -11   -1    0    0    0    0  0.00000000000E+00  0.00000000000E+00  0.45593999997E+02  0.45594000000E+02  0.51100000000E-03 0.  1.
         11   -1    0    0    0    0 -0.00000000000E+00 -0.00000000000E+00 -0.45593999997E+02  0.45594000000E+02  0.51100000000E-03 0. -1.
    9900012    2    1    2    0    0  0.24558183008E+02  0.33773084309E+02  0.16893429439E+02  0.46142317248E+02  0.99999953213E+01 0.  0.
        -12    1    1    2    0    0 -0.24558183008E+02 -0.33773084309E+02 -0.16893429439E+02  0.45045682752E+02  0.00000000000E+00 0.  1.
         11    1    3    3    0    0  0.17693906703E+02  0.18767860025E+02  0.11280098798E+02  0.28152220756E+02  0.51100000000E-03 0. -1.
        -11    1    3    3    0    0  0.69362605713E-01  0.23709871212E+01  0.22196946215E+01  0.32486051736E+01  0.51100000000E-03 0.  1.
         12    1    3    3    0    0  0.67949136988E+01  0.12634237162E+02  0.33936360192E+01  0.14741491318E+02  0.00000000000E+00 0. -1.
</event>
<event>
 7    1  0.1486782E-008  0.4614232E+02  0.7816164E-02  0.1320468E+00
        -11   -1    0    0    0    0  0.00000000000E+00  0.00000000000E+00  0.45593999997E+02  0.45594000000E+02  0.51100000000E-03 0.  1.
         11   -1    0    0    0    0 -0.00000000000E+00 -0.00000000000E+00 -0.45593999997E+02  0.45594000000E+02  0.51100000000E-03 0. -1.
    9900012    2    1    2    0    0 -0.88460469093E+01 -0.13950957277E+02 -0.41907418849E+02  0.46142317527E+02  0.99999978680E+01 0.  0.
        -12    1    1    2    0    0  0.88460469093E+01  0.13950957277E+02  0.41907418849E+02  0.45045682473E+02  0.00000000000E+00 0.  1.
         11    1    3    3    0    0 -0.70072152097E+00 -0.49360638413E+01 -0.11335296360E+02  0.12383241931E+02  0.51100000000E-03 0. -1.
        -11    1    3    3    0    0 -0.70036422582E+01 -0.45222363090E+01 -0.25768760008E+02  0.27083770393E+02  0.51100000000E-03 0.  1.
        -12    1    3    3    0    0 -0.11416831301E+01 -0.44926571268E+01 -0.48033624810E+01  0.66753052029E+01  0.00000000000E+00 0.  1.
</event>
<event>
 7    1  0.1486782E-008  0.4614232E+02  0.7816164E-02  0.1320468E+00
        -11   -1    0    0    0    0  0.00000000000E+00  0.00000000000E+00  0.45593999997E+02  0.45594000000E+02  0.51100000000E-03 0. -1.
         11   -1    0    0    0    0 -0.00000000000E+00 -0.00000000000E+00 -0.45593999997E+02  0.45594000000E+02  0.51100000000E-03 0.  1.
    9900012    2    1    2    0    0 -0.10790593461E+02 -0.92818669033E+01  0.42737847849E+02  0.46142316531E+02  0.99999887785E+01 0.  0.
        -12    1    1    2    0    0  0.10790593461E+02  0.92818669033E+01 -0.42737847849E+02  0.45045683469E+02  0.00000000000E+00 0.  1.
         11    1    3    3    0    0 -0.21162795681E+01 -0.32978078323E+01  0.49175755094E+01  0.62878235392E+01  0.51100000000E-03 0. -1.
        -11    1    3    3    0    0 -0.10464257650E+00 -0.13960481188E+01  0.14799855574E+02  0.14865921623E+02  0.51100000000E-03 0.  1.
         12    1    3    3    0    0 -0.85696713166E+01 -0.45880109523E+01  0.23020416766E+02  0.24988571368E+02  0.00000000000E+00 0. -1.
</event>
<event>
 7    1  0.1486782E-008  0.4614232E+02  0.7816164E-02  0.1320468E+00
        -11   -1    0    0    0    0  0.00000000000E+00  0.00000000000E+00  0.45593999997E+02  0.45594000000E+02  0.51100000000E-03 0.  1.
         11   -1    0    0    0    0 -0.00000000000E+00 -0.00000000000E+00 -0.45593999997E+02  0.45594000000E+02  0.51100000000E-03 0. -1.
    9900012    2    1    2    0    0  0.13173533244E+02  0.28787702962E+02 -0.32044339253E+02  0.46142317653E+02  0.99999990121E+01 0.  0.
        -12    1    1    2    0    0 -0.13173533244E+02 -0.28787702962E+02  0.32044339253E+02  0.45045682347E+02  0.00000000000E+00 0.  1.
         11    1    3    3    0    0  0.18348685685E+01  0.43719460408E+00 -0.13010532071E+01  0.22914234647E+01  0.51100000000E-03 0. -1.
        -11    1    3    3    0    0  0.36353920469E+01  0.16122186468E+02 -0.13411346903E+02  0.21283918762E+02  0.51100000000E-03 0.  1.
         12    1    3    3    0    0  0.77032726284E+01  0.12228321890E+02 -0.17331939143E+02  0.22566975426E+02  0.00000000000E+00 0. -1.
</event>
<event>
 7    1  0.1486782E-008  0.4614232E+02  0.7816164E-02  0.1320468E+00
        -11   -1    0    0    0    0  0.00000000000E+00  0.00000000000E+00  0.45593999997E+02  0.45594000000E+02  0.51100000000E-03 0.  1.
         11   -1    0    0    0    0 -0.00000000000E+00 -0.00000000000E+00 -0.45593999997E+02  0.45594000000E+02  0.51100000000E-03 0. -1.
    9900012    2    1    2    0    0 -0.19023777255E+02  0.36087286222E+02 -0.19102806617E+02  0.46142317093E+02  0.99999939093E+01 0.  0.
        -12    1    1    2    0    0  0.19023777255E+02 -0.36087286222E+02  0.19102806617E+02  0.45045682907E+02  0.00000000000E+00 0.  1.
         11    1    3    3    0    0 -0.28519774619E+01  0.12931473181E+02 -0.38235329094E+01  0.13783184619E+02  0.51100000000E-03 0. -1.
        -11    1    3    3    0    0 -0.81598786409E+01  0.91604885167E+01 -0.81428086771E+01  0.14724248800E+02  0.51100000000E-03 0.  1.
        -12    1    3    3    0    0 -0.80119211520E+01  0.13995324524E+02 -0.71364650300E+01  0.17634883674E+02  0.00000000000E+00 0.  1.
</event>
<event>
 7    1  0.1486782E-008  0.4614232E+02  0.7816164E-02  0.1320468E+00
        -11   -1    0    0    0    0  0.00000000000E+00  0.00000000000E+00  0.45593999997E+02  0.45594000000E+02  0.51100000000E-03 0.  1.
         11   -1    0    0    0    0 -0.00000000000E+00 -0.00000000000E+00 -0.45593999997E+02  0.45594000000E+02  0.51100000000E-03 0. -1.
    9900012    2    1    2    0    0 -0.10652820207E+02 -0.30921078158E+02 -0.30976085248E+02  0.46142317520E+02  0.99999978006E+01 0.  0.
        -12    1    1    2    0    0  0.10652820207E+02  0.30921078158E+02  0.30976085248E+02  0.45045682480E+02  0.00000000000E+00 0.  1.
         11    1    3    3    0    0 -0.51743357498E+01 -0.20410907596E+02 -0.23611066155E+02  0.31636392724E+02  0.51100000000E-03 0. -1.
        -11    1    3    3    0    0 -0.21445730346E+01 -0.35358267856E+01 -0.49646771122E+00  0.41650624255E+01  0.51100000000E-03 0.  1.
        -12    1    3    3    0    0 -0.33339114223E+01 -0.69743437765E+01 -0.68685513812E+01  0.10340862370E+02  0.00000000000E+00 0.  1.
</event>
<event>
 7    1  0.1486782E-008  0.4614232E+02  0.7816164E-02  0.1320468E+00
        -11   -1    0    0    0    0  0.00000000000E+00  0.00000000000E+00  0.45593999997E+02  0.45594000000E+02  0.51100000000E-03 0.  1.
         11   -1    0    0    0    0 -0.00000000000E+00 -0.00000000000E+00 -0.45593999997E+02  0.45594000000E+02  0.51100000000E-03 0. -1.
    9900012    2    1    2    0    0 -0.16562873114E+02  0.34871870216E+02 -0.23210716736E+02  0.46142317970E+02  0.10000001901E+02 0.  0.
        -12    1    1    2    0    0  0.16562873114E+02 -0.34871870216E+02  0.23210716736E+02  0.45045682030E+02  0.00000000000E+00 0.  1.
         11    1    3    3    0    0 -0.89797224307E+01  0.18799139769E+02 -0.11516504272E+02  0.23804893234E+02  0.51100000000E-03 0. -1.
        -11    1    3    3    0    0  0.25638396454E+00  0.30772387277E+01  0.14127330993E+00  0.30911307533E+01  0.51100000000E-03 0.  1.
         12    1    3    3    0    0 -0.78395346482E+01  0.12995491719E+02 -0.11835485774E+02  0.19246293982E+02  0.00000000000E+00 0. -1.
</event>
<event>
 7    1  0.1486782E-008  0.4614231E+02  0.7816164E-02  0.1320468E+00
        -11   -1    0    0    0    0  0.00000000000E+00  0.00000000000E+00  0.45593999997E+02  0.45594000000E+02  0.51100000000E-03 0. -1.
         11   -1    0    0    0    0 -0.00000000000E+00 -0.00000000000E+00 -0.45593999997E+02  0.45594000000E+02  0.51100000000E-03 0.  1.
    9900012    2    1    2    0    0 -0.29515151196E+02 -0.27206679850E+02  0.20439330544E+02  0.46142314172E+02  0.99999672756E+01 0.  0.
        -12    1    1    2    0    0  0.29515151196E+02  0.27206679850E+02 -0.20439330544E+02  0.45045685828E+02  0.00000000000E+00 0.  1.
         11    1    3    3    0    0 -0.24002574300E+02 -0.18337458819E+02  0.16556779985E+02  0.34445797025E+02  0.51100000000E-03 0. -1.
        -11    1    3    3    0    0 -0.32611337686E+01 -0.74575448619E+01  0.18399168953E+01  0.83447746085E+01  0.51100000000E-03 0.  1.
        -12    1    3    3    0    0 -0.22514431267E+01 -0.14116761699E+01  0.20426336639E+01  0.33517425388E+01  0.00000000000E+00 0.  1.
</event>
<event>
 7    1  0.1486782E-008  0.4614232E+02  0.7816164E-02  0.1320468E+00
        -11   -1    0    0    0    0  0.00000000000E+00  0.00000000000E+00  0.45593999997E+02  0.45594000000E+02  0.51100000000E-03 0.  1.
         11   -1    0    0    0    0 -0.00000000000E+00 -0.00000000000E+00 -0.45593999997E+02  0.45594000000E+02  0.51100000000E-03 0. -1.
    9900012    2    1    2    0    0  0.11417340728E+02 -0.75079889658E+01 -0.42923045289E+02  0.46142318914E+02  0.10000010512E+02 0.  0.
        -12    1    1    2    0    0 -0.11417340728E+02  0.75079889658E+01  0.42923045289E+02  0.45045681086E+02  0.00000000000E+00 0.  1.
         11    1    3    3    0    0  0.40843133908E+01 -0.53502303093E+01 -0.22529093189E+02  0.23513115923E+02  0.51100000000E-03 0. -1.
        -11    1    3    3    0    0  0.81382399332E+01 -0.76033706393E+00 -0.16468160178E+02  0.18385030910E+02  0.51100000000E-03 0.  1.
        -12    1    3    3    0    0 -0.80521259595E+00 -0.13974215925E+01 -0.39257919224E+01  0.42441720806E+01  0.00000000000E+00 0.  1.
</event>
<event>
 7    1  0.1486782E-008  0.4614232E+02  0.7816164E-02  0.1320468E+00
        -11   -1    0    0    0    0  0.00000000000E+00  0.00000000000E+00  0.45593999997E+02  0.45594000000E+02  0.51100000000E-03 0.  1.
         11   -1    0    0    0    0 -0.00000000000E+00 -0.00000000000E+00 -0.45593999997E+02  0.45594000000E+02  0.51100000000E-03 0. -1.
    9900012    2    1    2    0    0  0.71374311775E+00  0.86922282545E+00 -0.45031639033E+02  0.46142317726E+02  0.99999996811E+01 0.  0.
        -12    1    1    2    0    0 -0.71374311775E+00 -0.86922282545E+00  0.45031639033E+02  0.45045682274E+02  0.00000000000E+00 0.  1.
         11    1    3    3    0    0  0.28755462022E+00 -0.26063832260E+01 -0.23459664082E+02  0.23605756931E+02  0.51100000000E-03 0. -1.
        -11    1    3    3    0    0 -0.15015841649E+01  0.15130125608E+01 -0.25814553689E+01  0.33478163176E+01  0.51100000000E-03 0.  1.
        -12    1    3    3    0    0  0.19277726624E+01  0.19625934907E+01 -0.18990519582E+02  0.19188744478E+02  0.00000000000E+00 0.  1.
</event>
<event>
 7    1  0.1486782E-008  0.4614232E+02  0.7816164E-02  0.1320468E+00
        -11   -1    0    0    0    0  0.00000000000E+00  0.00000000000E+00  0.45593999997E+02  0.45594000000E+02  0.51100000000E-03 0.  1.
         11   -1    0    0    0    0 -0.00000000000E+00 -0.00000000000E+00 -0.45593999997E+02  0.45594000000E+02  0.51100000000E-03 0. -1.
    9900012    2    1    2    0    0  0.30206853477E+02  0.13624874880E+02 -0.30512656144E+02  0.46142318771E+02  0.10000009205E+02 0.  0.
        -12    1    1    2    0    0 -0.30206853477E+02 -0.13624874880E+02  0.30512656144E+02  0.45045681229E+02  0.00000000000E+00 0.  1.
         11    1    3    3    0    0  0.14799873518E+02  0.83336358416E+01 -0.16654559794E+02  0.23787814206E+02  0.51100000000E-03 0. -1.
        -11    1    3    3    0    0 -0.29099197804E+00  0.10023578164E+01 -0.18724426318E+01  0.21436975519E+01  0.51100000000E-03 0.  1.
        -12    1    3    3    0    0  0.15697971936E+02  0.42888812214E+01 -0.11985653718E+02  0.20210807012E+02  0.00000000000E+00 0.  1.
</event>
<event>
 7    1  0.1486782E-008  0.4614232E+02  0.7816164E-02  0.1320468E+00
        -11   -1    0    0    0    0  0.00000000000E+00  0.00000000000E+00  0.45593999997E+02  0.45594000000E+02  0.51100000000E-03 0.  1.
         11   -1    0    0    0    0 -0.00000000000E+00 -0.00000000000E+00 -0.45593999997E+02  0.45594000000E+02  0.51100000000E-03 0. -1.
    9900012    2    1    2    0    0  0.31867928764E+01 -0.33945581160E+02 -0.29439010998E+02  0.46142317658E+02  0.99999990566E+01 0.  0.
        -12    1    1    2    0    0 -0.31867928764E+01  0.33945581160E+02  0.29439010998E+02  0.45045682342E+02  0.00000000000E+00 0.  1.
         11    1    3    3    0    0  0.14518120100E+01 -0.48260012627E-01 -0.68548755598E+00  0.16062317989E+01  0.51100000000E-03 0. -1.
        -11    1    3    3    0    0  0.12350888347E+00 -0.72025745077E+01 -0.72436948368E+01  0.10215843046E+02  0.51100000000E-03 0.  1.
         12    1    3    3    0    0  0.16114719829E+01 -0.26694746640E+02 -0.21509828605E+02  0.34320242813E+02  0.00000000000E+00 0. -1.
</event>
<event>
 7    1  0.1486782E-008  0.4614233E+02  0.7816164E-02  0.1320468E+00
        -11   -1    0    0    0    0  0.00000000000E+00  0.00000000000E+00  0.45593999997E+02  0.45594000000E+02  0.51100000000E-03 0.  1.
         11   -1    0    0    0    0 -0.00000000000E+00 -0.00000000000E+00 -0.45593999997E+02  0.45594000000E+02  0.51100000000E-03 0. -1.
    9900012    2    1    2    0    0  0.83061590777E+01 -0.53151125471E+01 -0.43953043716E+02  0.46142325936E+02  0.10000074545E+02 0.  0.
        -12    1    1    2    0    0 -0.83061590777E+01  0.53151125471E+01  0.43953043716E+02  0.45045674064E+02  0.00000000000E+00 0.  1.
         11    1    3    3    0    0  0.22201779990E+01 -0.11691137573E+01 -0.29366715869E+02  0.29473717419E+02  0.51100000000E-03 0. -1.
        -11    1    3    3    0    0  0.30811104837E+01 -0.78036084751E+00 -0.36604247641E+01  0.48477741882E+01  0.51100000000E-03 0.  1.
         12    1    3    3    0    0  0.30048705950E+01 -0.33656379423E+01 -0.10925903083E+02  0.11820834329E+02  0.00000000000E+00 0. -1.
</event>
<event>
 7    1  0.1486782E-008  0.4614232E+02  0.7816164E-02  0.1320468E+00
        -11   -1    0    0    0    0  0.00000000000E+00  0.00000000000E+00  0.45593999997E+02  0.45594000000E+02  0.51100000000E-03 0.  1.
         11   -1    0    0    0    0 -0.00000000000E+00 -0.00000000000E+00 -0.45593999997E+02  0.45594000000E+02  0.51100000000E-03 0. -1.
    9900012    2    1    2    0    0  0.12121110024E+02  0.56199309743E+01 -0.43018700478E+02  0.46142317375E+02  0.99999964790E+01 0.  0.
        -12    1    1    2    0    0 -0.12121110024E+02 -0.56199309743E+01  0.43018700478E+02  0.45045682625E+02  0.00000000000E+00 0.  1.
         11    1    3    3    0    0  0.29896230574E+01  0.43536416133E+01 -0.14642103082E+02  0.15565449696E+02  0.51100000000E-03 0. -1.
        -11    1    3    3    0    0  0.24725934935E+01  0.28150574191E+01 -0.51748753314E+01  0.63888654559E+01  0.51100000000E-03 0.  1.
         12    1    3    3    0    0  0.66588934731E+01 -0.15487680582E+01 -0.23201722064E+02  0.24188002223E+02  0.00000000000E+00 0. -1.
</event>
<event>
 7    1  0.1486782E-008  0.4614232E+02  0.7816164E-02  0.1320468E+00
        -11   -1    0    0    0    0  0.00000000000E+00  0.00000000000E+00  0.45593999997E+02  0.45594000000E+02  0.51100000000E-03 0.  1.
         11   -1    0    0    0    0 -0.00000000000E+00 -0.00000000000E+00 -0.45593999997E+02  0.45594000000E+02  0.51100000000E-03 0. -1.
    9900012    2    1    2    0    0  0.31435127672E+02  0.42479401584E+01 -0.31982827803E+02  0.46142317392E+02  0.99999966300E+01 0.  0.
        -12    1    1    2    0    0 -0.31435127672E+02 -0.42479401584E+01  0.31982827803E+02  0.45045682608E+02  0.00000000000E+00 0.  1.
         11    1    3    3    0    0  0.15882314621E+02  0.25828686431E+01 -0.15476692916E+02  0.22325930037E+02  0.51100000000E-03 0. -1.
        -11    1    3    3    0    0  0.10189148444E+02 -0.20704848394E+01 -0.81700100294E+01  0.13223264257E+02  0.51100000000E-03 0.  1.
        -12    1    3    3    0    0  0.53636646077E+01  0.37355563547E+01 -0.83361248576E+01  0.10593123097E+02  0.00000000000E+00 0.  1.
</event>
<event>
 7    1  0.1486782E-008  0.4614232E+02  0.7816164E-02  0.1320468E+00
        -11   -1    0    0    0    0  0.00000000000E+00  0.00000000000E+00  0.45593999997E+02  0.45594000000E+02  0.51100000000E-03 0.  1.
         11   -1    0    0    0    0 -0.00000000000E+00 -0.00000000000E+00 -0.45593999997E+02  0.45594000000E+02  0.51100000000E-03 0. -1.
    9900012    2    1    2    0    0  0.25909750212E+02 -0.22274424688E+02 -0.29353846926E+02  0.46142317847E+02  0.10000000784E+02 0.  0.
        -12    1    1    2    0    0 -0.25909750212E+02  0.22274424688E+02  0.29353846926E+02  0.45045682153E+02  0.00000000000E+00 0.  1.
         11    1    3    3    0    0  0.28699698810E+00 -0.13353421090E+00 -0.49891027234E+00  0.59085563179E+00  0.51100000000E-03 0. -1.
        -11    1    3    3    0    0  0.10148383904E+02 -0.58526091470E+01 -0.15450122203E+02  0.19389404479E+02  0.51100000000E-03 0.  1.
         12    1    3    3    0    0  0.15474369321E+02 -0.16288281330E+02 -0.13404814451E+02  0.26162057737E+02  0.00000000000E+00 0. -1.
</event>
<event>
 7    1  0.1486782E-008  0.4614233E+02  0.7816164E-02  0.1320468E+00
        -11   -1    0    0    0    0  0.00000000000E+00  0.00000000000E+00  0.45593999997E+02  0.45594000000E+02  0.51100000000E-03 0. -1.
         11   -1    0    0    0    0 -0.00000000000E+00 -0.00000000000E+00 -0.45593999997E+02  0.45594000000E+02  0.51100000000E-03 0.  1.
    9900012    2    1    2    0    0  0.16309953539E+02  0.41185654946E+02  0.81755752318E+01  0.46142325534E+02  0.10000070878E+02 0.  0.
        -12    1    1    2    0    0 -0.16309953539E+02 -0.41185654946E+02 -0.81755752318E+01  0.45045674466E+02  0.00000000000E+00 0.  1.
         11    1    3    3    0    0  0.30173549961E+01  0.13109390182E+01  0.85199290907E+00  0.33983649686E+01  0.51100000000E-03 0.  1.
        -11    1    3    3    0    0  0.81470818440E+01  0.27404366127E+02  0.41971652393E+01  0.28896200818E+02  0.51100000000E-03 0. -1.
        -12    1    3    3    0    0  0.51455166986E+01  0.12470349801E+02  0.31264170834E+01  0.13847759748E+02  0.00000000000E+00 0.  1.
</event>
<event>
 7    1  0.1486782E-008  0.4614232E+02  0.7816164E-02  0.1320468E+00
        -11   -1    0    0    0    0  0.00000000000E+00  0.00000000000E+00  0.45593999997E+02  0.45594000000E+02  0.51100000000E-03 0. -1.
         11   -1    0    0    0    0 -0.00000000000E+00 -0.00000000000E+00 -0.45593999997E+02  0.45594000000E+02  0.51100000000E-03 0.  1.
    9900012    2    1    2    0    0 -0.30908181067E+02 -0.58300527069E+01  0.32246060206E+02  0.46142316852E+02  0.99999917137E+01 0.  0.
        -12    1    1    2    0    0  0.30908181067E+02  0.58300527069E+01 -0.32246060206E+02  0.45045683148E+02  0.00000000000E+00 0.  1.
         11    1    3    3    0    0 -0.87858524759E+01 -0.37357536639E+01  0.92958906366E+01  0.13325188260E+02  0.51100000000E-03 0. -1.
        -11    1    3    3    0    0 -0.34325404817E+01  0.70672881909E+00  0.61276046637E+00  0.35577064849E+01  0.51100000000E-03 0.  1.
         12    1    3    3    0    0 -0.18689788109E+02 -0.28010278622E+01  0.22337409103E+02  0.29259422108E+02  0.00000000000E+00 0. -1.
</event>
<event>
 7    1  0.1486782E-008  0.4614232E+02  0.7816164E-02  0.1320468E+00
        -11   -1    0    0    0    0  0.00000000000E+00  0.00000000000E+00  0.45593999997E+02  0.45594000000E+02  0.51100000000E-03 0.  1.
         11   -1    0    0    0    0 -0.00000000000E+00 -0.00000000000E+00 -0.45593999997E+02  0.45594000000E+02  0.51100000000E-03 0. -1.
    9900012    2    1    2    0    0  0.25460131278E+02 -0.34286862986E+02 -0.14328512991E+02  0.46142317159E+02  0.99999945060E+01 0.  0.
        -12    1    1    2    0    0 -0.25460131278E+02  0.34286862986E+02  0.14328512991E+02  0.45045682841E+02  0.00000000000E+00 0.  1.
         11    1    3    3    0    0  0.21026448891E+02 -0.28386463215E+02 -0.82188710240E+01  0.36269169938E+02  0.51100000000E-03 0. -1.
        -11    1    3    3    0    0  0.15122691840E+01 -0.10360099151E+01 -0.26669963503E+01  0.32362237906E+01  0.51100000000E-03 0.  1.
         12    1    3    3    0    0  0.29214132028E+01 -0.48643898560E+01 -0.34426456169E+01  0.66369234300E+01  0.00000000000E+00 0. -1.
</event>
<event>
 7    1  0.1486782E-008  0.4614232E+02  0.7816164E-02  0.1320468E+00
        -11   -1    0    0    0    0  0.00000000000E+00  0.00000000000E+00  0.45593999997E+02  0.45594000000E+02  0.51100000000E-03 0.  1.
         11   -1    0    0    0    0 -0.00000000000E+00 -0.00000000000E+00 -0.45593999997E+02  0.45594000000E+02  0.51100000000E-03 0. -1.
    9900012    2    1    2    0    0  0.42621203036E+02 -0.94301823541E+01  0.11118372911E+02  0.46142317591E+02  0.99999984490E+01 0.  0.
        -12    1    1    2    0    0 -0.42621203036E+02  0.94301823541E+01 -0.11118372911E+02  0.45045682409E+02  0.00000000000E+00 0.  1.
         11    1    3    3    0    0  0.27923927002E+01  0.28519237713E+00 -0.38869684365E+00  0.28337037921E+01  0.51100000000E-03 0. -1.
        -11    1    3    3    0    0  0.35533778663E+02 -0.98441143111E+01  0.12435128467E+02  0.38912574226E+02  0.51100000000E-03 0.  1.
        -12    1    3    3    0    0  0.42950316729E+01  0.12873957987E+00 -0.92805871230E+00  0.43960395726E+01  0.00000000000E+00 0.  1.
</event>
<event>
 7    1  0.1486782E-008  0.4614232E+02  0.7816164E-02  0.1320468E+00
        -11   -1    0    0    0    0  0.00000000000E+00  0.00000000000E+00  0.45593999997E+02  0.45594000000E+02  0.51100000000E-03 0.  1.
         11   -1    0    0    0    0 -0.00000000000E+00 -0.00000000000E+00 -0.45593999997E+02  0.45594000000E+02  0.51100000000E-03 0. -1.
    9900012    2    1    2    0    0 -0.39478821218E+02 -0.74625558164E+01 -0.20367777736E+02  0.46142318365E+02  0.10000005510E+02 0.  0.
        -12    1    1    2    0    0  0.39478821218E+02  0.74625558164E+01  0.20367777736E+02  0.45045681635E+02  0.00000000000E+00 0.  1.
         11    1    3    3    0    0 -0.17135863336E+02 -0.53656130794E+01 -0.98647480371E+01  0.20487578434E+02  0.51100000000E-03 0. -1.
        -11    1    3    3    0    0 -0.22102531154E+01 -0.24028883181E+01 -0.16751413316E+01  0.36694944945E+01  0.51100000000E-03 0.  1.
        -12    1    3    3    0    0 -0.20132704766E+02  0.30594558113E+00 -0.88278883672E+01  0.21985245437E+02  0.00000000000E+00 0.  1.
</event>
<event>
 7    1  0.1486782E-008  0.4614232E+02  0.7816164E-02  0.1320468E+00
        -11   -1    0    0    0    0  0.00000000000E+00  0.00000000000E+00  0.45593999997E+02  0.45594000000E+02  0.51100000000E-03 0.  1.
         11   -1    0    0    0    0 -0.00000000000E+00 -0.00000000000E+00 -0.45593999997E+02  0.45594000000E+02  0.51100000000E-03 0. -1.
    9900012    2    1    2    0    0  0.36672458051E+02 -0.22852395855E+02 -0.12728405753E+02  0.46142317756E+02  0.99999999548E+01 0.  0.
        -12    1    1    2    0    0 -0.36672458051E+02  0.22852395855E+02  0.12728405753E+02  0.45045682244E+02  0.00000000000E+00 0.  1.
         11    1    3    3    0    0  0.15240223517E+02 -0.14243582876E+02 -0.46229560302E+01  0.21366230100E+02  0.51100000000E-03 0. -1.
        -11    1    3    3    0    0  0.49588288800E+01 -0.15536765549E+01 -0.23076758763E+00  0.52016486463E+01  0.51100000000E-03 0.  1.
         12    1    3    3    0    0  0.16473405655E+02 -0.70551364238E+01 -0.78746821349E+01  0.19574439010E+02  0.00000000000E+00 0. -1.
</event>
<event>
 7    1  0.1486782E-008  0.4614232E+02  0.7816164E-02  0.1320468E+00
        -11   -1    0    0    0    0  0.00000000000E+00  0.00000000000E+00  0.45593999997E+02  0.45594000000E+02  0.51100000000E-03 0. -1.
         11   -1    0    0    0    0 -0.00000000000E+00 -0.00000000000E+00 -0.45593999997E+02  0.45594000000E+02  0.51100000000E-03 0.  1.
    9900012    2    1    2    0    0  0.11452551307E+02  0.37284320136E+02  0.22535124737E+02  0.46142319782E+02  0.10000018426E+02 0.  0.
        -12    1    1    2    0    0 -0.11452551307E+02 -0.37284320136E+02 -0.22535124737E+02  0.45045680218E+02  0.00000000000E+00 0.  1.
         11    1    3    3    0    0  0.32531262866E+01  0.15638077920E+02  0.13342776605E+02  0.20812544282E+02  0.51100000000E-03 0. -1.
        -11    1    3    3    0    0  0.49060411016E+01  0.12975314199E+02  0.30445228130E+01  0.14202011733E+02  0.51100000000E-03 0.  1.
         12    1    3    3    0    0  0.32933839184E+01  0.86709280162E+01  0.61478253190E+01  0.11127763767E+02  0.00000000000E+00 0. -1.
</event>
<event>
 7    1  0.1486782E-008  0.4614232E+02  0.7816164E-02  0.1320468E+00
        -11   -1    0    0    0    0  0.00000000000E+00  0.00000000000E+00  0.45593999997E+02  0.45594000000E+02  0.51100000000E-03 0. -1.
         11   -1    0    0    0    0 -0.00000000000E+00 -0.00000000000E+00 -0.45593999997E+02  0.45594000000E+02  0.51100000000E-03 0.  1.
    9900012    2    1    2    0    0 -0.21393615192E+02 -0.25677468298E+02  0.30200900793E+02  0.46142316989E+02  0.99999929634E+01 0.  0.
        -12    1    1    2    0    0  0.21393615192E+02  0.25677468298E+02 -0.30200900793E+02  0.45045683011E+02  0.00000000000E+00 0.  1.
         11    1    3    3    0    0 -0.13616544704E+01 -0.26169036066E+01  0.63432695892E+01  0.69956669964E+01  0.51100000000E-03 0.  1.
        -11    1    3    3    0    0 -0.73921162100E+01 -0.12228018023E+02  0.94499185882E+01  0.17130930168E+02  0.51100000000E-03 0. -1.
         12    1    3    3    0    0 -0.12639844511E+02 -0.10832546668E+02  0.14407712616E+02  0.22015719825E+02  0.00000000000E+00 0. -1.
</event>
<event>
 7    1  0.1486782E-008  0.4614232E+02  0.7816164E-02  0.1320468E+00
        -11   -1    0    0    0    0  0.00000000000E+00  0.00000000000E+00  0.45593999997E+02  0.45594000000E+02  0.51100000000E-03 0.  1.
         11   -1    0    0    0    0 -0.00000000000E+00 -0.00000000000E+00 -0.45593999997E+02  0.45594000000E+02  0.51100000000E-03 0. -1.
    9900012    2    1    2    0    0  0.99384760689E+01 -0.14888135481E+02 -0.41336226183E+02  0.46142317857E+02  0.10000000876E+02 0.  0.
        -12    1    1    2    0    0 -0.99384760689E+01  0.14888135481E+02  0.41336226183E+02  0.45045682143E+02  0.00000000000E+00 0.  1.
         11    1    3    3    0    0  0.24494376784E+01 -0.37348171673E+00 -0.11080721518E+02  0.11354365819E+02  0.51100000000E-03 0. -1.
        -11    1    3    3    0    0  0.94827033009E+00 -0.64757575290E+01 -0.14762404963E+02  0.16148165616E+02  0.51100000000E-03 0.  1.
        -12    1    3    3    0    0  0.65407680604E+01 -0.80388962354E+01 -0.15493099702E+02  0.18639786422E+02  0.00000000000E+00 0.  1.
</event>
<event>
 7    1  0.1486782E-008  0.4614232E+02  0.7816164E-02  0.1320468E+00
        -11   -1    0    0    0    0  0.00000000000E+00  0.00000000000E+00  0.45593999997E+02  0.45594000000E+02  0.51100000000E-03 0.  1.
         11   -1    0    0    0    0 -0.00000000000E+00 -0.00000000000E+00 -0.45593999997E+02  0.45594000000E+02  0.51100000000E-03 0. -1.
    9900012    2    1    2    0    0 -0.14295296180E+02  0.68087291103E+01 -0.42171070589E+02  0.46142317858E+02  0.10000000885E+02 0.  0.
        -12    1    1    2    0    0  0.14295296180E+02 -0.68087291103E+01  0.42171070589E+02  0.45045682142E+02  0.00000000000E+00 0.  1.
         11    1    3    3    0    0 -0.97959927460E+01  0.67459411624E+01 -0.18363624280E+02  0.21879028612E+02  0.51100000000E-03 0. -1.
        -11    1    3    3    0    0 -0.23503817751E+01  0.31164269919E+00 -0.15427274259E+02  0.15608401807E+02  0.51100000000E-03 0.  1.
         12    1    3    3    0    0 -0.21489216590E+01 -0.24885475127E+00 -0.83801720506E+01  0.86548874389E+01  0.00000000000E+00 0. -1.
</event>
<event>
 7    1  0.1486782E-008  0.4614232E+02  0.7816164E-02  0.1320468E+00
        -11   -1    0    0    0    0  0.00000000000E+00  0.00000000000E+00  0.45593999997E+02  0.45594000000E+02  0.51100000000E-03 0. -1.
         11   -1    0    0    0    0 -0.00000000000E+00 -0.00000000000E+00 -0.45593999997E+02  0.45594000000E+02  0.51100000000E-03 0.  1.
    9900012    2    1    2    0    0  0.32704377350E+02 -0.30761921995E+02  0.36388740733E+01  0.46142317108E+02  0.99999940480E+01 0.  0.
        -12    1    1    2    0    0 -0.32704377350E+02  0.30761921995E+02 -0.36388740733E+01  0.45045682892E+02  0.00000000000E+00 0.  1.
         11    1    3    3    0    0  0.24147587841E+01 -0.10733286209E+01  0.21151369317E-01  0.26426392027E+01  0.51100000000E-03 0. -1.
        -11    1    3    3    0    0  0.94487633643E+01 -0.15360647263E+02  0.79350623702E+00  0.18051544695E+02  0.51100000000E-03 0.  1.
        -12    1    3    3    0    0  0.20840855201E+02 -0.14327946111E+02  0.28242164670E+01  0.25448133211E+02  0.00000000000E+00 0.  1.
</event>
<event>
 7    1  0.1486782E-008  0.4614232E+02  0.7816164E-02  0.1320468E+00
        -11   -1    0    0    0    0  0.00000000000E+00  0.00000000000E+00  0.45593999997E+02  0.45594000000E+02  0.51100000000E-03 0.  1.
         11   -1    0    0    0    0 -0.00000000000E+00 -0.00000000000E+00 -0.45593999997E+02  0.45594000000E+02  0.51100000000E-03 0. -1.
    9900012    2    1    2    0    0  0.30459312153E+02 -0.25521771310E+02 -0.21212801671E+02  0.46142318050E+02  0.10000002633E+02 0.  0.
        -12    1    1    2    0    0 -0.30459312153E+02  0.25521771310E+02  0.21212801671E+02  0.45045681950E+02  0.00000000000E+00 0.  1.
         11    1    3    3    0    0  0.13636234439E+02 -0.95529817749E+01 -0.13005130249E+02  0.21126754685E+02  0.51100000000E-03 0. -1.
        -11    1    3    3    0    0  0.81155109180E+01 -0.65413369931E+01 -0.14878718872E+01  0.10529215077E+02  0.51100000000E-03 0.  1.
         12    1    3    3    0    0  0.87075667956E+01 -0.94274525421E+01 -0.67197995350E+01  0.14486348288E+02  0.00000000000E+00 0. -1.
</event>
<event>
 7    1  0.1486782E-008  0.4614232E+02  0.7816164E-02  0.1320468E+00
        -11   -1    0    0    0    0  0.00000000000E+00  0.00000000000E+00  0.45593999997E+02  0.45594000000E+02  0.51100000000E-03 0.  1.
         11   -1    0    0    0    0 -0.00000000000E+00 -0.00000000000E+00 -0.45593999997E+02  0.45594000000E+02  0.51100000000E-03 0. -1.
    9900012    2    1    2    0    0  0.15562932769E+01  0.15221967632E+02 -0.42367241430E+02  0.46142317701E+02  0.99999994521E+01 0.  0.
        -12    1    1    2    0    0 -0.15562932769E+01 -0.15221967632E+02  0.42367241430E+02  0.45045682299E+02  0.00000000000E+00 0.  1.
         11    1    3    3    0    0 -0.29122139068E+01  0.10218632394E+02 -0.29644316499E+02  0.31491061252E+02  0.51100000000E-03 0. -1.
        -11    1    3    3    0    0  0.41602879876E+01  0.29272036214E+01 -0.99350534385E+01  0.11161621937E+02  0.51100000000E-03 0.  1.
        -12    1    3    3    0    0  0.30821919609E+00  0.20761316170E+01 -0.27878714930E+01  0.34896345118E+01  0.00000000000E+00 0.  1.
</event>
<event>
 7    1  0.1486782E-008  0.4614232E+02  0.7816164E-02  0.1320468E+00
        -11   -1    0    0    0    0  0.00000000000E+00  0.00000000000E+00  0.45593999997E+02  0.45594000000E+02  0.51100000000E-03 0.  1.
         11   -1    0    0    0    0 -0.00000000000E+00 -0.00000000000E+00 -0.45593999997E+02  0.45594000000E+02  0.51100000000E-03 0. -1.
    9900012    2    1    2    0    0  0.24945400943E+02  0.77894594046E+01 -0.36690118298E+02  0.46142317779E+02  0.10000000167E+02 0.  0.
        -12    1    1    2    0    0 -0.24945400943E+02 -0.77894594046E+01  0.36690118298E+02  0.45045682221E+02  0.00000000000E+00 0.  1.
         11    1    3    3    0    0  0.67213777056E+01  0.13137174404E+01 -0.15082703016E+02  0.16564742747E+02  0.51100000000E-03 0. -1.
        -11    1    3    3    0    0  0.40586526715E+01  0.34404884200E+01 -0.34174884922E+01  0.63236737686E+01  0.51100000000E-03 0.  1.
         12    1    3    3    0    0  0.14165370566E+02  0.30352535441E+01 -0.18189926790E+02  0.23253901263E+02  0.00000000000E+00 0. -1.
</event>
<event>
 7    1  0.1486782E-008  0.4614232E+02  0.7816164E-02  0.1320468E+00
        -11   -1    0    0    0    0  0.00000000000E+00  0.00000000000E+00  0.45593999997E+02  0.45594000000E+02  0.51100000000E-03 0.  1.
         11   -1    0    0    0    0 -0.00000000000E+00 -0.00000000000E+00 -0.45593999997E+02  0.45594000000E+02  0.51100000000E-03 0. -1.
    9900012    2    1    2    0    0  0.18706204777E+02 -0.13087157160E+02 -0.38831916322E+02  0.46142317578E+02  0.99999983294E+01 0.  0.
        -12    1    1    2    0    0 -0.18706204777E+02  0.13087157160E+02  0.38831916322E+02  0.45045682422E+02  0.00000000000E+00 0.  1.
         11    1    3    3    0    0  0.40033207914E+01 -0.12605531705E+01 -0.88541819304E+01  0.97985769157E+01  0.51100000000E-03 0. -1.
        -11    1    3    3    0    0  0.54531589112E+00 -0.25110699552E+01 -0.96696536709E+00  0.27455170775E+01  0.51100000000E-03 0.  1.
        -12    1    3    3    0    0  0.14157568094E+02 -0.93155340339E+01 -0.29010769024E+02  0.33598223585E+02  0.00000000000E+00 0.  1.
</event>
<event>
 7    1  0.1486782E-008  0.4614232E+02  0.7816164E-02  0.1320468E+00
        -11   -1    0    0    0    0  0.00000000000E+00  0.00000000000E+00  0.45593999997E+02  0.45594000000E+02  0.51100000000E-03 0.  1.
         11   -1    0    0    0    0 -0.00000000000E+00 -0.00000000000E+00 -0.45593999997E+02  0.45594000000E+02  0.51100000000E-03 0. -1.
    9900012    2    1    2    0    0 -0.43625614362E+02 -0.70013883154E+01 -0.87692547449E+01  0.46142317681E+02  0.99999992690E+01 0.  0.
        -12    1    1    2    0    0  0.43625614362E+02  0.70013883154E+01  0.87692547449E+01  0.45045682319E+02  0.00000000000E+00 0.  1.
         11    1    3    3    0    0 -0.57387667854E+01  0.91123169638E+00 -0.27967348658E+00  0.58173881547E+01  0.51100000000E-03 0. -1.
        -11    1    3    3    0    0 -0.34510428809E+01  0.13749121803E+01 -0.13398932944E+01  0.39491005015E+01  0.51100000000E-03 0.  1.
        -12    1    3    3    0    0 -0.34435804696E+02 -0.92875321920E+01 -0.71496879639E+01  0.36375829025E+02  0.00000000000E+00 0.  1.
</event>
<event>
 7    1  0.1486782E-008  0.4614232E+02  0.7816164E-02  0.1320468E+00
        -11   -1    0    0    0    0  0.00000000000E+00  0.00000000000E+00  0.45593999997E+02  0.45594000000E+02  0.51100000000E-03 0.  1.
         11   -1    0    0    0    0 -0.00000000000E+00 -0.00000000000E+00 -0.45593999997E+02  0.45594000000E+02  0.51100000000E-03 0. -1.
    9900012    2    1    2    0    0 -0.75497121907E+00 -0.44399335531E+02 -0.75658844929E+01  0.46142316686E+02  0.99999901929E+01 0.  0.
        -12    1    1    2    0    0  0.75497121907E+00  0.44399335531E+02  0.75658844929E+01  0.45045683314E+02  0.00000000000E+00 0.  1.
         11    1    3    3    0    0  0.18151959231E+01 -0.25783716834E+02 -0.75216243104E+01  0.26919692096E+02  0.51100000000E-03 0. -1.
        -11    1    3    3    0    0 -0.36467102373E+01 -0.12918814334E+02  0.71582403783E-01  0.13423836399E+02  0.51100000000E-03 0.  1.
         12    1    3    3    0    0  0.10765430951E+01 -0.56968043622E+01 -0.11584258620E+00  0.57987881908E+01  0.00000000000E+00 0. -1.
</event>
<event>
 7    1  0.1486782E-008  0.4614232E+02  0.7816164E-02  0.1320468E+00
        -11   -1    0    0    0    0  0.00000000000E+00  0.00000000000E+00  0.45593999997E+02  0.45594000000E+02  0.51100000000E-03 0.  1.
         11   -1    0    0    0    0 -0.00000000000E+00 -0.00000000000E+00 -0.45593999997E+02  0.45594000000E+02  0.51100000000E-03 0. -1.
    9900012    2    1    2    0    0 -0.51873886854E+01 -0.22943810823E+02 -0.38415960594E+02  0.46142317800E+02  0.10000000357E+02 0.  0.
        -12    1    1    2    0    0  0.51873886854E+01  0.22943810823E+02  0.38415960594E+02  0.45045682200E+02  0.00000000000E+00 0.  1.
         11    1    3    3    0    0 -0.64690368578E+01 -0.12421488498E+02 -0.22910226494E+02  0.26851821030E+02  0.51100000000E-03 0. -1.
        -11    1    3    3    0    0  0.16090429498E+01 -0.20724273961E+01 -0.17854606436E+01  0.31736169424E+01  0.51100000000E-03 0.  1.
        -12    1    3    3    0    0 -0.32739477741E+00 -0.84498949294E+01 -0.13720273456E+02  0.16116879828E+02  0.00000000000E+00 0.  1.
</event>
<event>
 7    1  0.1486782E-008  0.4614232E+02  0.7816164E-02  0.1320468E+00
        -11   -1    0    0    0    0  0.00000000000E+00  0.00000000000E+00  0.45593999997E+02  0.45594000000E+02  0.51100000000E-03 0.  1.
         11   -1    0    0    0    0 -0.00000000000E+00 -0.00000000000E+00 -0.45593999997E+02  0.45594000000E+02  0.51100000000E-03 0. -1.
    9900012    2    1    2    0    0 -0.32008179640E+02  0.30142886980E+02  0.97977695487E+01  0.46142317771E+02  0.10000000092E+02 0.  0.
        -12    1    1    2    0    0  0.32008179640E+02 -0.30142886980E+02 -0.97977695487E+01  0.45045682229E+02  0.00000000000E+00 0.  1.
         11    1    3    3    0    0 -0.17450454159E+02  0.16703200278E+02  0.64817334197E+01  0.25010560135E+02  0.51100000000E-03 0. -1.
        -11    1    3    3    0    0 -0.31967512570E+01  0.89028754936E+00  0.25524153881E+01  0.41864848135E+01  0.51100000000E-03 0.  1.
         12    1    3    3    0    0 -0.11360974224E+02  0.12549399153E+02  0.76362074086E+00  0.16945272823E+02  0.00000000000E+00 0. -1.
</event>
<event>
 7    1  0.1486782E-008  0.4614232E+02  0.7816164E-02  0.1320468E+00
        -11   -1    0    0    0    0  0.00000000000E+00  0.00000000000E+00  0.45593999997E+02  0.45594000000E+02  0.51100000000E-03 0.  1.
         11   -1    0    0    0    0 -0.00000000000E+00 -0.00000000000E+00 -0.45593999997E+02  0.45594000000E+02  0.51100000000E-03 0. -1.
    9900012    2    1    2    0    0  0.22832536948E+02 -0.77986671558E+01 -0.38039050806E+02  0.46142319417E+02  0.10000015102E+02 0.  0.
        -12    1    1    2    0    0 -0.22832536948E+02  0.77986671558E+01  0.38039050806E+02  0.45045680583E+02  0.00000000000E+00 0.  1.
         11    1    3    3    0    0  0.91090138621E+01 -0.59955961097E+01 -0.10351689384E+02  0.15035916321E+02  0.51100000000E-03 0. -1.
        -11    1    3    3    0    0  0.37932344727E+01  0.87453826315E+00 -0.74982140893E+01  0.84484708515E+01  0.51100000000E-03 0.  1.
         12    1    3    3    0    0  0.99302886136E+01 -0.26776093093E+01 -0.20189147333E+02  0.22657932245E+02  0.00000000000E+00 0. -1.
</event>
<event>
 7    1  0.1486782E-008  0.4614232E+02  0.7816164E-02  0.1320468E+00
        -11   -1    0    0    0    0  0.00000000000E+00  0.00000000000E+00  0.45593999997E+02  0.45594000000E+02  0.51100000000E-03 0.  1.
         11   -1    0    0    0    0 -0.00000000000E+00 -0.00000000000E+00 -0.45593999997E+02  0.45594000000E+02  0.51100000000E-03 0. -1.
    9900012    2    1    2    0    0  0.81041600776E+01  0.67135106561E+01 -0.43799142469E+02  0.46142317444E+02  0.99999971121E+01 0.  0.
        -12    1    1    2    0    0 -0.81041600776E+01 -0.67135106561E+01  0.43799142469E+02  0.45045682556E+02  0.00000000000E+00 0.  1.
         11    1    3    3    0    0  0.32742944460E+00  0.52424074438E+01 -0.18228115283E+02  0.18969824271E+02  0.51100000000E-03 0. -1.
        -11    1    3    3    0    0  0.24753360013E+01 -0.12827115826E+01 -0.47133536853E+01  0.54761611141E+01  0.51100000000E-03 0.  1.
        -12    1    3    3    0    0  0.53013946316E+01  0.27538147949E+01 -0.20857673501E+02  0.21696332060E+02  0.00000000000E+00 0.  1.
</event>
<event>
 7    1  0.1486782E-008  0.4614232E+02  0.7816164E-02  0.1320468E+00
        -11   -1    0    0    0    0  0.00000000000E+00  0.00000000000E+00  0.45593999997E+02  0.45594000000E+02  0.51100000000E-03 0. -1.
         11   -1    0    0    0    0 -0.00000000000E+00 -0.00000000000E+00 -0.45593999997E+02  0.45594000000E+02  0.51100000000E-03 0.  1.
    9900012    2    1    2    0    0 -0.35856031785E+02 -0.86503389863E+00  0.27252710550E+02  0.46142317284E+02  0.99999956531E+01 0.  0.
        -12    1    1    2    0    0  0.35856031785E+02  0.86503389863E+00 -0.27252710550E+02  0.45045682716E+02  0.00000000000E+00 0.  1.
         11    1    3    3    0    0 -0.18783293102E+02  0.98775278149E+00  0.92326269173E+01  0.20953022583E+02  0.51100000000E-03 0. -1.
        -11    1    3    3    0    0 -0.10067976232E+01 -0.57834772379E+00  0.27609383222E+01  0.29951474461E+01  0.51100000000E-03 0.  1.
         12    1    3    3    0    0 -0.16065941060E+02 -0.12744389563E+01  0.15259145311E+02  0.22194147255E+02  0.00000000000E+00 0. -1.
</event>
<event>
 7    1  0.1486782E-008  0.4614232E+02  0.7816164E-02  0.1320468E+00
        -11   -1    0    0    0    0  0.00000000000E+00  0.00000000000E+00  0.45593999997E+02  0.45594000000E+02  0.51100000000E-03 0.  1.
         11   -1    0    0    0    0 -0.00000000000E+00 -0.00000000000E+00 -0.45593999997E+02  0.45594000000E+02  0.51100000000E-03 0. -1.
    9900012    2    1    2    0    0 -0.44896281607E+02 -0.13877110347E+01 -0.33928685937E+01  0.46142318727E+02  0.10000008811E+02 0.  0.
        -12    1    1    2    0    0  0.44896281607E+02  0.13877110347E+01  0.33928685937E+01  0.45045681273E+02  0.00000000000E+00 0.  1.
         11    1    3    3    0    0 -0.20748296051E+01 -0.21038472520E+01 -0.56881766929E+00  0.30090937094E+01  0.51100000000E-03 0. -1.
        -11    1    3    3    0    0 -0.58936622129E+01  0.15675381526E+01 -0.61826997430E+00  0.61298195864E+01  0.51100000000E-03 0.  1.
         12    1    3    3    0    0 -0.36927789789E+02 -0.85140193531E+00 -0.22057809501E+01  0.37003405432E+02  0.00000000000E+00 0. -1.
</event>
<event>
 7    1  0.1486782E-008  0.4614232E+02  0.7816164E-02  0.1320468E+00
        -11   -1    0    0    0    0  0.00000000000E+00  0.00000000000E+00  0.45593999997E+02  0.45594000000E+02  0.51100000000E-03 0. -1.
         11   -1    0    0    0    0 -0.00000000000E+00 -0.00000000000E+00 -0.45593999997E+02  0.45594000000E+02  0.51100000000E-03 0.  1.
    9900012    2    1    2    0    0  0.33075098384E+02 -0.23064224315E+02  0.20079664639E+02  0.46142317539E+02  0.99999979777E+01 0.  0.
        -12    1    1    2    0    0 -0.33075098384E+02  0.23064224315E+02 -0.20079664639E+02  0.45045682461E+02  0.00000000000E+00 0.  1.
         11    1    3    3    0    0  0.72938259297E+01 -0.87991930896E+01  0.65718096003E+01  0.13183868074E+02  0.51100000000E-03 0. -1.
        -11    1    3    3    0    0  0.39269556141E+01 -0.35519341598E+01  0.38944335773E+00  0.53093203953E+01  0.51100000000E-03 0.  1.
         12    1    3    3    0    0  0.21854316840E+02 -0.10713097065E+02  0.13118411681E+02  0.27649129070E+02  0.00000000000E+00 0. -1.
</event>
<event>
 7    1  0.1486782E-008  0.4614232E+02  0.7816164E-02  0.1320468E+00
        -11   -1    0    0    0    0  0.00000000000E+00  0.00000000000E+00  0.45593999997E+02  0.45594000000E+02  0.51100000000E-03 0. -1.
         11   -1    0    0    0    0 -0.00000000000E+00 -0.00000000000E+00 -0.45593999997E+02  0.45594000000E+02  0.51100000000E-03 0.  1.
    9900012    2    1    2    0    0 -0.26493312778E+02 -0.32472984945E+02 -0.16514331113E+02  0.46142317573E+02  0.99999982872E+01 0.  0.
        -12    1    1    2    0    0  0.26493312778E+02  0.32472984945E+02  0.16514331113E+02  0.45045682427E+02  0.00000000000E+00 0.  1.
         11    1    3    3    0    0 -0.10099594300E+02 -0.91453222307E+01 -0.63980737671E+01  0.15052377617E+02  0.51100000000E-03 0. -1.
        -11    1    3    3    0    0 -0.12397899010E+02 -0.13802775380E+02 -0.92314210027E+01  0.20723022029E+02  0.51100000000E-03 0.  1.
         12    1    3    3    0    0 -0.39958194684E+01 -0.95248873340E+01 -0.88483634325E+00  0.10366917927E+02  0.00000000000E+00 0. -1.
</event>
<event>
 7    1  0.1486782E-008  0.4614232E+02  0.7816164E-02  0.1320468E+00
        -11   -1    0    0    0    0  0.00000000000E+00  0.00000000000E+00  0.45593999997E+02  0.45594000000E+02  0.51100000000E-03 0.  1.
         11   -1    0    0    0    0 -0.00000000000E+00 -0.00000000000E+00 -0.45593999997E+02  0.45594000000E+02  0.51100000000E-03 0. -1.
    9900012    2    1    2    0    0 -0.18158963721E+02  0.41158417631E+02 -0.23129926244E+01  0.46142320516E+02  0.10000025118E+02 0.  0.
        -12    1    1    2    0    0  0.18158963721E+02 -0.41158417631E+02  0.23129926244E+01  0.45045679484E+02  0.00000000000E+00 0.  1.
         11    1    3    3    0    0 -0.13640860053E+02  0.27689751790E+02  0.21813961037E+01  0.30944367927E+02  0.51100000000E-03 0. -1.
        -11    1    3    3    0    0  0.86160538035E-01  0.21720141315E+01  0.65368510798E-01  0.21747051132E+01  0.51100000000E-03 0.  1.
         12    1    3    3    0    0 -0.46042642063E+01  0.11296651710E+02 -0.45597572389E+01  0.13023247476E+02  0.00000000000E+00 0. -1.
</event>
<event>
 7    1  0.1486782E-008  0.4614232E+02  0.7816164E-02  0.1320468E+00
        -11   -1    0    0    0    0  0.00000000000E+00  0.00000000000E+00  0.45593999997E+02  0.45594000000E+02  0.51100000000E-03 0. -1.
         11   -1    0    0    0    0 -0.00000000000E+00 -0.00000000000E+00 -0.45593999997E+02  0.45594000000E+02  0.51100000000E-03 0.  1.
    9900012    2    1    2    0    0  0.17617841020E+01  0.38186723464E+02  0.23828212604E+02  0.46142318209E+02  0.10000004086E+02 0.  0.
        -12    1    1    2    0    0 -0.17617841020E+01 -0.38186723464E+02 -0.23828212604E+02  0.45045681791E+02  0.00000000000E+00 0.  1.
         11    1    3    3    0    0  0.23530751066E+01  0.29100808307E+02  0.17292846144E+02  0.33932823852E+02  0.51100000000E-03 0. -1.
        -11    1    3    3    0    0 -0.96580600876E+00  0.90329817681E+01  0.71000183514E+01  0.11529865642E+02  0.51100000000E-03 0.  1.
         12    1    3    3    0    0  0.37451500413E+00  0.52933388562E-01 -0.56465189125E+00  0.67962871499E+00  0.00000000000E+00 0. -1.
</event>
<event>
 7    1  0.1486782E-008  0.4614232E+02  0.7816164E-02  0.1320468E+00
        -11   -1    0    0    0    0  0.00000000000E+00  0.00000000000E+00  0.45593999997E+02  0.45594000000E+02  0.51100000000E-03 0.  1.
         11   -1    0    0    0    0 -0.00000000000E+00 -0.00000000000E+00 -0.45593999997E+02  0.45594000000E+02  0.51100000000E-03 0. -1.
    9900012    2    1    2    0    0  0.21954921168E+02 -0.49816503495E+01 -0.39016383455E+02  0.46142316726E+02  0.99999905591E+01 0.  0.
        -12    1    1    2    0    0 -0.21954921168E+02  0.49816503495E+01  0.39016383455E+02  0.45045683274E+02  0.00000000000E+00 0.  1.
         11    1    3    3    0    0  0.62836266909E+01 -0.75553973340E+00 -0.73622253083E+01  0.97086130024E+01  0.51100000000E-03 0. -1.
        -11    1    3    3    0    0  0.65333177532E+01  0.13982129458E+01 -0.77543644975E+01  0.10235692909E+02  0.51100000000E-03 0.  1.
        -12    1    3    3    0    0  0.91379767242E+01 -0.56243235620E+01 -0.23899793650E+02  0.26198010814E+02  0.00000000000E+00 0.  1.
</event>
<event>
 7    1  0.1486782E-008  0.4614232E+02  0.7816164E-02  0.1320468E+00
        -11   -1    0    0    0    0  0.00000000000E+00  0.00000000000E+00  0.45593999997E+02  0.45594000000E+02  0.51100000000E-03 0.  1.
         11   -1    0    0    0    0 -0.00000000000E+00 -0.00000000000E+00 -0.45593999997E+02  0.45594000000E+02  0.51100000000E-03 0. -1.
    9900012    2    1    2    0    0  0.12830803203E+01  0.74546777185E+01 -0.44406024065E+02  0.46142317762E+02  0.10000000010E+02 0.  0.
        -12    1    1    2    0    0 -0.12830803203E+01 -0.74546777185E+01  0.44406024065E+02  0.45045682238E+02  0.00000000000E+00 0.  1.
         11    1    3    3    0    0  0.35262964364E+01  0.18575542033E+01 -0.31553284176E+02  0.31804009445E+02  0.51100000000E-03 0. -1.
        -11    1    3    3    0    0 -0.47256221047E+00  0.38094742401E+01 -0.76495632945E+01  0.85586931179E+01  0.51100000000E-03 0.  1.
         12    1    3    3    0    0 -0.17706539057E+01  0.17876492751E+01 -0.52031765944E+01  0.57796151997E+01  0.00000000000E+00 0. -1.
</event>
<event>
 7    1  0.1486782E-008  0.4614232E+02  0.7816164E-02  0.1320468E+00
        -11   -1    0    0    0    0  0.00000000000E+00  0.00000000000E+00  0.45593999997E+02  0.45594000000E+02  0.51100000000E-03 0.  1.
         11   -1    0    0    0    0 -0.00000000000E+00 -0.00000000000E+00 -0.45593999997E+02  0.45594000000E+02  0.51100000000E-03 0. -1.
    9900012    2    1    2    0    0  0.28364425895E+02  0.11830107860E+01 -0.34973895706E+02  0.46142317058E+02  0.99999935904E+01 0.  0.
        -12    1    1    2    0    0 -0.28364425895E+02 -0.11830107860E+01  0.34973895706E+02  0.45045682942E+02  0.00000000000E+00 0.  1.
         11    1    3    3    0    0  0.10537390446E+02  0.11932278058E+01 -0.19736777925E+02  0.22405374202E+02  0.51100000000E-03 0. -1.
        -11    1    3    3    0    0  0.13644080791E+02 -0.70265073081E+00 -0.96652136197E+01  0.16735322323E+02  0.51100000000E-03 0.  1.
        -12    1    3    3    0    0  0.41829546574E+01  0.69243371093E+00 -0.55719041612E+01  0.70016205333E+01  0.00000000000E+00 0.  1.
</event>
<event>
 7    1  0.1486782E-008  0.4614232E+02  0.7816164E-02  0.1320468E+00
        -11   -1    0    0    0    0  0.00000000000E+00  0.00000000000E+00  0.45593999997E+02  0.45594000000E+02  0.51100000000E-03 0. -1.
         11   -1    0    0    0    0 -0.00000000000E+00 -0.00000000000E+00 -0.45593999997E+02  0.45594000000E+02  0.51100000000E-03 0.  1.
    9900012    2    1    2    0    0  0.10124088554E+02  0.33300412313E+02  0.28595435809E+02  0.46142316762E+02  0.99999908897E+01 0.  0.
        -12    1    1    2    0    0 -0.10124088554E+02 -0.33300412313E+02 -0.28595435809E+02  0.45045683238E+02  0.00000000000E+00 0.  1.
         11    1    3    3    0    0  0.64175760143E+01  0.16423971399E+02  0.13390009539E+02  0.22141013395E+02  0.51100000000E-03 0. -1.
        -11    1    3    3    0    0  0.15919929711E+01  0.73863833995E+00  0.40420592624E-01  0.17554664061E+01  0.51100000000E-03 0.  1.
        -12    1    3    3    0    0  0.21145195682E+01  0.16137802574E+02  0.15165005677E+02  0.22245836961E+02  0.00000000000E+00 0.  1.
</event>
<event>
 7    1  0.1486782E-008  0.4614232E+02  0.7816164E-02  0.1320468E+00
        -11   -1    0    0    0    0  0.00000000000E+00  0.00000000000E+00  0.45593999997E+02  0.45594000000E+02  0.51100000000E-03 0.  1.
         11   -1    0    0    0    0 -0.00000000000E+00 -0.00000000000E+00 -0.45593999997E+02  0.45594000000E+02  0.51100000000E-03 0. -1.
    9900012    2    1    2    0    0 -0.24156299304E+02  0.12811232119E+02 -0.35797472181E+02  0.46142317865E+02  0.10000000946E+02 0.  0.
        -12    1    1    2    0    0  0.24156299304E+02 -0.12811232119E+02  0.35797472181E+02  0.45045682135E+02  0.00000000000E+00 0.  1.
         11    1    3    3    0    0 -0.67087185244E+00  0.24616990858E+01 -0.37455039687E+01  0.45319787811E+01  0.51100000000E-03 0. -1.
        -11    1    3    3    0    0 -0.35121465669E+01  0.35239831891E+01 -0.34126279683E+01  0.60332131518E+01  0.51100000000E-03 0.  1.
         12    1    3    3    0    0 -0.19973280884E+02  0.68255498440E+01 -0.28639340244E+02  0.35577125932E+02  0.00000000000E+00 0. -1.
</event>
<event>
 7    1  0.1486782E-008  0.4614232E+02  0.7816164E-02  0.1320468E+00
        -11   -1    0    0    0    0  0.00000000000E+00  0.00000000000E+00  0.45593999997E+02  0.45594000000E+02  0.51100000000E-03 0. -1.
         11   -1    0    0    0    0 -0.00000000000E+00 -0.00000000000E+00 -0.45593999997E+02  0.45594000000E+02  0.51100000000E-03 0.  1.
    9900012    2    1    2    0    0 -0.15927894018E+02 -0.27194959302E+02  0.32184621411E+02  0.46142317913E+02  0.10000001389E+02 0.  0.
        -12    1    1    2    0    0  0.15927894018E+02  0.27194959302E+02 -0.32184621411E+02  0.45045682087E+02  0.00000000000E+00 0.  1.
         11    1    3    3    0    0 -0.14103734262E+02 -0.22090705415E+02  0.24645939249E+02  0.35976894079E+02  0.51100000000E-03 0. -1.
        -11    1    3    3    0    0  0.12940344703E+01 -0.16620359306E+01  0.17138217628E+01  0.27155246161E+01  0.51100000000E-03 0.  1.
        -12    1    3    3    0    0 -0.31181942261E+01 -0.34422179567E+01  0.58248603988E+01  0.74498992180E+01  0.00000000000E+00 0.  1.
</event>
<event>
 7    1  0.1486782E-008  0.4614232E+02  0.7816164E-02  0.1320468E+00
        -11   -1    0    0    0    0  0.00000000000E+00  0.00000000000E+00  0.45593999997E+02  0.45594000000E+02  0.51100000000E-03 0.  1.
         11   -1    0    0    0    0 -0.00000000000E+00 -0.00000000000E+00 -0.45593999997E+02  0.45594000000E+02  0.51100000000E-03 0. -1.
    9900012    2    1    2    0    0  0.36207185361E+02 -0.15787563602E+02 -0.21654238448E+02  0.46142317865E+02  0.10000000946E+02 0.  0.
        -12    1    1    2    0    0 -0.36207185361E+02  0.15787563602E+02  0.21654238448E+02  0.45045682135E+02  0.00000000000E+00 0.  1.
         11    1    3    3    0    0  0.38634760600E+01 -0.24547825171E+01 -0.63794815810E+01  0.78517634946E+01  0.51100000000E-03 0. -1.
        -11    1    3    3    0    0  0.21517556068E+02 -0.10226036507E+02 -0.96935500367E+01  0.25720457896E+02  0.51100000000E-03 0.  1.
         12    1    3    3    0    0  0.10826153233E+02 -0.31067445777E+01 -0.55812068299E+01  0.12570096474E+02  0.00000000000E+00 0. -1.
</event>
<event>
 7    1  0.1486782E-008  0.4614232E+02  0.7816164E-02  0.1320468E+00
        -11   -1    0    0    0    0  0.00000000000E+00  0.00000000000E+00  0.45593999997E+02  0.45594000000E+02  0.51100000000E-03 0. -1.
         11   -1    0    0    0    0 -0.00000000000E+00 -0.00000000000E+00 -0.45593999997E+02  0.45594000000E+02  0.51100000000E-03 0.  1.
    9900012    2    1    2    0    0  0.20757510139E+02  0.37745240620E+02  0.13173309088E+02  0.46142317755E+02  0.99999999422E+01 0.  0.
        -12    1    1    2    0    0 -0.20757510139E+02 -0.37745240620E+02 -0.13173309088E+02  0.45045682245E+02  0.00000000000E+00 0.  1.
         11    1    3    3    0    0  0.12822773790E+02  0.28267543905E+02  0.77870498079E+01  0.32001807935E+02  0.51100000000E-03 0. -1.
        -11    1    3    3    0    0  0.38800331841E+01  0.16344478268E+01  0.12611346926E+01  0.43950583821E+01  0.51100000000E-03 0.  1.
         12    1    3    3    0    0  0.40547031640E+01  0.78432488875E+01  0.41251245878E+01  0.97454514377E+01  0.00000000000E+00 0. -1.
</event>
<event>
 7    1  0.1486782E-008  0.4614232E+02  0.7816164E-02  0.1320468E+00
        -11   -1    0    0    0    0  0.00000000000E+00  0.00000000000E+00  0.45593999997E+02  0.45594000000E+02  0.51100000000E-03 0.  1.
         11   -1    0    0    0    0 -0.00000000000E+00 -0.00000000000E+00 -0.45593999997E+02  0.45594000000E+02  0.51100000000E-03 0. -1.
    9900012    2    1    2    0    0  0.15059001249E+02  0.14707887192E+02 -0.39824843081E+02  0.46142316625E+02  0.99999896438E+01 0.  0.
        -12    1    1    2    0    0 -0.15059001249E+02 -0.14707887192E+02  0.39824843081E+02  0.45045683375E+02  0.00000000000E+00 0.  1.
         11    1    3    3    0    0  0.99312765846E+01  0.86401117898E+01 -0.21301324903E+02  0.25040531728E+02  0.51100000000E-03 0. -1.
        -11    1    3    3    0    0  0.10897031553E+01  0.15698172954E+01 -0.12219657049E+02  0.12368176825E+02  0.51100000000E-03 0.  1.
        -12    1    3    3    0    0  0.40380215092E+01  0.44979581065E+01 -0.63038611291E+01  0.87336080729E+01  0.00000000000E+00 0.  1.
</event>
<event>
 7    1  0.1486782E-008  0.4614232E+02  0.7816164E-02  0.1320468E+00
        -11   -1    0    0    0    0  0.00000000000E+00  0.00000000000E+00  0.45593999997E+02  0.45594000000E+02  0.51100000000E-03 0. -1.
         11   -1    0    0    0    0 -0.00000000000E+00 -0.00000000000E+00 -0.45593999997E+02  0.45594000000E+02  0.51100000000E-03 0.  1.
    9900012    2    1    2    0    0 -0.31336092929E+01 -0.39285886920E+02  0.21815431462E+02  0.46142317985E+02  0.10000002045E+02 0.  0.
        -12    1    1    2    0    0  0.31336092929E+01  0.39285886920E+02 -0.21815431462E+02  0.45045682015E+02  0.00000000000E+00 0.  1.
         11    1    3    3    0    0 -0.55269010801E+01 -0.24959768175E+02  0.12385083442E+02  0.28406459741E+02  0.51100000000E-03 0. -1.
        -11    1    3    3    0    0  0.28894778223E+01 -0.95384819727E+01  0.77934258101E+01  0.12651845974E+02  0.51100000000E-03 0.  1.
        -12    1    3    3    0    0 -0.49618603510E+00 -0.47876367719E+01  0.16369222101E+01  0.50840122702E+01  0.00000000000E+00 0.  1.
</event>
<event>
 7    1  0.1486782E-008  0.4614232E+02  0.7816164E-02  0.1320468E+00
        -11   -1    0    0    0    0  0.00000000000E+00  0.00000000000E+00  0.45593999997E+02  0.45594000000E+02  0.51100000000E-03 0.  1.
         11   -1    0    0    0    0 -0.00000000000E+00 -0.00000000000E+00 -0.45593999997E+02  0.45594000000E+02  0.51100000000E-03 0. -1.
    9900012    2    1    2    0    0 -0.37456953491E+01 -0.73094919734E+01 -0.44290569504E+02  0.46142318148E+02  0.10000003525E+02 0.  0.
        -12    1    1    2    0    0  0.37456953491E+01  0.73094919734E+01  0.44290569504E+02  0.45045681852E+02  0.00000000000E+00 0.  1.
         11    1    3    3    0    0 -0.41080537306E+00 -0.54172705406E+01 -0.22210407148E+02  0.22865208661E+02  0.51100000000E-03 0. -1.
        -11    1    3    3    0    0 -0.25757623895E+01  0.12033930664E+01 -0.39375498694E+01  0.48566455497E+01  0.51100000000E-03 0.  1.
        -12    1    3    3    0    0 -0.75912758652E+00 -0.30956144992E+01 -0.18142612486E+02  0.18420463937E+02  0.00000000000E+00 0.  1.
</event>
<event>
 7    1  0.1486782E-008  0.4614232E+02  0.7816164E-02  0.1320468E+00
        -11   -1    0    0    0    0  0.00000000000E+00  0.00000000000E+00  0.45593999997E+02  0.45594000000E+02  0.51100000000E-03 0.  1.
         11   -1    0    0    0    0 -0.00000000000E+00 -0.00000000000E+00 -0.45593999997E+02  0.45594000000E+02  0.51100000000E-03 0. -1.
    9900012    2    1    2    0    0 -0.18461772541E+02 -0.38678783547E+02 -0.13864641831E+02  0.46142316132E+02  0.99999851486E+01 0.  0.
        -12    1    1    2    0    0  0.18461772541E+02  0.38678783547E+02  0.13864641831E+02  0.45045683868E+02  0.00000000000E+00 0.  1.
         11    1    3    3    0    0 -0.18485425504E+01 -0.55758304778E+01 -0.54683502141E+01  0.80255747086E+01  0.51100000000E-03 0. -1.
        -11    1    3    3    0    0 -0.15180429830E+02 -0.29448915918E+02 -0.84483016964E+01  0.34191488713E+02  0.51100000000E-03 0.  1.
        -12    1    3    3    0    0 -0.14328001602E+01 -0.36540371509E+01  0.52010079362E-01  0.39252527113E+01  0.00000000000E+00 0.  1.
</event>
<event>
 7    1  0.1486782E-008  0.4614232E+02  0.7816164E-02  0.1320468E+00
        -11   -1    0    0    0    0  0.00000000000E+00  0.00000000000E+00  0.45593999997E+02  0.45594000000E+02  0.51100000000E-03 0.  1.
         11   -1    0    0    0    0 -0.00000000000E+00 -0.00000000000E+00 -0.45593999997E+02  0.45594000000E+02  0.51100000000E-03 0. -1.
    9900012    2    1    2    0    0 -0.20978761403E+01 -0.35384450600E+02 -0.27796637091E+02  0.46142318053E+02  0.10000002660E+02 0.  0.
        -12    1    1    2    0    0  0.20978761403E+01  0.35384450600E+02  0.27796637091E+02  0.45045681947E+02  0.00000000000E+00 0.  1.
         11    1    3    3    0    0  0.28513497410E+01 -0.12615299873E+02 -0.99025166369E+01  0.16289132029E+02  0.51100000000E-03 0. -1.
        -11    1    3    3    0    0 -0.19624937764E+01 -0.25848960007E+01 -0.11008526959E+01  0.34270900303E+01  0.51100000000E-03 0.  1.
         12    1    3    3    0    0 -0.29867321048E+01 -0.20184254726E+02 -0.16793267758E+02  0.26426095994E+02  0.00000000000E+00 0. -1.
</event>
<event>
 7    1  0.1486782E-008  0.4614232E+02  0.7816164E-02  0.1320468E+00
        -11   -1    0    0    0    0  0.00000000000E+00  0.00000000000E+00  0.45593999997E+02  0.45594000000E+02  0.51100000000E-03 0. -1.
         11   -1    0    0    0    0 -0.00000000000E+00 -0.00000000000E+00 -0.45593999997E+02  0.45594000000E+02  0.51100000000E-03 0.  1.
    9900012    2    1    2    0    0  0.20397968491E+02 -0.37717420352E+02 -0.13799732860E+02  0.46142317149E+02  0.99999944161E+01 0.  0.
        -12    1    1    2    0    0 -0.20397968491E+02  0.37717420352E+02  0.13799732860E+02  0.45045682851E+02  0.00000000000E+00 0.  1.
         11    1    3    3    0    0  0.21213139198E+01 -0.16998620895E+01  0.10544066697E+01  0.29156950382E+01  0.51100000000E-03 0.  1.
        -11    1    3    3    0    0  0.14955836466E+02 -0.25852265187E+02 -0.11707598103E+02  0.32079347146E+02  0.51100000000E-03 0. -1.
        -12    1    3    3    0    0  0.33208181046E+01 -0.10165293075E+02 -0.31465414264E+01  0.11147274965E+02  0.00000000000E+00 0.  1.
</event>
<event>
 7    1  0.1486782E-008  0.4614232E+02  0.7816164E-02  0.1320468E+00
        -11   -1    0    0    0    0  0.00000000000E+00  0.00000000000E+00  0.45593999997E+02  0.45594000000E+02  0.51100000000E-03 0.  1.
         11   -1    0    0    0    0 -0.00000000000E+00 -0.00000000000E+00 -0.45593999997E+02  0.45594000000E+02  0.51100000000E-03 0. -1.
    9900012    2    1    2    0    0 -0.42922390733E+02  0.28528773373E+01 -0.13365737695E+02  0.46142317859E+02  0.10000000897E+02 0.  0.
        -12    1    1    2    0    0  0.42922390733E+02 -0.28528773373E+01  0.13365737695E+02  0.45045682141E+02  0.00000000000E+00 0.  1.
         11    1    3    3    0    0 -0.10864985077E+02  0.23198816564E+01 -0.62328684437E+01  0.12738853987E+02  0.51100000000E-03 0. -1.
        -11    1    3    3    0    0 -0.24773641456E+02 -0.15522086423E+01 -0.37411888386E+01  0.25102572713E+02  0.51100000000E-03 0.  1.
        -12    1    3    3    0    0 -0.72837642011E+01  0.20852043233E+01 -0.33916804125E+01  0.83008911586E+01  0.00000000000E+00 0.  1.
</event>
