<event>
 7    1  0.3708346E-009  0.4614232E+02  0.7816164E-02  0.1320468E+00
        -11   -1    0    0    0    0  0.00000000000E+00  0.00000000000E+00  0.45593999997E+02  0.45594000000E+02  0.51100000000E-03 0.  1.
         11   -1    0    0    0    0 -0.00000000000E+00 -0.00000000000E+00 -0.45593999997E+02  0.45594000000E+02  0.51100000000E-03 0. -1.
    9900012    2    1    2    0    0  0.33938081801E+02  0.18284580298E+02 -0.23302235862E+02  0.46142317974E+02  0.10000001943E+02 0.  0.
        -12    1    1    2    0    0 -0.33938081801E+02 -0.18284580298E+02  0.23302235862E+02  0.45045682026E+02  0.00000000000E+00 0.  1.
         11    1    3    3    0    0  0.19553596089E+02  0.92494249950E+01 -0.14042522851E+02  0.25789289076E+02  0.51100000000E-03 0. -1.
        -11    1    3    3    0    0  0.13759676649E+02  0.66050939391E+01 -0.64049069757E+01  0.16552305008E+02  0.51100000000E-03 0.  1.
        -12    1    3    3    0    0  0.62480906299E+00  0.24300613640E+01 -0.28548060345E+01  0.38007238906E+01  0.00000000000E+00 0.  1.
</event>
<event>
 7    1  0.3708346E-009  0.4614232E+02  0.7816164E-02  0.1320468E+00
        -11   -1    0    0    0    0  0.00000000000E+00  0.00000000000E+00  0.45593999997E+02  0.45594000000E+02  0.51100000000E-03 0.  1.
         11   -1    0    0    0    0 -0.00000000000E+00 -0.00000000000E+00 -0.45593999997E+02  0.45594000000E+02  0.51100000000E-03 0. -1.
    9900012    2    1    2    0    0  0.48076347833E+01 -0.22528611330E+02 -0.38709969979E+02  0.46142318115E+02  0.10000003228E+02 0.  0.
        -12    1    1    2    0    0 -0.48076347833E+01  0.22528611330E+02  0.38709969979E+02  0.45045681885E+02  0.00000000000E+00 0.  1.
         11    1    3    3    0    0 -0.42529513224E-02 -0.45136993571E+01 -0.75063303654E+01  0.87589095092E+01  0.51100000000E-03 0. -1.
        -11    1    3    3    0    0  0.12292169036E+01 -0.14070433745E+01 -0.16185140554E-01  0.18684237939E+01  0.51100000000E-03 0.  1.
        -12    1    3    3    0    0  0.35826708310E+01 -0.16607868599E+02 -0.31187454473E+02  0.35514984812E+02  0.00000000000E+00 0.  1.
</event>
<event>
 7    1  0.3708346E-009  0.4614232E+02  0.7816164E-02  0.1320468E+00
        -11   -1    0    0    0    0  0.00000000000E+00  0.00000000000E+00  0.45593999997E+02  0.45594000000E+02  0.51100000000E-03 0.  1.
         11   -1    0    0    0    0 -0.00000000000E+00 -0.00000000000E+00 -0.45593999997E+02  0.45594000000E+02  0.51100000000E-03 0. -1.
    9900012    2    1    2    0    0  0.82237419050E+01  0.31863929158E+02 -0.30759934054E+02  0.46142318128E+02  0.10000003348E+02 0.  0.
        -12    1    1    2    0    0 -0.82237419050E+01 -0.31863929158E+02  0.30759934054E+02  0.45045681872E+02  0.00000000000E+00 0.  1.
         11    1    3    3    0    0  0.33345266866E+00  0.81553907854E+01 -0.10689078747E+02  0.13449088976E+02  0.51100000000E-03 0. -1.
        -11    1    3    3    0    0  0.17820516099E+01  0.23157947334E+01 -0.31321745440E+00  0.29388294646E+01  0.51100000000E-03 0.  1.
         12    1    3    3    0    0  0.61082376265E+01  0.21392743639E+02 -0.19757637852E+02  0.29754399688E+02  0.00000000000E+00 0. -1.
</event>
<event>
 7    1  0.3708346E-009  0.4614232E+02  0.7816164E-02  0.1320468E+00
        -11   -1    0    0    0    0  0.00000000000E+00  0.00000000000E+00  0.45593999997E+02  0.45594000000E+02  0.51100000000E-03 0.  1.
         11   -1    0    0    0    0 -0.00000000000E+00 -0.00000000000E+00 -0.45593999997E+02  0.45594000000E+02  0.51100000000E-03 0. -1.
    9900012    2    1    2    0    0  0.32036897136E+02 -0.17705520954E+02 -0.26253861501E+02  0.46142317698E+02  0.99999994266E+01 0.  0.
        -12    1    1    2    0    0 -0.32036897136E+02  0.17705520954E+02  0.26253861501E+02  0.45045682302E+02  0.00000000000E+00 0.  1.
         11    1    3    3    0    0  0.85278897381E+01 -0.37272557717E+01 -0.23370387550E+01  0.95957849797E+01  0.51100000000E-03 0. -1.
        -11    1    3    3    0    0  0.38828608046E+01 -0.30461984221E+01 -0.62681386767E+01  0.79778127069E+01  0.51100000000E-03 0.  1.
         12    1    3    3    0    0  0.19626146593E+02 -0.10932066760E+02 -0.17648684069E+02  0.28568720012E+02  0.00000000000E+00 0. -1.
</event>
<event>
 7    1  0.3708346E-009  0.4614232E+02  0.7816164E-02  0.1320468E+00
        -11   -1    0    0    0    0  0.00000000000E+00  0.00000000000E+00  0.45593999997E+02  0.45594000000E+02  0.51100000000E-03 0.  1.
         11   -1    0    0    0    0 -0.00000000000E+00 -0.00000000000E+00 -0.45593999997E+02  0.45594000000E+02  0.51100000000E-03 0. -1.
    9900012    2    1    2    0    0  0.45424073417E+01  0.35834403794E+02 -0.26914224347E+02  0.46142318388E+02  0.10000005713E+02 0.  0.
        -12    1    1    2    0    0 -0.45424073417E+01 -0.35834403794E+02  0.26914224347E+02  0.45045681612E+02  0.00000000000E+00 0.  1.
         11    1    3    3    0    0  0.72446506793E+00  0.19565197624E+02 -0.17936253798E+02  0.26552420008E+02  0.51100000000E-03 0. -1.
        -11    1    3    3    0    0  0.52710829165E+00 -0.23877506068E+00 -0.30497596951E+00  0.65411565020E+00  0.51100000000E-03 0.  1.
         12    1    3    3    0    0  0.32908339821E+01  0.16507981231E+02 -0.86729945798E+01  0.18935782730E+02  0.00000000000E+00 0. -1.
</event>
<event>
 7    1  0.3708346E-009  0.4614231E+02  0.7816164E-02  0.1320468E+00
        -11   -1    0    0    0    0  0.00000000000E+00  0.00000000000E+00  0.45593999997E+02  0.45594000000E+02  0.51100000000E-03 0. -1.
         11   -1    0    0    0    0 -0.00000000000E+00 -0.00000000000E+00 -0.45593999997E+02  0.45594000000E+02  0.51100000000E-03 0.  1.
    9900012    2    1    2    0    0  0.24311795986E+02  0.37747452264E+02  0.36304581352E+01  0.46142314271E+02  0.99999681768E+01 0.  0.
        -12    1    1    2    0    0 -0.24311795986E+02 -0.37747452264E+02 -0.36304581352E+01  0.45045685729E+02  0.00000000000E+00 0.  1.
         11    1    3    3    0    0  0.89190807058E+01  0.16577677772E+02  0.36263427922E+01  0.19170804972E+02  0.51100000000E-03 0.  1.
        -11    1    3    3    0    0  0.80070271676E+01  0.59275371923E+01  0.95149849988E+00  0.10007673600E+02  0.51100000000E-03 0. -1.
        -12    1    3    3    0    0  0.73856881127E+01  0.15242237299E+02 -0.94738315684E+00  0.16963835699E+02  0.00000000000E+00 0.  1.
</event>
<event>
 7    1  0.3708346E-009  0.4614232E+02  0.7816164E-02  0.1320468E+00
        -11   -1    0    0    0    0  0.00000000000E+00  0.00000000000E+00  0.45593999997E+02  0.45594000000E+02  0.51100000000E-03 0.  1.
         11   -1    0    0    0    0 -0.00000000000E+00 -0.00000000000E+00 -0.45593999997E+02  0.45594000000E+02  0.51100000000E-03 0. -1.
    9900012    2    1    2    0    0 -0.67689596164E+01 -0.99972481941E+01 -0.43397577916E+02  0.46142317025E+02  0.99999932845E+01 0.  0.
        -12    1    1    2    0    0  0.67689596164E+01  0.99972481941E+01  0.43397577916E+02  0.45045682975E+02  0.00000000000E+00 0.  1.
         11    1    3    3    0    0 -0.25331969605E+01 -0.23916085565E+01 -0.66982506548E+01  0.75500622794E+01  0.51100000000E-03 0. -1.
        -11    1    3    3    0    0  0.35640451611E-01  0.14005334487E+01 -0.99115464403E+01  0.10010070793E+02  0.51100000000E-03 0.  1.
        -12    1    3    3    0    0 -0.42714031075E+01 -0.90061730863E+01 -0.26787780821E+02  0.28582183952E+02  0.00000000000E+00 0.  1.
</event>
<event>
 7    1  0.3708346E-009  0.4614232E+02  0.7816164E-02  0.1320468E+00
        -11   -1    0    0    0    0  0.00000000000E+00  0.00000000000E+00  0.45593999997E+02  0.45594000000E+02  0.51100000000E-03 0. -1.
         11   -1    0    0    0    0 -0.00000000000E+00 -0.00000000000E+00 -0.45593999997E+02  0.45594000000E+02  0.51100000000E-03 0.  1.
    9900012    2    1    2    0    0 -0.14254448297E+02 -0.11862830812E+02  0.41051155682E+02  0.46142318365E+02  0.10000005508E+02 0.  0.
        -12    1    1    2    0    0  0.14254448297E+02  0.11862830812E+02 -0.41051155682E+02  0.45045681635E+02  0.00000000000E+00 0.  1.
         11    1    3    3    0    0 -0.71458103987E+01 -0.69815082041E+01  0.14994002410E+02  0.18017329757E+02  0.51100000000E-03 0. -1.
        -11    1    3    3    0    0 -0.34241645677E+01 -0.35307107040E+01  0.21746003238E+02  0.22295279279E+02  0.51100000000E-03 0.  1.
         12    1    3    3    0    0 -0.36844733304E+01 -0.13506119037E+01  0.43111500348E+01  0.58297093289E+01  0.00000000000E+00 0. -1.
</event>
<event>
 7    1  0.3708346E-009  0.4614232E+02  0.7816164E-02  0.1320468E+00
        -11   -1    0    0    0    0  0.00000000000E+00  0.00000000000E+00  0.45593999997E+02  0.45594000000E+02  0.51100000000E-03 0. -1.
         11   -1    0    0    0    0 -0.00000000000E+00 -0.00000000000E+00 -0.45593999997E+02  0.45594000000E+02  0.51100000000E-03 0.  1.
    9900012    2    1    2    0    0  0.11092323713E+02 -0.22391135395E+02  0.37479472743E+02  0.46142318002E+02  0.10000002194E+02 0.  0.
        -12    1    1    2    0    0 -0.11092323713E+02  0.22391135395E+02 -0.37479472743E+02  0.45045681998E+02  0.00000000000E+00 0.  1.
         11    1    3    3    0    0  0.23321452431E+01 -0.11986102838E+02  0.21908544331E+02  0.25081664173E+02  0.51100000000E-03 0. -1.
        -11    1    3    3    0    0  0.31799188101E+01 -0.18249907498E+01  0.60937524048E+01  0.71117011683E+01  0.51100000000E-03 0.  1.
         12    1    3    3    0    0  0.55802596595E+01 -0.85800418066E+01  0.94771760065E+01  0.13948952661E+02  0.00000000000E+00 0. -1.
</event>
<event>
 7    1  0.3708346E-009  0.4614232E+02  0.7816164E-02  0.1320468E+00
        -11   -1    0    0    0    0  0.00000000000E+00  0.00000000000E+00  0.45593999997E+02  0.45594000000E+02  0.51100000000E-03 0.  1.
         11   -1    0    0    0    0 -0.00000000000E+00 -0.00000000000E+00 -0.45593999997E+02  0.45594000000E+02  0.51100000000E-03 0. -1.
    9900012    2    1    2    0    0 -0.12968768499E+02 -0.31193479613E+02 -0.29797505188E+02  0.46142318274E+02  0.10000004679E+02 0.  0.
        -12    1    1    2    0    0  0.12968768499E+02  0.31193479613E+02  0.29797505188E+02  0.45045681726E+02  0.00000000000E+00 0.  1.
         11    1    3    3    0    0 -0.79166951372E+01 -0.18916002476E+02 -0.18791496822E+02  0.27813837647E+02  0.51100000000E-03 0. -1.
        -11    1    3    3    0    0 -0.21615403804E+01 -0.99902358879E+01 -0.10419694527E+02  0.14596133194E+02  0.51100000000E-03 0.  1.
        -12    1    3    3    0    0 -0.28905329814E+01 -0.22872412491E+01 -0.58631383803E+00  0.37323474335E+01  0.00000000000E+00 0.  1.
</event>
<event>
 7    1  0.3708346E-009  0.4614232E+02  0.7816164E-02  0.1320468E+00
        -11   -1    0    0    0    0  0.00000000000E+00  0.00000000000E+00  0.45593999997E+02  0.45594000000E+02  0.51100000000E-03 0.  1.
         11   -1    0    0    0    0 -0.00000000000E+00 -0.00000000000E+00 -0.45593999997E+02  0.45594000000E+02  0.51100000000E-03 0. -1.
    9900012    2    1    2    0    0 -0.19721108557E+02  0.31874135040E+01 -0.40373653307E+02  0.46142316423E+02  0.99999878009E+01 0.  0.
        -12    1    1    2    0    0  0.19721108557E+02 -0.31874135040E+01  0.40373653307E+02  0.45045683577E+02  0.00000000000E+00 0.  1.
         11    1    3    3    0    0 -0.52901192709E+00 -0.61472213410E+00 -0.40369547177E+01  0.41176134563E+01  0.51100000000E-03 0. -1.
        -11    1    3    3    0    0 -0.15297537214E+02  0.11271654777E+01 -0.32501628947E+02  0.35939407776E+02  0.51100000000E-03 0.  1.
        -12    1    3    3    0    0 -0.38945594157E+01  0.26749701604E+01 -0.38350696422E+01  0.60852951910E+01  0.00000000000E+00 0.  1.
</event>
<event>
 7    1  0.3708346E-009  0.4614231E+02  0.7816164E-02  0.1320468E+00
        -11   -1    0    0    0    0  0.00000000000E+00  0.00000000000E+00  0.45593999997E+02  0.45594000000E+02  0.51100000000E-03 0.  1.
         11   -1    0    0    0    0 -0.00000000000E+00 -0.00000000000E+00 -0.45593999997E+02  0.45594000000E+02  0.51100000000E-03 0. -1.
    9900012    2    1    2    0    0 -0.33342237201E+02 -0.22572958499E+02  0.20195821127E+02  0.46142307332E+02  0.99999048996E+01 0.  0.
        -12    1    1    2    0    0  0.33342237201E+02  0.22572958499E+02 -0.20195821127E+02  0.45045692668E+02  0.00000000000E+00 0.  1.
         11    1    3    3    0    0 -0.29195444633E+02 -0.22231218089E+02  0.15625546422E+02  0.39884317046E+02  0.51100000000E-03 0. -1.
        -11    1    3    3    0    0 -0.12124543780E+01  0.16982654370E+00  0.18848258629E+01  0.22475443195E+01  0.51100000000E-03 0.  1.
        -12    1    3    3    0    0 -0.29343381903E+01 -0.51156695310E+00  0.26854488423E+01  0.40104459661E+01  0.00000000000E+00 0.  1.
</event>
<event>
 7    1  0.3708346E-009  0.4614232E+02  0.7816164E-02  0.1320468E+00
        -11   -1    0    0    0    0  0.00000000000E+00  0.00000000000E+00  0.45593999997E+02  0.45594000000E+02  0.51100000000E-03 0. -1.
         11   -1    0    0    0    0 -0.00000000000E+00 -0.00000000000E+00 -0.45593999997E+02  0.45594000000E+02  0.51100000000E-03 0.  1.
    9900012    2    1    2    0    0  0.65569528629E+01 -0.43235037932E+02  0.10809778191E+02  0.46142318294E+02  0.10000004861E+02 0.  0.
        -12    1    1    2    0    0 -0.65569528629E+01  0.43235037932E+02 -0.10809778191E+02  0.45045681706E+02  0.00000000000E+00 0.  1.
         11    1    3    3    0    0  0.34008039693E+01 -0.26129718847E+02  0.65704547530E+01  0.27156924542E+02  0.51100000000E-03 0. -1.
        -11    1    3    3    0    0  0.37845254701E+01 -0.51581587691E+01  0.26172710233E+01  0.69122603244E+01  0.51100000000E-03 0.  1.
         12    1    3    3    0    0 -0.62837657650E+00 -0.11947160316E+02  0.16220524142E+01  0.12073133428E+02  0.00000000000E+00 0. -1.
</event>
<event>
 7    1  0.3708346E-009  0.4614232E+02  0.7816164E-02  0.1320468E+00
        -11   -1    0    0    0    0  0.00000000000E+00  0.00000000000E+00  0.45593999997E+02  0.45594000000E+02  0.51100000000E-03 0.  1.
         11   -1    0    0    0    0 -0.00000000000E+00 -0.00000000000E+00 -0.45593999997E+02  0.45594000000E+02  0.51100000000E-03 0. -1.
    9900012    2    1    2    0    0 -0.33000684133E+02 -0.27318128097E+02 -0.13920785789E+02  0.46142317044E+02  0.99999934605E+01 0.  0.
        -12    1    1    2    0    0  0.33000684133E+02  0.27318128097E+02  0.13920785789E+02  0.45045682956E+02  0.00000000000E+00 0.  1.
         11    1    3    3    0    0 -0.26862940196E+02 -0.21851909341E+02 -0.10810090376E+02  0.36276460026E+02  0.51100000000E-03 0. -1.
        -11    1    3    3    0    0 -0.33748223019E+01 -0.24699546129E+00 -0.17332357770E+01  0.38019125249E+01  0.51100000000E-03 0.  1.
        -12    1    3    3    0    0 -0.27629216354E+01 -0.52192232953E+01 -0.13774596356E+01  0.60639444933E+01  0.00000000000E+00 0.  1.
</event>
<event>
 7    1  0.3708346E-009  0.4614232E+02  0.7816164E-02  0.1320468E+00
        -11   -1    0    0    0    0  0.00000000000E+00  0.00000000000E+00  0.45593999997E+02  0.45594000000E+02  0.51100000000E-03 0.  1.
         11   -1    0    0    0    0 -0.00000000000E+00 -0.00000000000E+00 -0.45593999997E+02  0.45594000000E+02  0.51100000000E-03 0. -1.
    9900012    2    1    2    0    0  0.13920454142E+02 -0.23298003151E+02 -0.35951876640E+02  0.46142318428E+02  0.10000006080E+02 0.  0.
        -12    1    1    2    0    0 -0.13920454142E+02  0.23298003151E+02  0.35951876640E+02  0.45045681572E+02  0.00000000000E+00 0.  1.
         11    1    3    3    0    0  0.25345799853E+01 -0.99338767330E+01 -0.16358312602E+02  0.19305449854E+02  0.51100000000E-03 0. -1.
        -11    1    3    3    0    0  0.62591418006E+01 -0.10924096090E+02 -0.14566223228E+02  0.19253248839E+02  0.51100000000E-03 0.  1.
        -12    1    3    3    0    0  0.51267323565E+01 -0.24400303285E+01 -0.50273408106E+01  0.75836197350E+01  0.00000000000E+00 0.  1.
</event>
<event>
 7    1  0.3708346E-009  0.4614232E+02  0.7816164E-02  0.1320468E+00
        -11   -1    0    0    0    0  0.00000000000E+00  0.00000000000E+00  0.45593999997E+02  0.45594000000E+02  0.51100000000E-03 0.  1.
         11   -1    0    0    0    0 -0.00000000000E+00 -0.00000000000E+00 -0.45593999997E+02  0.45594000000E+02  0.51100000000E-03 0. -1.
    9900012    2    1    2    0    0  0.48283780931E+01 -0.74674248541E+01 -0.44159233980E+02  0.46142316359E+02  0.99999872154E+01 0.  0.
        -12    1    1    2    0    0 -0.48283780931E+01  0.74674248541E+01  0.44159233980E+02  0.45045683641E+02  0.00000000000E+00 0.  1.
         11    1    3    3    0    0  0.20079776696E+01 -0.20217234866E+01 -0.22273262171E+02  0.22454788981E+02  0.51100000000E-03 0. -1.
        -11    1    3    3    0    0 -0.20774785093E+01 -0.28204496904E+01 -0.82893827112E+01  0.89991510381E+01  0.51100000000E-03 0.  1.
        -12    1    3    3    0    0  0.48978789328E+01 -0.26252516771E+01 -0.13596589098E+02  0.14688376340E+02  0.00000000000E+00 0.  1.
</event>
<event>
 7    1  0.3708346E-009  0.4614232E+02  0.7816164E-02  0.1320468E+00
        -11   -1    0    0    0    0  0.00000000000E+00  0.00000000000E+00  0.45593999997E+02  0.45594000000E+02  0.51100000000E-03 0. -1.
         11   -1    0    0    0    0 -0.00000000000E+00 -0.00000000000E+00 -0.45593999997E+02  0.45594000000E+02  0.51100000000E-03 0.  1.
    9900012    2    1    2    0    0  0.18924244898E+02  0.40677217120E+02 -0.40435679144E+01  0.46142317865E+02  0.10000000943E+02 0.  0.
        -12    1    1    2    0    0 -0.18924244898E+02 -0.40677217120E+02  0.40435679144E+01  0.45045682135E+02  0.00000000000E+00 0.  1.
         11    1    3    3    0    0  0.50382268410E+00  0.64626430839E+01 -0.63067740092E+00  0.65128601376E+01  0.51100000000E-03 0. -1.
        -11    1    3    3    0    0  0.84489718104E+01  0.13054557053E+02 -0.45739198183E+01  0.16208865700E+02  0.51100000000E-03 0.  1.
         12    1    3    3    0    0  0.99714504031E+01  0.21160016983E+02  0.11610293048E+01  0.23420592027E+02  0.00000000000E+00 0. -1.
</event>
<event>
 7    1  0.3708346E-009  0.4614232E+02  0.7816164E-02  0.1320468E+00
        -11   -1    0    0    0    0  0.00000000000E+00  0.00000000000E+00  0.45593999997E+02  0.45594000000E+02  0.51100000000E-03 0.  1.
         11   -1    0    0    0    0 -0.00000000000E+00 -0.00000000000E+00 -0.45593999997E+02  0.45594000000E+02  0.51100000000E-03 0. -1.
    9900012    2    1    2    0    0 -0.30284883258E+02  0.30791975848E+02  0.12798183661E+02  0.46142318346E+02  0.10000005338E+02 0.  0.
        -12    1    1    2    0    0  0.30284883258E+02 -0.30791975848E+02 -0.12798183661E+02  0.45045681654E+02  0.00000000000E+00 0.  1.
         11    1    3    3    0    0 -0.76839680674E+01  0.39516401428E+01  0.32999004861E+01  0.92492252950E+01  0.51100000000E-03 0. -1.
        -11    1    3    3    0    0 -0.11294928044E+02  0.17209397456E+02  0.35230056676E+01  0.20884212446E+02  0.51100000000E-03 0.  1.
        -12    1    3    3    0    0 -0.11305987147E+02  0.96309382498E+01  0.59752775077E+01  0.16008880605E+02  0.00000000000E+00 0.  1.
</event>
<event>
 7    1  0.3708346E-009  0.4614232E+02  0.7816164E-02  0.1320468E+00
        -11   -1    0    0    0    0  0.00000000000E+00  0.00000000000E+00  0.45593999997E+02  0.45594000000E+02  0.51100000000E-03 0.  1.
         11   -1    0    0    0    0 -0.00000000000E+00 -0.00000000000E+00 -0.45593999997E+02  0.45594000000E+02  0.51100000000E-03 0. -1.
    9900012    2    1    2    0    0 -0.24367486506E+02 -0.37473404856E+02 -0.55752140623E+01  0.46142317832E+02  0.10000000649E+02 0.  0.
        -12    1    1    2    0    0  0.24367486506E+02  0.37473404856E+02  0.55752140623E+01  0.45045682168E+02  0.00000000000E+00 0.  1.
         11    1    3    3    0    0 -0.25707851627E+01 -0.10099994021E+02 -0.93556229643E+00  0.10463942501E+02  0.51100000000E-03 0. -1.
        -11    1    3    3    0    0 -0.24839524629E+01 -0.15119753734E+01 -0.14352248387E+01  0.32428320904E+01  0.51100000000E-03 0.  1.
         12    1    3    3    0    0 -0.19312748881E+02 -0.25861435461E+02 -0.32044269272E+01  0.32435543241E+02  0.00000000000E+00 0. -1.
</event>
<event>
 7    1  0.3708346E-009  0.4614232E+02  0.7816164E-02  0.1320468E+00
        -11   -1    0    0    0    0  0.00000000000E+00  0.00000000000E+00  0.45593999997E+02  0.45594000000E+02  0.51100000000E-03 0.  1.
         11   -1    0    0    0    0 -0.00000000000E+00 -0.00000000000E+00 -0.45593999997E+02  0.45594000000E+02  0.51100000000E-03 0. -1.
    9900012    2    1    2    0    0 -0.60192771822E+01  0.30671826814E+02 -0.32436412054E+02  0.46142317800E+02  0.10000000357E+02 0.  0.
        -12    1    1    2    0    0  0.60192771822E+01 -0.30671826814E+02  0.32436412054E+02  0.45045682200E+02  0.00000000000E+00 0.  1.
         11    1    3    3    0    0 -0.20242469968E+01  0.20165861511E+02 -0.19765868391E+02  0.28309876367E+02  0.51100000000E-03 0. -1.
        -11    1    3    3    0    0 -0.19916793369E+00  0.11220794226E+01  0.48050853538E+00  0.12367775912E+01  0.51100000000E-03 0.  1.
        -12    1    3    3    0    0 -0.37958622517E+01  0.93838858806E+01 -0.13151052198E+02  0.16595663842E+02  0.00000000000E+00 0.  1.
</event>
<event>
 7    1  0.3708346E-009  0.4614232E+02  0.7816164E-02  0.1320468E+00
        -11   -1    0    0    0    0  0.00000000000E+00  0.00000000000E+00  0.45593999997E+02  0.45594000000E+02  0.51100000000E-03 0.  1.
         11   -1    0    0    0    0 -0.00000000000E+00 -0.00000000000E+00 -0.45593999997E+02  0.45594000000E+02  0.51100000000E-03 0. -1.
    9900012    2    1    2    0    0 -0.39266672158E+01  0.23235570705E+02 -0.38390142272E+02  0.46142317798E+02  0.10000000335E+02 0.  0.
        -12    1    1    2    0    0  0.39266672158E+01 -0.23235570705E+02  0.38390142272E+02  0.45045682202E+02  0.00000000000E+00 0.  1.
         11    1    3    3    0    0  0.69607866114E-02  0.25248261502E+01 -0.26445606143E+01  0.36562954811E+01  0.51100000000E-03 0. -1.
        -11    1    3    3    0    0 -0.48783242709E+01  0.69265432511E+01 -0.18806861836E+02  0.20626999333E+02  0.51100000000E-03 0.  1.
        -12    1    3    3    0    0  0.94469626851E+00  0.13784201304E+02 -0.16938719821E+02  0.21859022984E+02  0.00000000000E+00 0.  1.
</event>
<event>
 7    1  0.3708346E-009  0.4614231E+02  0.7816164E-02  0.1320468E+00
        -11   -1    0    0    0    0  0.00000000000E+00  0.00000000000E+00  0.45593999997E+02  0.45594000000E+02  0.51100000000E-03 0.  1.
         11   -1    0    0    0    0 -0.00000000000E+00 -0.00000000000E+00 -0.45593999997E+02  0.45594000000E+02  0.51100000000E-03 0. -1.
    9900012    2    1    2    0    0  0.34727065791E+02 -0.14925189081E+02 -0.24502722865E+02  0.46142314354E+02  0.99999689294E+01 0.  0.
        -12    1    1    2    0    0 -0.34727065791E+02  0.14925189081E+02  0.24502722865E+02  0.45045685646E+02  0.00000000000E+00 0.  1.
         11    1    3    3    0    0  0.11346641325E+02 -0.26963962232E+01 -0.74520618204E+01  0.13840160678E+02  0.51100000000E-03 0. -1.
        -11    1    3    3    0    0  0.14280096664E+01 -0.19414593136E+01  0.38432821734E+00  0.24405295150E+01  0.51100000000E-03 0.  1.
         12    1    3    3    0    0  0.21952414799E+02 -0.10287333544E+02 -0.17434989262E+02  0.29861624161E+02  0.00000000000E+00 0. -1.
</event>
<event>
 7    1  0.3708346E-009  0.4614232E+02  0.7816164E-02  0.1320468E+00
        -11   -1    0    0    0    0  0.00000000000E+00  0.00000000000E+00  0.45593999997E+02  0.45594000000E+02  0.51100000000E-03 0.  1.
         11   -1    0    0    0    0 -0.00000000000E+00 -0.00000000000E+00 -0.45593999997E+02  0.45594000000E+02  0.51100000000E-03 0. -1.
    9900012    2    1    2    0    0  0.13047226654E+01 -0.32440653236E+02 -0.31225233090E+02  0.46142318019E+02  0.10000002351E+02 0.  0.
        -12    1    1    2    0    0 -0.13047226654E+01  0.32440653236E+02  0.31225233090E+02  0.45045681981E+02  0.00000000000E+00 0.  1.
         11    1    3    3    0    0  0.14739936937E+01 -0.70928882085E+01 -0.65573123464E+01  0.97713901783E+01  0.51100000000E-03 0. -1.
        -11    1    3    3    0    0 -0.12060944038E+01 -0.43520199276E+01 -0.92762231620E+01  0.10317124482E+02  0.51100000000E-03 0.  1.
        -12    1    3    3    0    0  0.10368233756E+01 -0.20995745100E+02 -0.15391697581E+02  0.26053803359E+02  0.00000000000E+00 0.  1.
</event>
<event>
 7    1  0.3708346E-009  0.4614233E+02  0.7816164E-02  0.1320468E+00
        -11   -1    0    0    0    0  0.00000000000E+00  0.00000000000E+00  0.45593999997E+02  0.45594000000E+02  0.51100000000E-03 0. -1.
         11   -1    0    0    0    0 -0.00000000000E+00 -0.00000000000E+00 -0.45593999997E+02  0.45594000000E+02  0.51100000000E-03 0.  1.
    9900012    2    1    2    0    0 -0.13052339000E+02  0.41772834605E+02  0.10666746608E+02  0.46142325985E+02  0.10000074990E+02 0.  0.
        -12    1    1    2    0    0  0.13052339000E+02 -0.41772834605E+02 -0.10666746608E+02  0.45045674015E+02  0.00000000000E+00 0.  1.
         11    1    3    3    0    0 -0.10276475816E+02  0.24097683813E+02  0.94919001918E+01  0.27863964001E+02  0.51100000000E-03 0. -1.
        -11    1    3    3    0    0  0.46490893866E+00  0.40686387665E+00  0.30012886930E+00  0.68684505871E+00  0.51100000000E-03 0.  1.
         12    1    3    3    0    0 -0.32407721224E+01  0.17268286916E+02  0.87471754710E+00  0.17591516925E+02  0.00000000000E+00 0. -1.
</event>
<event>
 7    1  0.3708346E-009  0.4614232E+02  0.7816164E-02  0.1320468E+00
        -11   -1    0    0    0    0  0.00000000000E+00  0.00000000000E+00  0.45593999997E+02  0.45594000000E+02  0.51100000000E-03 0. -1.
         11   -1    0    0    0    0 -0.00000000000E+00 -0.00000000000E+00 -0.45593999997E+02  0.45594000000E+02  0.51100000000E-03 0.  1.
    9900012    2    1    2    0    0  0.38213312909E+02 -0.15731707956E+02  0.17926782025E+02  0.46142318382E+02  0.10000005659E+02 0.  0.
        -12    1    1    2    0    0 -0.38213312909E+02  0.15731707956E+02 -0.17926782025E+02  0.45045681618E+02  0.00000000000E+00 0.  1.
         11    1    3    3    0    0  0.13794136687E+02 -0.35608518322E+01  0.24163533042E+01  0.14449797101E+02  0.51100000000E-03 0. -1.
        -11    1    3    3    0    0  0.78959132556E+01 -0.17156799444E+01  0.42818543395E+01  0.91445765707E+01  0.51100000000E-03 0.  1.
         12    1    3    3    0    0  0.16523262966E+02 -0.10455176180E+02  0.11228574382E+02  0.22547944710E+02  0.00000000000E+00 0. -1.
</event>
<event>
 7    1  0.3708346E-009  0.4614232E+02  0.7816164E-02  0.1320468E+00
        -11   -1    0    0    0    0  0.00000000000E+00  0.00000000000E+00  0.45593999997E+02  0.45594000000E+02  0.51100000000E-03 0.  1.
         11   -1    0    0    0    0 -0.00000000000E+00 -0.00000000000E+00 -0.45593999997E+02  0.45594000000E+02  0.51100000000E-03 0. -1.
    9900012    2    1    2    0    0 -0.34790081464E+02 -0.11090304197E+02 -0.26377430516E+02  0.46142318119E+02  0.10000003264E+02 0.  0.
        -12    1    1    2    0    0  0.34790081464E+02  0.11090304197E+02  0.26377430516E+02  0.45045681881E+02  0.00000000000E+00 0.  1.
         11    1    3    3    0    0 -0.23148044322E+01 -0.79135994021E+00 -0.48935288490E+01  0.54709409585E+01  0.51100000000E-03 0. -1.
        -11    1    3    3    0    0 -0.48747271912E+01  0.48550259404E+00 -0.32223418110E+01  0.58636306983E+01  0.51100000000E-03 0.  1.
        -12    1    3    3    0    0 -0.27600549841E+02 -0.10784446851E+02 -0.18261559856E+02  0.34807746462E+02  0.00000000000E+00 0.  1.
</event>
<event>
 7    1  0.3708346E-009  0.4614232E+02  0.7816164E-02  0.1320468E+00
        -11   -1    0    0    0    0  0.00000000000E+00  0.00000000000E+00  0.45593999997E+02  0.45594000000E+02  0.51100000000E-03 0.  1.
         11   -1    0    0    0    0 -0.00000000000E+00 -0.00000000000E+00 -0.45593999997E+02  0.45594000000E+02  0.51100000000E-03 0. -1.
    9900012    2    1    2    0    0 -0.17760360104E+02  0.10452411701E+02 -0.40055339523E+02  0.46142317347E+02  0.99999962224E+01 0.  0.
        -12    1    1    2    0    0  0.17760360104E+02 -0.10452411701E+02  0.40055339523E+02  0.45045682653E+02  0.00000000000E+00 0.  1.
         11    1    3    3    0    0  0.40223033719E+00  0.18116686255E+01 -0.30100662989E+01  0.35361606069E+01  0.51100000000E-03 0.  1.
        -11    1    3    3    0    0 -0.10379789300E+02  0.15189621071E+01 -0.18984498613E+02  0.21690054395E+02  0.51100000000E-03 0. -1.
         12    1    3    3    0    0 -0.77828011409E+01  0.71217809688E+01 -0.18060774611E+02  0.20916102345E+02  0.00000000000E+00 0. -1.
</event>
<event>
 7    1  0.3708346E-009  0.4614232E+02  0.7816164E-02  0.1320468E+00
        -11   -1    0    0    0    0  0.00000000000E+00  0.00000000000E+00  0.45593999997E+02  0.45594000000E+02  0.51100000000E-03 0. -1.
         11   -1    0    0    0    0 -0.00000000000E+00 -0.00000000000E+00 -0.45593999997E+02  0.45594000000E+02  0.51100000000E-03 0.  1.
    9900012    2    1    2    0    0 -0.26896733577E+02  0.62812051368E+01  0.35584063814E+02  0.46142318602E+02  0.10000007669E+02 0.  0.
        -12    1    1    2    0    0  0.26896733577E+02 -0.62812051368E+01 -0.35584063814E+02  0.45045681398E+02  0.00000000000E+00 0.  1.
         11    1    3    3    0    0 -0.39029590950E+01 -0.98038047172E+00  0.57859939306E+01  0.70478338227E+01  0.51100000000E-03 0. -1.
        -11    1    3    3    0    0 -0.17533699141E+02  0.85590059324E+01  0.24987946810E+02  0.31703070422E+02  0.51100000000E-03 0.  1.
        -12    1    3    3    0    0 -0.54600753410E+01 -0.12974203239E+01  0.48101230734E+01  0.73914143578E+01  0.00000000000E+00 0.  1.
</event>
<event>
 7    1  0.3708346E-009  0.4614232E+02  0.7816164E-02  0.1320468E+00
        -11   -1    0    0    0    0  0.00000000000E+00  0.00000000000E+00  0.45593999997E+02  0.45594000000E+02  0.51100000000E-03 0.  1.
         11   -1    0    0    0    0 -0.00000000000E+00 -0.00000000000E+00 -0.45593999997E+02  0.45594000000E+02  0.51100000000E-03 0. -1.
    9900012    2    1    2    0    0  0.20483868036E+02 -0.33701828890E+02 -0.21764911535E+02  0.46142317695E+02  0.99999993930E+01 0.  0.
        -12    1    1    2    0    0 -0.20483868036E+02  0.33701828890E+02  0.21764911535E+02  0.45045682305E+02  0.00000000000E+00 0.  1.
         11    1    3    3    0    0  0.56380595224E+00 -0.43893194981E+01 -0.31638204017E+01  0.54400149452E+01  0.51100000000E-03 0.  1.
        -11    1    3    3    0    0  0.37755209510E+01 -0.30346536580E+01 -0.32959143724E+00  0.48551325473E+01  0.51100000000E-03 0. -1.
         12    1    3    3    0    0  0.16144541132E+02 -0.26277855734E+02 -0.18271499696E+02  0.35847170202E+02  0.00000000000E+00 0. -1.
</event>
<event>
 7    1  0.3708346E-009  0.4614232E+02  0.7816164E-02  0.1320468E+00
        -11   -1    0    0    0    0  0.00000000000E+00  0.00000000000E+00  0.45593999997E+02  0.45594000000E+02  0.51100000000E-03 0. -1.
         11   -1    0    0    0    0 -0.00000000000E+00 -0.00000000000E+00 -0.45593999997E+02  0.45594000000E+02  0.51100000000E-03 0.  1.
    9900012    2    1    2    0    0 -0.14888399373E+02 -0.87218637621E+01  0.41609829872E+02  0.46142320014E+02  0.10000020547E+02 0.  0.
        -12    1    1    2    0    0  0.14888399373E+02  0.87218637621E+01 -0.41609829872E+02  0.45045679986E+02  0.00000000000E+00 0.  1.
         11    1    3    3    0    0 -0.38925157319E+01  0.13855272744E+01  0.11437961137E+02  0.12161345312E+02  0.51100000000E-03 0. -1.
        -11    1    3    3    0    0  0.37822572323E+00 -0.37540437397E+00  0.43125625094E+00  0.68554019342E+00  0.51100000000E-03 0.  1.
         12    1    3    3    0    0 -0.11374109365E+02 -0.97319866625E+01  0.29740612484E+02  0.33295434509E+02  0.00000000000E+00 0. -1.
</event>
<event>
 7    1  0.3708346E-009  0.4614230E+02  0.7816164E-02  0.1320468E+00
        -11   -1    0    0    0    0  0.00000000000E+00  0.00000000000E+00  0.45593999997E+02  0.45594000000E+02  0.51100000000E-03 0. -1.
         11   -1    0    0    0    0 -0.00000000000E+00 -0.00000000000E+00 -0.45593999997E+02  0.45594000000E+02  0.51100000000E-03 0.  1.
    9900012    2    1    2    0    0  0.23441968629E+02 -0.38277971055E+02 -0.37928488847E+01  0.46142304712E+02  0.99998810053E+01 0.  0.
        -12    1    1    2    0    0 -0.23441968629E+02  0.38277971055E+02  0.37928488847E+01  0.45045695288E+02  0.00000000000E+00 0.  1.
         11    1    3    3    0    0  0.58131539857E+01 -0.13261801891E+02 -0.12366989770E+01  0.14532638208E+02  0.51100000000E-03 0. -1.
        -11    1    3    3    0    0  0.15535233321E+02 -0.18063195288E+02  0.24685735042E+00  0.23826108309E+02  0.51100000000E-03 0.  1.
        -12    1    3    3    0    0  0.20935813223E+01 -0.69529738761E+01 -0.28030072581E+01  0.77835581943E+01  0.00000000000E+00 0.  1.
</event>
<event>
 7    1  0.3708346E-009  0.4614232E+02  0.7816164E-02  0.1320468E+00
        -11   -1    0    0    0    0  0.00000000000E+00  0.00000000000E+00  0.45593999997E+02  0.45594000000E+02  0.51100000000E-03 0. -1.
         11   -1    0    0    0    0 -0.00000000000E+00 -0.00000000000E+00 -0.45593999997E+02  0.45594000000E+02  0.51100000000E-03 0.  1.
    9900012    2    1    2    0    0  0.26386294557E+02 -0.17077732039E+01  0.36468622734E+02  0.46142317922E+02  0.10000001465E+02 0.  0.
        -12    1    1    2    0    0 -0.26386294557E+02  0.17077732039E+01 -0.36468622734E+02  0.45045682078E+02  0.00000000000E+00 0.  1.
         11    1    3    3    0    0  0.88864107585E+01 -0.35188348495E+01  0.12610315067E+02  0.15823101504E+02  0.51100000000E-03 0. -1.
        -11    1    3    3    0    0  0.51856482700E+01  0.72110682040E+00  0.12413836912E+02  0.13472723933E+02  0.51100000000E-03 0.  1.
         12    1    3    3    0    0  0.12314235528E+02  0.10899548252E+01  0.11444470755E+02  0.16846492484E+02  0.00000000000E+00 0. -1.
</event>
<event>
 7    1  0.3708346E-009  0.4614231E+02  0.7816164E-02  0.1320468E+00
        -11   -1    0    0    0    0  0.00000000000E+00  0.00000000000E+00  0.45593999997E+02  0.45594000000E+02  0.51100000000E-03 0.  1.
         11   -1    0    0    0    0 -0.00000000000E+00 -0.00000000000E+00 -0.45593999997E+02  0.45594000000E+02  0.51100000000E-03 0. -1.
    9900012    2    1    2    0    0 -0.34551913825E+02  0.18505221819E+02 -0.22199905205E+02  0.46142314583E+02  0.99999710211E+01 0.  0.
        -12    1    1    2    0    0  0.34551913825E+02 -0.18505221819E+02  0.22199905205E+02  0.45045685417E+02  0.00000000000E+00 0.  1.
         11    1    3    3    0    0 -0.22586401043E+02  0.91652902615E+01 -0.14316780040E+02  0.28268679640E+02  0.51100000000E-03 0. -1.
        -11    1    3    3    0    0 -0.49705919929E+01  0.49983850410E+01 -0.63742429088E+01  0.95037682368E+01  0.51100000000E-03 0.  1.
        -12    1    3    3    0    0 -0.69949207898E+01  0.43415465169E+01 -0.15088822558E+01  0.83698667060E+01  0.00000000000E+00 0.  1.
</event>
<event>
 7    1  0.3708346E-009  0.4614232E+02  0.7816164E-02  0.1320468E+00
        -11   -1    0    0    0    0  0.00000000000E+00  0.00000000000E+00  0.45593999997E+02  0.45594000000E+02  0.51100000000E-03 0.  1.
         11   -1    0    0    0    0 -0.00000000000E+00 -0.00000000000E+00 -0.45593999997E+02  0.45594000000E+02  0.51100000000E-03 0. -1.
    9900012    2    1    2    0    0  0.40442468702E+02 -0.39646600416E+01 -0.19437118159E+02  0.46142319116E+02  0.10000012356E+02 0.  0.
        -12    1    1    2    0    0 -0.40442468702E+02  0.39646600416E+01  0.19437118159E+02  0.45045680884E+02  0.00000000000E+00 0.  1.
         11    1    3    3    0    0  0.39059141967E+01  0.48589019219E+00 -0.21205780819E+01  0.44709178759E+01  0.51100000000E-03 0. -1.
        -11    1    3    3    0    0  0.93374678893E+00 -0.17478798630E+01 -0.20130273609E+01  0.28247560068E+01  0.51100000000E-03 0.  1.
        -12    1    3    3    0    0  0.35602807717E+02 -0.27026703708E+01 -0.15303512716E+02  0.38846645233E+02  0.00000000000E+00 0.  1.
</event>
<event>
 7    1  0.3708346E-009  0.4614232E+02  0.7816164E-02  0.1320468E+00
        -11   -1    0    0    0    0  0.00000000000E+00  0.00000000000E+00  0.45593999997E+02  0.45594000000E+02  0.51100000000E-03 0. -1.
         11   -1    0    0    0    0 -0.00000000000E+00 -0.00000000000E+00 -0.45593999997E+02  0.45594000000E+02  0.51100000000E-03 0.  1.
    9900012    2    1    2    0    0  0.20587407029E+02 -0.34982420115E+02  0.19532086099E+02  0.46142318379E+02  0.10000005636E+02 0.  0.
        -12    1    1    2    0    0 -0.20587407029E+02  0.34982420115E+02 -0.19532086099E+02  0.45045681621E+02  0.00000000000E+00 0.  1.
         11    1    3    3    0    0  0.16966438123E+02 -0.26587476819E+02  0.15893580904E+02  0.35317982111E+02  0.51100000000E-03 0.  1.
        -11    1    3    3    0    0 -0.45911397899E-01 -0.17221710560E+01  0.26298363268E+01  0.31438861890E+01  0.51100000000E-03 0. -1.
        -12    1    3    3    0    0  0.36668803040E+01 -0.66727722400E+01  0.10086688687E+01  0.76804500791E+01  0.00000000000E+00 0.  1.
</event>
<event>
 7    1  0.3708346E-009  0.4614232E+02  0.7816164E-02  0.1320468E+00
        -11   -1    0    0    0    0  0.00000000000E+00  0.00000000000E+00  0.45593999997E+02  0.45594000000E+02  0.51100000000E-03 0.  1.
         11   -1    0    0    0    0 -0.00000000000E+00 -0.00000000000E+00 -0.45593999997E+02  0.45594000000E+02  0.51100000000E-03 0. -1.
    9900012    2    1    2    0    0  0.83587803435E+01  0.42293934963E+02 -0.13056314757E+02  0.46142317648E+02  0.99999989706E+01 0.  0.
        -12    1    1    2    0    0 -0.83587803435E+01 -0.42293934963E+02  0.13056314757E+02  0.45045682352E+02  0.00000000000E+00 0.  1.
         11    1    3    3    0    0  0.56598802125E+01  0.12682005122E+02 -0.47407354139E+01  0.14674538168E+02  0.51100000000E-03 0. -1.
        -11    1    3    3    0    0 -0.18840164747E+01  0.57459721871E+01 -0.16094098944E+01  0.62574687312E+01  0.51100000000E-03 0.  1.
         12    1    3    3    0    0  0.45829166057E+01  0.23865957654E+02 -0.67061694489E+01  0.25210310749E+02  0.00000000000E+00 0. -1.
</event>
<event>
 7    1  0.3708346E-009  0.4614232E+02  0.7816164E-02  0.1320468E+00
        -11   -1    0    0    0    0  0.00000000000E+00  0.00000000000E+00  0.45593999997E+02  0.45594000000E+02  0.51100000000E-03 0. -1.
         11   -1    0    0    0    0 -0.00000000000E+00 -0.00000000000E+00 -0.45593999997E+02  0.45594000000E+02  0.51100000000E-03 0.  1.
    9900012    2    1    2    0    0 -0.44923851031E+02  0.28132826350E+01 -0.17454351554E+01  0.46142317693E+02  0.99999993815E+01 0.  0.
        -12    1    1    2    0    0  0.44923851031E+02 -0.28132826350E+01  0.17454351554E+01  0.45045682307E+02  0.00000000000E+00 0.  1.
         11    1    3    3    0    0 -0.38516803552E+02  0.53992142913E+01 -0.14239743072E+01  0.38919447246E+02  0.51100000000E-03 0. -1.
        -11    1    3    3    0    0 -0.42976077007E+01 -0.13677296937E+01  0.73179438404E+00  0.45689867307E+01  0.51100000000E-03 0.  1.
         12    1    3    3    0    0 -0.21094397778E+01 -0.12182019626E+01 -0.10532552322E+01  0.26538837168E+01  0.00000000000E+00 0. -1.
</event>
<event>
 7    1  0.3708346E-009  0.4614232E+02  0.7816164E-02  0.1320468E+00
        -11   -1    0    0    0    0  0.00000000000E+00  0.00000000000E+00  0.45593999997E+02  0.45594000000E+02  0.51100000000E-03 0.  1.
         11   -1    0    0    0    0 -0.00000000000E+00 -0.00000000000E+00 -0.45593999997E+02  0.45594000000E+02  0.51100000000E-03 0. -1.
    9900012    2    1    2    0    0 -0.10081653744E+02  0.42343669738E+02 -0.11596875998E+02  0.46142316055E+02  0.99999844445E+01 0.  0.
        -12    1    1    2    0    0  0.10081653744E+02 -0.42343669738E+02  0.11596875998E+02  0.45045683945E+02  0.00000000000E+00 0.  1.
         11    1    3    3    0    0 -0.29880758641E+01  0.91637695648E+01 -0.33648040956E+01  0.10209073262E+02  0.51100000000E-03 0. -1.
        -11    1    3    3    0    0  0.84113191553E+00  0.12299001220E+01  0.93638403223E+00  0.17598217314E+01  0.51100000000E-03 0.  1.
        -12    1    3    3    0    0 -0.79347097956E+01  0.31950000052E+02 -0.91684559348E+01  0.34173421062E+02  0.00000000000E+00 0.  1.
</event>
<event>
 7    1  0.3708346E-009  0.4614232E+02  0.7816164E-02  0.1320468E+00
        -11   -1    0    0    0    0  0.00000000000E+00  0.00000000000E+00  0.45593999997E+02  0.45594000000E+02  0.51100000000E-03 0.  1.
         11   -1    0    0    0    0 -0.00000000000E+00 -0.00000000000E+00 -0.45593999997E+02  0.45594000000E+02  0.51100000000E-03 0. -1.
    9900012    2    1    2    0    0 -0.19290793469E+02 -0.27678922942E+02 -0.29847210734E+02  0.46142317893E+02  0.10000001200E+02 0.  0.
        -12    1    1    2    0    0  0.19290793469E+02  0.27678922942E+02  0.29847210734E+02  0.45045682107E+02  0.00000000000E+00 0.  1.
         11    1    3    3    0    0 -0.10264034393E+02 -0.10767357748E+02 -0.18509784653E+02  0.23746547603E+02  0.51100000000E-03 0. -1.
        -11    1    3    3    0    0 -0.26432925672E+01 -0.45005680414E+01 -0.19299479489E+01  0.55647828024E+01  0.51100000000E-03 0.  1.
         12    1    3    3    0    0 -0.63834665081E+01 -0.12410997152E+02 -0.94074781323E+01  0.16830987487E+02  0.00000000000E+00 0. -1.
</event>
<event>
 7    1  0.3708346E-009  0.4614232E+02  0.7816164E-02  0.1320468E+00
        -11   -1    0    0    0    0  0.00000000000E+00  0.00000000000E+00  0.45593999997E+02  0.45594000000E+02  0.51100000000E-03 0.  1.
         11   -1    0    0    0    0 -0.00000000000E+00 -0.00000000000E+00 -0.45593999997E+02  0.45594000000E+02  0.51100000000E-03 0. -1.
    9900012    2    1    2    0    0  0.15057539734E+02  0.35536073921E+02 -0.23228677479E+02  0.46142317521E+02  0.99999978109E+01 0.  0.
        -12    1    1    2    0    0 -0.15057539734E+02 -0.35536073921E+02  0.23228677479E+02  0.45045682479E+02  0.00000000000E+00 0.  1.
         11    1    3    3    0    0  0.22041551005E+01  0.86838354532E+01 -0.44117945968E+01  0.99865524437E+01  0.51100000000E-03 0. -1.
        -11    1    3    3    0    0  0.41470590460E+01  0.73695850691E+01 -0.99219636859E+01  0.13036650124E+02  0.51100000000E-03 0.  1.
        -12    1    3    3    0    0  0.87063255877E+01  0.19482653399E+02 -0.88949191962E+01  0.23119114953E+02  0.00000000000E+00 0.  1.
</event>
<event>
 7    1  0.3708346E-009  0.4614232E+02  0.7816164E-02  0.1320468E+00
        -11   -1    0    0    0    0  0.00000000000E+00  0.00000000000E+00  0.45593999997E+02  0.45594000000E+02  0.51100000000E-03 0.  1.
         11   -1    0    0    0    0 -0.00000000000E+00 -0.00000000000E+00 -0.45593999997E+02  0.45594000000E+02  0.51100000000E-03 0. -1.
    9900012    2    1    2    0    0  0.26794573455E+02  0.27020164438E+02 -0.24105499277E+02  0.46142317095E+02  0.99999939300E+01 0.  0.
        -12    1    1    2    0    0 -0.26794573455E+02 -0.27020164438E+02  0.24105499277E+02  0.45045682905E+02  0.00000000000E+00 0.  1.
         11    1    3    3    0    0  0.66653387496E+01  0.90807743075E+01 -0.60563827714E+01  0.12789330522E+02  0.51100000000E-03 0. -1.
        -11    1    3    3    0    0  0.12497651798E+02  0.71269580953E+01 -0.64969939368E+01  0.15785935595E+02  0.51100000000E-03 0.  1.
        -12    1    3    3    0    0  0.76315829081E+01  0.10812432036E+02 -0.11552122569E+02  0.17567050978E+02  0.00000000000E+00 0.  1.
</event>
<event>
 7    1  0.3708346E-009  0.4614232E+02  0.7816164E-02  0.1320468E+00
        -11   -1    0    0    0    0  0.00000000000E+00  0.00000000000E+00  0.45593999997E+02  0.45594000000E+02  0.51100000000E-03 0. -1.
         11   -1    0    0    0    0 -0.00000000000E+00 -0.00000000000E+00 -0.45593999997E+02  0.45594000000E+02  0.51100000000E-03 0.  1.
    9900012    2    1    2    0    0  0.89759882194E+01  0.17950939208E+02  0.40327521395E+02  0.46142316912E+02  0.99999922587E+01 0.  0.
        -12    1    1    2    0    0 -0.89759882194E+01 -0.17950939208E+02 -0.40327521395E+02  0.45045683088E+02  0.00000000000E+00 0.  1.
         11    1    3    3    0    0  0.19067064738E+01  0.92241081642E+01  0.15866401837E+02  0.18451623465E+02  0.51100000000E-03 0. -1.
        -11    1    3    3    0    0 -0.57591921591E+00 -0.38614382073E+00  0.36904699222E+01  0.37550444074E+01  0.51100000000E-03 0.  1.
        -12    1    3    3    0    0  0.76452009616E+01  0.91129748645E+01  0.20770649636E+02  0.23935649039E+02  0.00000000000E+00 0.  1.
</event>
<event>
 7    1  0.3708346E-009  0.4614231E+02  0.7816164E-02  0.1320468E+00
        -11   -1    0    0    0    0  0.00000000000E+00  0.00000000000E+00  0.45593999997E+02  0.45594000000E+02  0.51100000000E-03 0. -1.
         11   -1    0    0    0    0 -0.00000000000E+00 -0.00000000000E+00 -0.45593999997E+02  0.45594000000E+02  0.51100000000E-03 0.  1.
    9900012    2    1    2    0    0 -0.11149400470E+02 -0.27402566483E+02  0.33969162409E+02  0.46142314574E+02  0.99999709365E+01 0.  0.
        -12    1    1    2    0    0  0.11149400470E+02  0.27402566483E+02 -0.33969162409E+02  0.45045685426E+02  0.00000000000E+00 0.  1.
         11    1    3    3    0    0 -0.11762297961E+02 -0.26163357293E+02  0.32494581773E+02  0.43344789341E+02  0.51100000000E-03 0. -1.
        -11    1    3    3    0    0  0.13143307864E+01 -0.75035009322E+00  0.10570882079E+01  0.18460569923E+01  0.51100000000E-03 0.  1.
         12    1    3    3    0    0 -0.70143329573E+00 -0.48885909754E+00  0.41749242863E+00  0.95146824096E+00  0.00000000000E+00 0. -1.
</event>
<event>
 7    1  0.3708346E-009  0.4614232E+02  0.7816164E-02  0.1320468E+00
        -11   -1    0    0    0    0  0.00000000000E+00  0.00000000000E+00  0.45593999997E+02  0.45594000000E+02  0.51100000000E-03 0.  1.
         11   -1    0    0    0    0 -0.00000000000E+00 -0.00000000000E+00 -0.45593999997E+02  0.45594000000E+02  0.51100000000E-03 0. -1.
    9900012    2    1    2    0    0  0.26968561230E+02 -0.12519639354E+02 -0.33838865742E+02  0.46142317642E+02  0.99999989171E+01 0.  0.
        -12    1    1    2    0    0 -0.26968561230E+02  0.12519639354E+02  0.33838865742E+02  0.45045682358E+02  0.00000000000E+00 0.  1.
         11    1    3    3    0    0  0.16704526548E+02 -0.66229333682E+01 -0.19971455341E+02  0.26865656186E+02  0.51100000000E-03 0. -1.
        -11    1    3    3    0    0  0.36452289137E+01 -0.75360367608E+00 -0.86152200226E+01  0.93849682276E+01  0.51100000000E-03 0.  1.
        -12    1    3    3    0    0  0.66188057680E+01 -0.51431023099E+01 -0.52521903781E+01  0.98916932288E+01  0.00000000000E+00 0.  1.
</event>
<event>
 7    1  0.3708346E-009  0.4614231E+02  0.7816164E-02  0.1320468E+00
        -11   -1    0    0    0    0  0.00000000000E+00  0.00000000000E+00  0.45593999997E+02  0.45594000000E+02  0.51100000000E-03 0.  1.
         11   -1    0    0    0    0 -0.00000000000E+00 -0.00000000000E+00 -0.45593999997E+02  0.45594000000E+02  0.51100000000E-03 0. -1.
    9900012    2    1    2    0    0  0.20257075328E+02 -0.33052647017E+02 -0.22940950311E+02  0.46142314560E+02  0.99999708052E+01 0.  0.
        -12    1    1    2    0    0 -0.20257075328E+02  0.33052647017E+02  0.22940950311E+02  0.45045685440E+02  0.00000000000E+00 0.  1.
         11    1    3    3    0    0  0.27203440114E+01 -0.18081124356E+01 -0.18897593035E+00  0.32718884889E+01  0.51100000000E-03 0. -1.
        -11    1    3    3    0    0  0.14365559485E+02 -0.27737043282E+02 -0.21677420230E+02  0.38021354755E+02  0.51100000000E-03 0.  1.
        -12    1    3    3    0    0  0.31711718317E+01 -0.35074912993E+01 -0.10745541502E+01  0.48490713155E+01  0.00000000000E+00 0.  1.
</event>
<event>
 7    1  0.3861286E-009  0.4614232E+02  0.7816164E-02  0.1320468E+00
        -11   -1    0    0    0    0  0.00000000000E+00  0.00000000000E+00  0.45593999997E+02  0.45594000000E+02  0.51100000000E-03 0. -1.
         11   -1    0    0    0    0 -0.00000000000E+00 -0.00000000000E+00 -0.45593999997E+02  0.45594000000E+02  0.51100000000E-03 0.  1.
    9900012    2    1    2    0    0 -0.37248327970E+02  0.76320951344E+01  0.24154228381E+02  0.46142316951E+02  0.99999926090E+01 0.  0.
        -12    1    1    2    0    0  0.37248327970E+02 -0.76320951344E+01 -0.24154228381E+02  0.45045683049E+02  0.00000000000E+00 0.  1.
         11    1    3    3    0    0 -0.31948982640E+02  0.95918532891E+01  0.20598106242E+02  0.39204886459E+02  0.51100000000E-03 0. -1.
        -11    1    3    3    0    0 -0.71659010431E+00 -0.97876052627E+00  0.11402180590E+01  0.16648036006E+01  0.51100000000E-03 0.  1.
         12    1    3    3    0    0 -0.45827552265E+01 -0.98099762838E+00  0.24159040794E+01  0.52726268912E+01  0.00000000000E+00 0. -1.
</event>
<event>
 7    1  0.3708346E-009  0.4614232E+02  0.7816164E-02  0.1320468E+00
        -11   -1    0    0    0    0  0.00000000000E+00  0.00000000000E+00  0.45593999997E+02  0.45594000000E+02  0.51100000000E-03 0.  1.
         11   -1    0    0    0    0 -0.00000000000E+00 -0.00000000000E+00 -0.45593999997E+02  0.45594000000E+02  0.51100000000E-03 0. -1.
    9900012    2    1    2    0    0  0.39946030409E+02  0.55539926831E+01 -0.20064432973E+02  0.46142315959E+02  0.99999835713E+01 0.  0.
        -12    1    1    2    0    0 -0.39946030409E+02 -0.55539926831E+01  0.20064432973E+02  0.45045684041E+02  0.00000000000E+00 0.  1.
         11    1    3    3    0    0  0.22777383312E+02  0.42531587439E+01 -0.16223249350E+02  0.28285904079E+02  0.51100000000E-03 0. -1.
        -11    1    3    3    0    0  0.62280890604E+01  0.46140193798E+00 -0.44190856952E-01  0.62453132976E+01  0.51100000000E-03 0.  1.
         12    1    3    3    0    0  0.10940558036E+02  0.83943200126E+00 -0.37969927663E+01  0.11611098583E+02  0.00000000000E+00 0. -1.
</event>
<event>
 7    1  0.3708346E-009  0.4614232E+02  0.7816164E-02  0.1320468E+00
        -11   -1    0    0    0    0  0.00000000000E+00  0.00000000000E+00  0.45593999997E+02  0.45594000000E+02  0.51100000000E-03 0.  1.
         11   -1    0    0    0    0 -0.00000000000E+00 -0.00000000000E+00 -0.45593999997E+02  0.45594000000E+02  0.51100000000E-03 0. -1.
    9900012    2    1    2    0    0  0.85006310105E+01 -0.32497445134E+02 -0.30012812034E+02  0.46142317032E+02  0.99999933545E+01 0.  0.
        -12    1    1    2    0    0 -0.85006310105E+01  0.32497445134E+02  0.30012812034E+02  0.45045682968E+02  0.00000000000E+00 0.  1.
         11    1    3    3    0    0  0.51262616822E+01 -0.23666706913E+02 -0.19948383630E+02  0.31374027230E+02  0.51100000000E-03 0. -1.
        -11    1    3    3    0    0  0.15377752614E+01 -0.37291289797E+01 -0.92021416733E+00  0.41373844488E+01  0.51100000000E-03 0.  1.
         12    1    3    3    0    0  0.18365940669E+01 -0.51016092416E+01 -0.91442142373E+01  0.10630905354E+02  0.00000000000E+00 0. -1.
</event>
<event>
 7    1  0.3708346E-009  0.4614232E+02  0.7816164E-02  0.1320468E+00
        -11   -1    0    0    0    0  0.00000000000E+00  0.00000000000E+00  0.45593999997E+02  0.45594000000E+02  0.51100000000E-03 0. -1.
         11   -1    0    0    0    0 -0.00000000000E+00 -0.00000000000E+00 -0.45593999997E+02  0.45594000000E+02  0.51100000000E-03 0.  1.
    9900012    2    1    2    0    0 -0.27950578241E+02 -0.30913413749E+02  0.17095015424E+02  0.46142317344E+02  0.99999961968E+01 0.  0.
        -12    1    1    2    0    0  0.27950578241E+02  0.30913413749E+02 -0.17095015424E+02  0.45045682656E+02  0.00000000000E+00 0.  1.
         11    1    3    3    0    0 -0.88662243299E+01 -0.67613582305E+01  0.84509368830E+01  0.13990862498E+02  0.51100000000E-03 0. -1.
        -11    1    3    3    0    0 -0.15469716502E+01 -0.28342617741E+01  0.18569009062E+01  0.37248144017E+01  0.51100000000E-03 0.  1.
         12    1    3    3    0    0 -0.17537382261E+02 -0.21317793744E+02  0.67871776344E+01  0.28426640444E+02  0.00000000000E+00 0. -1.
</event>
<event>
 7    1  0.3708346E-009  0.4614232E+02  0.7816164E-02  0.1320468E+00
        -11   -1    0    0    0    0  0.00000000000E+00  0.00000000000E+00  0.45593999997E+02  0.45594000000E+02  0.51100000000E-03 0. -1.
         11   -1    0    0    0    0 -0.00000000000E+00 -0.00000000000E+00 -0.45593999997E+02  0.45594000000E+02  0.51100000000E-03 0.  1.
    9900012    2    1    2    0    0 -0.20167661069E+01  0.28308690660E+02 -0.34980911485E+02  0.46142317846E+02  0.10000000773E+02 0.  0.
        -12    1    1    2    0    0  0.20167661069E+01 -0.28308690660E+02  0.34980911485E+02  0.45045682154E+02  0.00000000000E+00 0.  1.
         11    1    3    3    0    0  0.10940463352E+01  0.10175771334E+02 -0.12051819653E+02  0.15811059953E+02  0.51100000000E-03 0. -1.
        -11    1    3    3    0    0 -0.18040564000E+01  0.89132220413E+01 -0.17036131217E+02  0.19311393367E+02  0.51100000000E-03 0.  1.
        -12    1    3    3    0    0 -0.13067560421E+01  0.92196972843E+01 -0.58929606150E+01  0.11019864526E+02  0.00000000000E+00 0.  1.
</event>
<event>
 7    1  0.3708346E-009  0.4614231E+02  0.7816164E-02  0.1320468E+00
        -11   -1    0    0    0    0  0.00000000000E+00  0.00000000000E+00  0.45593999997E+02  0.45594000000E+02  0.51100000000E-03 0.  1.
         11   -1    0    0    0    0 -0.00000000000E+00 -0.00000000000E+00 -0.45593999997E+02  0.45594000000E+02  0.51100000000E-03 0. -1.
    9900012    2    1    2    0    0  0.42063277899E+01 -0.35993560595E+02 -0.26756012903E+02  0.46142314033E+02  0.99999660013E+01 0.  0.
        -12    1    1    2    0    0 -0.42063277899E+01  0.35993560595E+02  0.26756012903E+02  0.45045685967E+02  0.00000000000E+00 0.  1.
         11    1    3    3    0    0  0.26710040807E+01 -0.91433620769E+01 -0.62982952062E+01  0.11419450759E+02  0.51100000000E-03 0.  1.
        -11    1    3    3    0    0  0.44738610731E+01 -0.20241139068E+02 -0.13889547681E+02  0.24952728883E+02  0.51100000000E-03 0. -1.
        -12    1    3    3    0    0 -0.29385373639E+01 -0.66090594506E+01 -0.65681700155E+01  0.97701343907E+01  0.00000000000E+00 0.  1.
</event>
<event>
 7    1  0.3708346E-009  0.4614232E+02  0.7816164E-02  0.1320468E+00
        -11   -1    0    0    0    0  0.00000000000E+00  0.00000000000E+00  0.45593999997E+02  0.45594000000E+02  0.51100000000E-03 0.  1.
         11   -1    0    0    0    0 -0.00000000000E+00 -0.00000000000E+00 -0.45593999997E+02  0.45594000000E+02  0.51100000000E-03 0. -1.
    9900012    2    1    2    0    0  0.27721684739E+02 -0.22668297259E+02 -0.27327093546E+02  0.46142317109E+02  0.99999940572E+01 0.  0.
        -12    1    1    2    0    0 -0.27721684739E+02  0.22668297259E+02  0.27327093546E+02  0.45045682891E+02  0.00000000000E+00 0.  1.
         11    1    3    3    0    0  0.16857335601E+02 -0.15656414090E+02 -0.16697623355E+02  0.28427164679E+02  0.51100000000E-03 0. -1.
        -11    1    3    3    0    0  0.11037319335E+00 -0.23002180036E+01 -0.92082920698E+00  0.24801435030E+01  0.51100000000E-03 0.  1.
        -12    1    3    3    0    0  0.10753975945E+02 -0.47116651650E+01 -0.97086409848E+01  0.15235008928E+02  0.00000000000E+00 0.  1.
</event>
<event>
 7    1  0.3708346E-009  0.4614232E+02  0.7816164E-02  0.1320468E+00
        -11   -1    0    0    0    0  0.00000000000E+00  0.00000000000E+00  0.45593999997E+02  0.45594000000E+02  0.51100000000E-03 0.  1.
         11   -1    0    0    0    0 -0.00000000000E+00 -0.00000000000E+00 -0.45593999997E+02  0.45594000000E+02  0.51100000000E-03 0. -1.
    9900012    2    1    2    0    0 -0.35261874689E+02  0.50855677709E+01 -0.27565384785E+02  0.46142320468E+02  0.10000024686E+02 0.  0.
        -12    1    1    2    0    0  0.35261874689E+02 -0.50855677709E+01  0.27565384785E+02  0.45045679532E+02  0.00000000000E+00 0.  1.
         11    1    3    3    0    0 -0.18477303961E+02  0.95292763506E+00 -0.18339410577E+02  0.26050965689E+02  0.51100000000E-03 0. -1.
        -11    1    3    3    0    0 -0.35739458593E+00 -0.17050180734E-01 -0.13691319278E+01  0.14151127502E+01  0.51100000000E-03 0.  1.
         12    1    3    3    0    0 -0.16427176141E+02  0.41496903166E+01 -0.78568422801E+01  0.18676242029E+02  0.00000000000E+00 0. -1.
</event>
<event>
 7    1  0.3708346E-009  0.4614232E+02  0.7816164E-02  0.1320468E+00
        -11   -1    0    0    0    0  0.00000000000E+00  0.00000000000E+00  0.45593999997E+02  0.45594000000E+02  0.51100000000E-03 0.  1.
         11   -1    0    0    0    0 -0.00000000000E+00 -0.00000000000E+00 -0.45593999997E+02  0.45594000000E+02  0.51100000000E-03 0. -1.
    9900012    2    1    2    0    0  0.48929343850E+01  0.44610225380E+02 -0.38859352908E+01  0.46142317539E+02  0.99999979728E+01 0.  0.
        -12    1    1    2    0    0 -0.48929343850E+01 -0.44610225380E+02  0.38859352908E+01  0.45045682461E+02  0.00000000000E+00 0.  1.
         11    1    3    3    0    0  0.29723369877E+01  0.26625906413E+02  0.10042653085E+01  0.26810114296E+02  0.51100000000E-03 0. -1.
        -11    1    3    3    0    0 -0.16162142168E+00  0.14323109918E+01 -0.18983812445E+01  0.23835871857E+01  0.51100000000E-03 0.  1.
        -12    1    3    3    0    0  0.20822188190E+01  0.16552007975E+02 -0.29918193548E+01  0.16948616058E+02  0.00000000000E+00 0.  1.
</event>
<event>
 7    1  0.3708346E-009  0.4614232E+02  0.7816164E-02  0.1320468E+00
        -11   -1    0    0    0    0  0.00000000000E+00  0.00000000000E+00  0.45593999997E+02  0.45594000000E+02  0.51100000000E-03 0.  1.
         11   -1    0    0    0    0 -0.00000000000E+00 -0.00000000000E+00 -0.45593999997E+02  0.45594000000E+02  0.51100000000E-03 0. -1.
    9900012    2    1    2    0    0  0.33901477590E+02  0.21518878608E+02 -0.20414240213E+02  0.46142317379E+02  0.99999965144E+01 0.  0.
        -12    1    1    2    0    0 -0.33901477590E+02 -0.21518878608E+02  0.20414240213E+02  0.45045682621E+02  0.00000000000E+00 0.  1.
         11    1    3    3    0    0  0.30461516081E+01  0.28389696831E+01 -0.36389936822E+01  0.55300148066E+01  0.51100000000E-03 0. -1.
        -11    1    3    3    0    0  0.27623904006E+02  0.16211195374E+02 -0.17474374043E+02  0.36486116214E+02  0.51100000000E-03 0.  1.
        -12    1    3    3    0    0  0.32314219759E+01  0.24687135509E+01  0.69912751135E+00  0.41261863578E+01  0.00000000000E+00 0.  1.
</event>
<event>
 7    1  0.3708346E-009  0.4614232E+02  0.7816164E-02  0.1320468E+00
        -11   -1    0    0    0    0  0.00000000000E+00  0.00000000000E+00  0.45593999997E+02  0.45594000000E+02  0.51100000000E-03 0.  1.
         11   -1    0    0    0    0 -0.00000000000E+00 -0.00000000000E+00 -0.45593999997E+02  0.45594000000E+02  0.51100000000E-03 0. -1.
    9900012    2    1    2    0    0 -0.43516834976E+02  0.95075958550E+01 -0.67085161111E+01  0.46142317702E+02  0.99999994647E+01 0.  0.
        -12    1    1    2    0    0  0.43516834976E+02 -0.95075958550E+01  0.67085161111E+01  0.45045682298E+02  0.00000000000E+00 0.  1.
         11    1    3    3    0    0 -0.14471501087E+02  0.35678779162E+01 -0.32744998977E+01  0.15260289852E+02  0.51100000000E-03 0. -1.
        -11    1    3    3    0    0 -0.26171953273E+02  0.57055765041E+01 -0.53270461816E+00  0.26791948713E+02  0.51100000000E-03 0.  1.
        -12    1    3    3    0    0 -0.28733806151E+01  0.23414143467E+00 -0.29013115952E+01  0.40900791365E+01  0.00000000000E+00 0.  1.
</event>
<event>
 7    1  0.3708346E-009  0.4614232E+02  0.7816164E-02  0.1320468E+00
        -11   -1    0    0    0    0  0.00000000000E+00  0.00000000000E+00  0.45593999997E+02  0.45594000000E+02  0.51100000000E-03 0.  1.
         11   -1    0    0    0    0 -0.00000000000E+00 -0.00000000000E+00 -0.45593999997E+02  0.45594000000E+02  0.51100000000E-03 0. -1.
    9900012    2    1    2    0    0  0.43060717228E+02 -0.81847411003E+01  0.10387405917E+02  0.46142317002E+02  0.99999930802E+01 0.  0.
        -12    1    1    2    0    0 -0.43060717228E+02  0.81847411003E+01 -0.10387405917E+02  0.45045682998E+02  0.00000000000E+00 0.  1.
         11    1    3    3    0    0  0.92401565487E+00 -0.15322554975E+01  0.49447681649E-01  0.17899880375E+01  0.51100000000E-03 0. -1.
        -11    1    3    3    0    0  0.87130429513E+01 -0.25951883538E+01  0.46317391292E+01  0.10203192034E+02  0.51100000000E-03 0.  1.
         12    1    3    3    0    0  0.33423658622E+02 -0.40572972490E+01  0.57062191064E+01  0.34149136931E+02  0.00000000000E+00 0. -1.
</event>
<event>
 7    1  0.3708346E-009  0.4614232E+02  0.7816164E-02  0.1320468E+00
        -11   -1    0    0    0    0  0.00000000000E+00  0.00000000000E+00  0.45593999997E+02  0.45594000000E+02  0.51100000000E-03 0.  1.
         11   -1    0    0    0    0 -0.00000000000E+00 -0.00000000000E+00 -0.45593999997E+02  0.45594000000E+02  0.51100000000E-03 0. -1.
    9900012    2    1    2    0    0  0.39608888306E+02  0.17342104221E+02 -0.12629366087E+02  0.46142317639E+02  0.99999988833E+01 0.  0.
        -12    1    1    2    0    0 -0.39608888306E+02 -0.17342104221E+02  0.12629366087E+02  0.45045682361E+02  0.00000000000E+00 0.  1.
         11    1    3    3    0    0  0.37682586358E+01  0.14992022269E+01 -0.34480429162E+01  0.53231927146E+01  0.51100000000E-03 0. -1.
        -11    1    3    3    0    0  0.19531390949E+02  0.55303669165E+01 -0.27789239041E+01  0.20488597047E+02  0.51100000000E-03 0.  1.
         12    1    3    3    0    0  0.16309238721E+02  0.10312535077E+02 -0.64023992667E+01  0.20330527877E+02  0.00000000000E+00 0. -1.
</event>
<event>
 7    1  0.3708346E-009  0.4614232E+02  0.7816164E-02  0.1320468E+00
        -11   -1    0    0    0    0  0.00000000000E+00  0.00000000000E+00  0.45593999997E+02  0.45594000000E+02  0.51100000000E-03 0.  1.
         11   -1    0    0    0    0 -0.00000000000E+00 -0.00000000000E+00 -0.45593999997E+02  0.45594000000E+02  0.51100000000E-03 0. -1.
    9900012    2    1    2    0    0  0.17454438639E+02 -0.36821780879E+02  0.19199279975E+02  0.46142319554E+02  0.10000016349E+02 0.  0.
        -12    1    1    2    0    0 -0.17454438639E+02  0.36821780879E+02 -0.19199279975E+02  0.45045680446E+02  0.00000000000E+00 0.  1.
         11    1    3    3    0    0  0.93000689979E+01 -0.22764368966E+02  0.87238866550E+01  0.26092412238E+02  0.51100000000E-03 0. -1.
        -11    1    3    3    0    0  0.17454253599E+01 -0.13318575141E+00  0.13526662094E+01  0.22122283486E+01  0.51100000000E-03 0.  1.
         12    1    3    3    0    0  0.64089442810E+01 -0.13924226161E+02  0.91227271107E+01  0.17837678967E+02  0.00000000000E+00 0. -1.
</event>
<event>
 7    1  0.3708346E-009  0.4614232E+02  0.7816164E-02  0.1320468E+00
        -11   -1    0    0    0    0  0.00000000000E+00  0.00000000000E+00  0.45593999997E+02  0.45594000000E+02  0.51100000000E-03 0.  1.
         11   -1    0    0    0    0 -0.00000000000E+00 -0.00000000000E+00 -0.45593999997E+02  0.45594000000E+02  0.51100000000E-03 0. -1.
    9900012    2    1    2    0    0  0.26635277356E+02 -0.31672922796E+02 -0.17790487775E+02  0.46142317704E+02  0.99999994776E+01 0.  0.
        -12    1    1    2    0    0 -0.26635277356E+02  0.31672922796E+02  0.17790487775E+02  0.45045682296E+02  0.00000000000E+00 0.  1.
         11    1    3    3    0    0  0.98948820410E+00 -0.50629002662E+01 -0.31662744544E+01  0.60528786699E+01  0.51100000000E-03 0. -1.
        -11    1    3    3    0    0  0.11824518497E+02 -0.12608660079E+02 -0.96475385552E+01  0.19795770940E+02  0.51100000000E-03 0.  1.
        -12    1    3    3    0    0  0.13821270655E+02 -0.14001362450E+02 -0.49766747659E+01  0.20293668094E+02  0.00000000000E+00 0.  1.
</event>
<event>
 7    1  0.3708346E-009  0.4614232E+02  0.7816164E-02  0.1320468E+00
        -11   -1    0    0    0    0  0.00000000000E+00  0.00000000000E+00  0.45593999997E+02  0.45594000000E+02  0.51100000000E-03 0. -1.
         11   -1    0    0    0    0 -0.00000000000E+00 -0.00000000000E+00 -0.45593999997E+02  0.45594000000E+02  0.51100000000E-03 0.  1.
    9900012    2    1    2    0    0  0.33369984618E+02  0.23380460801E+02 -0.19207075224E+02  0.46142316974E+02  0.99999928208E+01 0.  0.
        -12    1    1    2    0    0 -0.33369984618E+02 -0.23380460801E+02  0.19207075224E+02  0.45045683026E+02  0.00000000000E+00 0.  1.
         11    1    3    3    0    0  0.63422120335E+01  0.16864063046E+01 -0.34822317238E+00  0.65718246584E+01  0.51100000000E-03 0.  1.
        -11    1    3    3    0    0  0.13105621550E+02  0.86175072982E+01 -0.87228313840E+01  0.17947326705E+02  0.51100000000E-03 0. -1.
         12    1    3    3    0    0  0.13922151035E+02  0.13076547198E+02 -0.10136020667E+02  0.21623165610E+02  0.00000000000E+00 0. -1.
</event>
<event>
 7    1  0.3708346E-009  0.4614232E+02  0.7816164E-02  0.1320468E+00
        -11   -1    0    0    0    0  0.00000000000E+00  0.00000000000E+00  0.45593999997E+02  0.45594000000E+02  0.51100000000E-03 0.  1.
         11   -1    0    0    0    0 -0.00000000000E+00 -0.00000000000E+00 -0.45593999997E+02  0.45594000000E+02  0.51100000000E-03 0. -1.
    9900012    2    1    2    0    0 -0.36841338694E+02  0.24699401545E+02 -0.78593171340E+01  0.46142317196E+02  0.99999948480E+01 0.  0.
        -12    1    1    2    0    0  0.36841338694E+02 -0.24699401545E+02  0.78593171340E+01  0.45045682804E+02  0.00000000000E+00 0.  1.
         11    1    3    3    0    0 -0.61736674593E+01  0.16291261285E+01 -0.32067300091E+01  0.71450220051E+01  0.51100000000E-03 0. -1.
        -11    1    3    3    0    0 -0.64234092028E+01  0.31394972011E+01  0.60418685262E+00  0.71750728551E+01  0.51100000000E-03 0.  1.
         12    1    3    3    0    0 -0.24244262032E+02  0.19930778215E+02 -0.52567739775E+01  0.31822222336E+02  0.00000000000E+00 0. -1.
</event>
<event>
 7    1  0.3708346E-009  0.4614232E+02  0.7816164E-02  0.1320468E+00
        -11   -1    0    0    0    0  0.00000000000E+00  0.00000000000E+00  0.45593999997E+02  0.45594000000E+02  0.51100000000E-03 0. -1.
         11   -1    0    0    0    0 -0.00000000000E+00 -0.00000000000E+00 -0.45593999997E+02  0.45594000000E+02  0.51100000000E-03 0.  1.
    9900012    2    1    2    0    0  0.27115222797E+02  0.85827790007E+01  0.34931562153E+02  0.46142318329E+02  0.10000005181E+02 0.  0.
        -12    1    1    2    0    0 -0.27115222797E+02 -0.85827790007E+01 -0.34931562153E+02  0.45045681671E+02  0.00000000000E+00 0.  1.
         11    1    3    3    0    0  0.13680820032E+02  0.46383596949E+01  0.12372015199E+02  0.19019620862E+02  0.51100000000E-03 0. -1.
        -11    1    3    3    0    0 -0.40318359180E+00 -0.21278679762E+00  0.19268769502E+00  0.49493841927E+00  0.51100000000E-03 0.  1.
        -12    1    3    3    0    0  0.13837586357E+02  0.41572061035E+01  0.22366859259E+02  0.26627759048E+02  0.00000000000E+00 0.  1.
</event>
<event>
 7    1  0.3708346E-009  0.4614232E+02  0.7816164E-02  0.1320468E+00
        -11   -1    0    0    0    0  0.00000000000E+00  0.00000000000E+00  0.45593999997E+02  0.45594000000E+02  0.51100000000E-03 0. -1.
         11   -1    0    0    0    0 -0.00000000000E+00 -0.00000000000E+00 -0.45593999997E+02  0.45594000000E+02  0.51100000000E-03 0.  1.
    9900012    2    1    2    0    0 -0.26285890933E+02 -0.28881633284E+02  0.22450315570E+02  0.46142317937E+02  0.10000001603E+02 0.  0.
        -12    1    1    2    0    0  0.26285890933E+02  0.28881633284E+02 -0.22450315570E+02  0.45045682063E+02  0.00000000000E+00 0.  1.
         11    1    3    3    0    0 -0.71234909900E+01 -0.12068747325E+02  0.82227617977E+01  0.16248464473E+02  0.51100000000E-03 0. -1.
        -11    1    3    3    0    0 -0.14358758278E+02 -0.12043360967E+02  0.13476196936E+02  0.23082988688E+02  0.51100000000E-03 0.  1.
        -12    1    3    3    0    0 -0.48036416651E+01 -0.47695249925E+01  0.75135683656E+00  0.68108647759E+01  0.00000000000E+00 0.  1.
</event>
<event>
 7    1  0.3708346E-009  0.4614232E+02  0.7816164E-02  0.1320468E+00
        -11   -1    0    0    0    0  0.00000000000E+00  0.00000000000E+00  0.45593999997E+02  0.45594000000E+02  0.51100000000E-03 0.  1.
         11   -1    0    0    0    0 -0.00000000000E+00 -0.00000000000E+00 -0.45593999997E+02  0.45594000000E+02  0.51100000000E-03 0. -1.
    9900012    2    1    2    0    0 -0.10818446993E+02 -0.29815064649E+02 -0.31986506812E+02  0.46142317706E+02  0.99999994959E+01 0.  0.
        -12    1    1    2    0    0  0.10818446993E+02  0.29815064649E+02  0.31986506812E+02  0.45045682294E+02  0.00000000000E+00 0.  1.
         11    1    3    3    0    0 -0.24332630135E+01 -0.16800059031E+02 -0.11795733169E+02  0.20671286210E+02  0.51100000000E-03 0.  1.
        -11    1    3    3    0    0 -0.32472558032E+01 -0.49394520420E+01 -0.67822023904E+01  0.89967286417E+01  0.51100000000E-03 0. -1.
         12    1    3    3    0    0 -0.51379281760E+01 -0.80755535758E+01 -0.13408571252E+02  0.16474302854E+02  0.00000000000E+00 0. -1.
</event>
<event>
 7    1  0.3708346E-009  0.4614232E+02  0.7816164E-02  0.1320468E+00
        -11   -1    0    0    0    0  0.00000000000E+00  0.00000000000E+00  0.45593999997E+02  0.45594000000E+02  0.51100000000E-03 0.  1.
         11   -1    0    0    0    0 -0.00000000000E+00 -0.00000000000E+00 -0.45593999997E+02  0.45594000000E+02  0.51100000000E-03 0. -1.
    9900012    2    1    2    0    0 -0.39969842875E+02 -0.19171282171E+02  0.79991913871E+01  0.46142318049E+02  0.10000002628E+02 0.  0.
        -12    1    1    2    0    0  0.39969842875E+02  0.19171282171E+02 -0.79991913871E+01  0.45045681951E+02  0.00000000000E+00 0.  1.
         11    1    3    3    0    0 -0.21530111524E+02 -0.75834658403E+01  0.75562582933E+01  0.24044785215E+02  0.51100000000E-03 0. -1.
        -11    1    3    3    0    0 -0.11958239026E+02 -0.94809599887E+01 -0.95582268200E-01  0.15260970453E+02  0.51100000000E-03 0.  1.
         12    1    3    3    0    0 -0.64814923248E+01 -0.21068563420E+01  0.53851536199E+00  0.68365623816E+01  0.00000000000E+00 0. -1.
</event>
<event>
 7    1  0.3708346E-009  0.4614232E+02  0.7816164E-02  0.1320468E+00
        -11   -1    0    0    0    0  0.00000000000E+00  0.00000000000E+00  0.45593999997E+02  0.45594000000E+02  0.51100000000E-03 0.  1.
         11   -1    0    0    0    0 -0.00000000000E+00 -0.00000000000E+00 -0.45593999997E+02  0.45594000000E+02  0.51100000000E-03 0. -1.
    9900012    2    1    2    0    0 -0.31478020356E+02 -0.17071130236E+02 -0.27328085124E+02  0.46142317748E+02  0.99999998797E+01 0.  0.
        -12    1    1    2    0    0  0.31478020356E+02  0.17071130236E+02  0.27328085124E+02  0.45045682252E+02  0.00000000000E+00 0.  1.
         11    1    3    3    0    0 -0.35267893047E+01 -0.31019813988E+01 -0.30247853666E+01  0.55865783959E+01  0.51100000000E-03 0. -1.
        -11    1    3    3    0    0 -0.50864284744E+01 -0.39678017107E+01 -0.96736662408E+01  0.11627339500E+02  0.51100000000E-03 0.  1.
        -12    1    3    3    0    0 -0.22864802576E+02 -0.10001347126E+02 -0.14629633516E+02  0.28928399852E+02  0.00000000000E+00 0.  1.
</event>
<event>
 7    1  0.3708346E-009  0.4614232E+02  0.7816164E-02  0.1320468E+00
        -11   -1    0    0    0    0  0.00000000000E+00  0.00000000000E+00  0.45593999997E+02  0.45594000000E+02  0.51100000000E-03 0.  1.
         11   -1    0    0    0    0 -0.00000000000E+00 -0.00000000000E+00 -0.45593999997E+02  0.45594000000E+02  0.51100000000E-03 0. -1.
    9900012    2    1    2    0    0  0.17169663555E+02  0.13311590499E+02 -0.39460329350E+02  0.46142318957E+02  0.10000010909E+02 0.  0.
        -12    1    1    2    0    0 -0.17169663555E+02 -0.13311590499E+02  0.39460329350E+02  0.45045681043E+02  0.00000000000E+00 0.  1.
         11    1    3    3    0    0  0.89229821808E+01  0.85165413699E+01 -0.23790809340E+02  0.26798389825E+02  0.51100000000E-03 0. -1.
        -11    1    3    3    0    0  0.48422242743E+01  0.56933028889E+01 -0.82545400076E+01  0.11135450808E+02  0.51100000000E-03 0.  1.
        -12    1    3    3    0    0  0.34044571002E+01 -0.89825376023E+00 -0.74149800018E+01  0.82084783237E+01  0.00000000000E+00 0.  1.
</event>
<event>
 7    1  0.3708346E-009  0.4614232E+02  0.7816164E-02  0.1320468E+00
        -11   -1    0    0    0    0  0.00000000000E+00  0.00000000000E+00  0.45593999997E+02  0.45594000000E+02  0.51100000000E-03 0. -1.
         11   -1    0    0    0    0 -0.00000000000E+00 -0.00000000000E+00 -0.45593999997E+02  0.45594000000E+02  0.51100000000E-03 0.  1.
    9900012    2    1    2    0    0 -0.37280179065E+01 -0.44707300978E+02  0.40586486690E+01  0.46142317551E+02  0.99999980840E+01 0.  0.
        -12    1    1    2    0    0  0.37280179065E+01  0.44707300978E+02 -0.40586486690E+01  0.45045682449E+02  0.00000000000E+00 0.  1.
         11    1    3    3    0    0 -0.18514487968E+01 -0.13618589304E+02  0.14240267279E+01  0.13817441502E+02  0.51100000000E-03 0.  1.
        -11    1    3    3    0    0 -0.30849256839E+00 -0.16203648746E+02  0.54431296260E+01  0.17096229430E+02  0.51100000000E-03 0. -1.
        -12    1    3    3    0    0 -0.15680765413E+01 -0.14885062929E+02 -0.28085076849E+01  0.15228646619E+02  0.00000000000E+00 0.  1.
</event>
<event>
 7    1  0.3708346E-009  0.4614232E+02  0.7816164E-02  0.1320468E+00
        -11   -1    0    0    0    0  0.00000000000E+00  0.00000000000E+00  0.45593999997E+02  0.45594000000E+02  0.51100000000E-03 0.  1.
         11   -1    0    0    0    0 -0.00000000000E+00 -0.00000000000E+00 -0.45593999997E+02  0.45594000000E+02  0.51100000000E-03 0. -1.
    9900012    2    1    2    0    0  0.42922860248E+02  0.10700916377E+02 -0.84989407979E+01  0.46142317212E+02  0.99999949920E+01 0.  0.
        -12    1    1    2    0    0 -0.42922860248E+02 -0.10700916377E+02  0.84989407979E+01  0.45045682788E+02  0.00000000000E+00 0.  1.
         11    1    3    3    0    0  0.11739065719E+02  0.34783470165E+01 -0.36101477051E+01  0.12764706367E+02  0.51100000000E-03 0. -1.
        -11    1    3    3    0    0  0.14914780316E+02 -0.11699625040E+00 -0.16929688083E+00  0.14916199975E+02  0.51100000000E-03 0.  1.
        -12    1    3    3    0    0  0.16269014213E+02  0.73395656113E+01 -0.47194962120E+01  0.18461410870E+02  0.00000000000E+00 0.  1.
</event>
<event>
 7    1  0.3708346E-009  0.4614232E+02  0.7816164E-02  0.1320468E+00
        -11   -1    0    0    0    0  0.00000000000E+00  0.00000000000E+00  0.45593999997E+02  0.45594000000E+02  0.51100000000E-03 0.  1.
         11   -1    0    0    0    0 -0.00000000000E+00 -0.00000000000E+00 -0.45593999997E+02  0.45594000000E+02  0.51100000000E-03 0. -1.
    9900012    2    1    2    0    0  0.41558854803E+02 -0.16114280491E+02 -0.65042512752E+01  0.46142315047E+02  0.99999752489E+01 0.  0.
        -12    1    1    2    0    0 -0.41558854803E+02  0.16114280491E+02  0.65042512752E+01  0.45045684953E+02  0.00000000000E+00 0.  1.
         11    1    3    3    0    0  0.72648376763E+01 -0.37270772580E+01 -0.16434656107E+01  0.83288625168E+01  0.51100000000E-03 0. -1.
        -11    1    3    3    0    0  0.25901670762E+02 -0.11501788415E+02 -0.68210175805E+01  0.29149853621E+02  0.51100000000E-03 0.  1.
        -12    1    3    3    0    0  0.83923463641E+01 -0.88541481811E+00  0.19602319160E+01  0.86635989092E+01  0.00000000000E+00 0.  1.
</event>
<event>
 7    1  0.3708346E-009  0.4614232E+02  0.7816164E-02  0.1320468E+00
        -11   -1    0    0    0    0  0.00000000000E+00  0.00000000000E+00  0.45593999997E+02  0.45594000000E+02  0.51100000000E-03 0.  1.
         11   -1    0    0    0    0 -0.00000000000E+00 -0.00000000000E+00 -0.45593999997E+02  0.45594000000E+02  0.51100000000E-03 0. -1.
    9900012    2    1    2    0    0 -0.10726697238E+00 -0.73462935500E+01 -0.44442478222E+02  0.46142318679E+02  0.10000008374E+02 0.  0.
        -12    1    1    2    0    0  0.10726697238E+00  0.73462935500E+01  0.44442478222E+02  0.45045681321E+02  0.00000000000E+00 0.  1.
         11    1    3    3    0    0 -0.35818350815E+00 -0.36819312716E+01 -0.85969271304E+01  0.93590635034E+01  0.51100000000E-03 0. -1.
        -11    1    3    3    0    0  0.92910381386E+00 -0.43403484516E+01 -0.35482725510E+02  0.35759273881E+02  0.51100000000E-03 0.  1.
        -12    1    3    3    0    0 -0.67818727808E+00  0.67598617326E+00 -0.36282558124E+00  0.10239812952E+01  0.00000000000E+00 0.  1.
</event>
<event>
 7    1  0.3708346E-009  0.4614232E+02  0.7816164E-02  0.1320468E+00
        -11   -1    0    0    0    0  0.00000000000E+00  0.00000000000E+00  0.45593999997E+02  0.45594000000E+02  0.51100000000E-03 0.  1.
         11   -1    0    0    0    0 -0.00000000000E+00 -0.00000000000E+00 -0.45593999997E+02  0.45594000000E+02  0.51100000000E-03 0. -1.
    9900012    2    1    2    0    0 -0.53703060945E+01  0.40062747619E+02 -0.19880884400E+02  0.46142317645E+02  0.99999989372E+01 0.  0.
        -12    1    1    2    0    0  0.53703060945E+01 -0.40062747619E+02  0.19880884400E+02  0.45045682355E+02  0.00000000000E+00 0.  1.
         11    1    3    3    0    0  0.12278509411E+01  0.89554692710E+01 -0.80298840692E+01  0.12090785178E+02  0.51100000000E-03 0. -1.
        -11    1    3    3    0    0 -0.54728281186E+00  0.43307613683E+01 -0.69766278411E+00  0.44206047241E+01  0.51100000000E-03 0.  1.
         12    1    3    3    0    0 -0.60508742237E+01  0.26776516980E+02 -0.11153337547E+02  0.29630927742E+02  0.00000000000E+00 0. -1.
</event>
<event>
 7    1  0.3708346E-009  0.4614232E+02  0.7816164E-02  0.1320468E+00
        -11   -1    0    0    0    0  0.00000000000E+00  0.00000000000E+00  0.45593999997E+02  0.45594000000E+02  0.51100000000E-03 0. -1.
         11   -1    0    0    0    0 -0.00000000000E+00 -0.00000000000E+00 -0.45593999997E+02  0.45594000000E+02  0.51100000000E-03 0.  1.
    9900012    2    1    2    0    0 -0.34305781930E+02  0.20207164649E+02  0.21068871198E+02  0.46142317516E+02  0.99999977609E+01 0.  0.
        -12    1    1    2    0    0  0.34305781930E+02 -0.20207164649E+02 -0.21068871198E+02  0.45045682484E+02  0.00000000000E+00 0.  1.
         11    1    3    3    0    0 -0.17649587399E+02  0.90583526267E+01  0.13135794478E+02  0.23793082703E+02  0.51100000000E-03 0. -1.
        -11    1    3    3    0    0 -0.10868302892E+02  0.74168127070E+01  0.81168409055E+01  0.15460020215E+02  0.51100000000E-03 0.  1.
        -12    1    3    3    0    0 -0.57878916384E+01  0.37319993150E+01 -0.18376418600E+00  0.68892145982E+01  0.00000000000E+00 0.  1.
</event>
<event>
 7    1  0.3708346E-009  0.4614232E+02  0.7816164E-02  0.1320468E+00
        -11   -1    0    0    0    0  0.00000000000E+00  0.00000000000E+00  0.45593999997E+02  0.45594000000E+02  0.51100000000E-03 0.  1.
         11   -1    0    0    0    0 -0.00000000000E+00 -0.00000000000E+00 -0.45593999997E+02  0.45594000000E+02  0.51100000000E-03 0. -1.
    9900012    2    1    2    0    0  0.31856171799E+02 -0.18654226849E+02  0.25813127638E+02  0.46142318526E+02  0.10000006976E+02 0.  0.
        -12    1    1    2    0    0 -0.31856171799E+02  0.18654226849E+02 -0.25813127638E+02  0.45045681474E+02  0.00000000000E+00 0.  1.
         11    1    3    3    0    0  0.79301948516E+00 -0.26853018088E+00  0.34463083575E-01  0.83795962142E+00  0.51100000000E-03 0. -1.
        -11    1    3    3    0    0  0.17565431096E+02 -0.10360326274E+02  0.20022187959E+02  0.28579166206E+02  0.51100000000E-03 0.  1.
        -12    1    3    3    0    0  0.13497721217E+02 -0.80253703935E+01  0.57564765957E+01  0.16725192699E+02  0.00000000000E+00 0.  1.
</event>
<event>
 7    1  0.3708346E-009  0.4614232E+02  0.7816164E-02  0.1320468E+00
        -11   -1    0    0    0    0  0.00000000000E+00  0.00000000000E+00  0.45593999997E+02  0.45594000000E+02  0.51100000000E-03 0.  1.
         11   -1    0    0    0    0 -0.00000000000E+00 -0.00000000000E+00 -0.45593999997E+02  0.45594000000E+02  0.51100000000E-03 0. -1.
    9900012    2    1    2    0    0  0.24353703661E+02  0.48063585451E+01 -0.37588687793E+02  0.46142318582E+02  0.10000007482E+02 0.  0.
        -12    1    1    2    0    0 -0.24353703661E+02 -0.48063585451E+01  0.37588687793E+02  0.45045681418E+02  0.00000000000E+00 0.  1.
         11    1    3    3    0    0  0.21116572920E+02  0.15017098133E+01 -0.27024090691E+02  0.34328796398E+02  0.51100000000E-03 0. -1.
        -11    1    3    3    0    0 -0.44050020558E+00  0.27080825512E+00 -0.11347334186E+01  0.12469954830E+01  0.51100000000E-03 0.  1.
         12    1    3    3    0    0  0.36776309461E+01  0.30338404767E+01 -0.94298636837E+01  0.10566526700E+02  0.00000000000E+00 0. -1.
</event>
<event>
 7    1  0.3708346E-009  0.4614232E+02  0.7816164E-02  0.1320468E+00
        -11   -1    0    0    0    0  0.00000000000E+00  0.00000000000E+00  0.45593999997E+02  0.45594000000E+02  0.51100000000E-03 0.  1.
         11   -1    0    0    0    0 -0.00000000000E+00 -0.00000000000E+00 -0.45593999997E+02  0.45594000000E+02  0.51100000000E-03 0. -1.
    9900012    2    1    2    0    0 -0.16390115193E+01  0.30651550990E+02 -0.32968312269E+02  0.46142317069E+02  0.99999936899E+01 0.  0.
        -12    1    1    2    0    0  0.16390115193E+01 -0.30651550990E+02  0.32968312269E+02  0.45045682931E+02  0.00000000000E+00 0.  1.
         11    1    3    3    0    0 -0.46158205879E+01  0.13890752834E+02 -0.12167986278E+02  0.19034671111E+02  0.51100000000E-03 0. -1.
        -11    1    3    3    0    0  0.10635116990E+01  0.12948121377E+02 -0.16989294984E+02  0.21387403971E+02  0.51100000000E-03 0.  1.
         12    1    3    3    0    0  0.19132973696E+01  0.38126767791E+01 -0.38110310070E+01  0.57202419864E+01  0.00000000000E+00 0. -1.
</event>
<event>
 7    1  0.3708346E-009  0.4614232E+02  0.7816164E-02  0.1320468E+00
        -11   -1    0    0    0    0  0.00000000000E+00  0.00000000000E+00  0.45593999997E+02  0.45594000000E+02  0.51100000000E-03 0.  1.
         11   -1    0    0    0    0 -0.00000000000E+00 -0.00000000000E+00 -0.45593999997E+02  0.45594000000E+02  0.51100000000E-03 0. -1.
    9900012    2    1    2    0    0  0.17624676464E+02 -0.22840818166E+02 -0.34594527236E+02  0.46142317525E+02  0.99999978430E+01 0.  0.
        -12    1    1    2    0    0 -0.17624676464E+02  0.22840818166E+02  0.34594527236E+02  0.45045682475E+02  0.00000000000E+00 0.  1.
         11    1    3    3    0    0  0.90922008935E+01 -0.17145779332E+02 -0.21061459062E+02  0.28639673952E+02  0.51100000000E-03 0. -1.
        -11    1    3    3    0    0  0.52643926458E+01 -0.32270320096E+01 -0.46788573972E+01  0.77472106158E+01  0.51100000000E-03 0.  1.
         12    1    3    3    0    0  0.32680829246E+01 -0.24680068244E+01 -0.88542107767E+01  0.97554329563E+01  0.00000000000E+00 0. -1.
</event>
<event>
 7    1  0.3708346E-009  0.4614232E+02  0.7816164E-02  0.1320468E+00
        -11   -1    0    0    0    0  0.00000000000E+00  0.00000000000E+00  0.45593999997E+02  0.45594000000E+02  0.51100000000E-03 0.  1.
         11   -1    0    0    0    0 -0.00000000000E+00 -0.00000000000E+00 -0.45593999997E+02  0.45594000000E+02  0.51100000000E-03 0. -1.
    9900012    2    1    2    0    0 -0.40796462728E+02  0.17451807050E+02 -0.77586482170E+01  0.46142316937E+02  0.99999924895E+01 0.  0.
        -12    1    1    2    0    0  0.40796462728E+02 -0.17451807050E+02  0.77586482170E+01  0.45045683063E+02  0.00000000000E+00 0.  1.
         11    1    3    3    0    0 -0.18197853513E+02  0.10369328036E+02 -0.57839597839E+01  0.21728760375E+02  0.51100000000E-03 0. -1.
        -11    1    3    3    0    0 -0.21937906109E+02  0.61764468294E+01 -0.82228567421E+00  0.22805621541E+02  0.51100000000E-03 0.  1.
        -12    1    3    3    0    0 -0.66070310562E+00  0.90603218408E+00 -0.11524027589E+01  0.16079350208E+01  0.00000000000E+00 0.  1.
</event>
<event>
 7    1  0.3708346E-009  0.4614232E+02  0.7816164E-02  0.1320468E+00
        -11   -1    0    0    0    0  0.00000000000E+00  0.00000000000E+00  0.45593999997E+02  0.45594000000E+02  0.51100000000E-03 0.  1.
         11   -1    0    0    0    0 -0.00000000000E+00 -0.00000000000E+00 -0.45593999997E+02  0.45594000000E+02  0.51100000000E-03 0. -1.
    9900012    2    1    2    0    0  0.15533096311E+02  0.35245056194E+01 -0.42135665449E+02  0.46142317369E+02  0.99999964275E+01 0.  0.
        -12    1    1    2    0    0 -0.15533096311E+02 -0.35245056194E+01  0.42135665449E+02  0.45045682631E+02  0.00000000000E+00 0.  1.
         11    1    3    3    0    0  0.12263348112E+02 -0.12135752723E+01 -0.31228004316E+02  0.33571576158E+02  0.51100000000E-03 0. -1.
        -11    1    3    3    0    0  0.16699663973E+01  0.22811785676E+01 -0.78085430757E+01  0.83045715514E+01  0.51100000000E-03 0.  1.
         12    1    3    3    0    0  0.15997818013E+01  0.24569023242E+01 -0.30991180565E+01  0.42661696603E+01  0.00000000000E+00 0. -1.
</event>
<event>
 7    1  0.3708346E-009  0.4614232E+02  0.7816164E-02  0.1320468E+00
        -11   -1    0    0    0    0  0.00000000000E+00  0.00000000000E+00  0.45593999997E+02  0.45594000000E+02  0.51100000000E-03 0. -1.
         11   -1    0    0    0    0 -0.00000000000E+00 -0.00000000000E+00 -0.45593999997E+02  0.45594000000E+02  0.51100000000E-03 0.  1.
    9900012    2    1    2    0    0 -0.41893744193E+02  0.16553694840E+02  0.53367237293E-01  0.46142318038E+02  0.10000002524E+02 0.  0.
        -12    1    1    2    0    0  0.41893744193E+02 -0.16553694840E+02 -0.53367237293E-01  0.45045681962E+02  0.00000000000E+00 0.  1.
         11    1    3    3    0    0 -0.11161423901E+02  0.77144138237E+01  0.11758174627E+01  0.13618814600E+02  0.51100000000E-03 0. -1.
        -11    1    3    3    0    0 -0.11893276775E+02  0.57696675455E+00 -0.10341410047E+01  0.11952086469E+02  0.51100000000E-03 0.  1.
        -12    1    3    3    0    0 -0.18839043517E+02  0.82623142614E+01 -0.88309220636E-01  0.20571416969E+02  0.00000000000E+00 0.  1.
</event>
<event>
 7    1  0.3708346E-009  0.4614232E+02  0.7816164E-02  0.1320468E+00
        -11   -1    0    0    0    0  0.00000000000E+00  0.00000000000E+00  0.45593999997E+02  0.45594000000E+02  0.51100000000E-03 0.  1.
         11   -1    0    0    0    0 -0.00000000000E+00 -0.00000000000E+00 -0.45593999997E+02  0.45594000000E+02  0.51100000000E-03 0. -1.
    9900012    2    1    2    0    0 -0.39500306183E+02  0.13330923008E+02 -0.17062407292E+02  0.46142318304E+02  0.10000004954E+02 0.  0.
        -12    1    1    2    0    0  0.39500306183E+02 -0.13330923008E+02  0.17062407292E+02  0.45045681696E+02  0.00000000000E+00 0.  1.
         11    1    3    3    0    0 -0.11342426924E+02  0.53154504363E+01 -0.72759751164E+01  0.14486009665E+02  0.51100000000E-03 0. -1.
        -11    1    3    3    0    0 -0.12256265874E+02 -0.19117164915E-01 -0.32606579372E+01  0.12682598673E+02  0.51100000000E-03 0.  1.
        -12    1    3    3    0    0 -0.15901613385E+02  0.80345897366E+01 -0.65257742383E+01  0.18973709966E+02  0.00000000000E+00 0.  1.
</event>
<event>
 7    1  0.3708346E-009  0.4614232E+02  0.7816164E-02  0.1320468E+00
        -11   -1    0    0    0    0  0.00000000000E+00  0.00000000000E+00  0.45593999997E+02  0.45594000000E+02  0.51100000000E-03 0. -1.
         11   -1    0    0    0    0 -0.00000000000E+00 -0.00000000000E+00 -0.45593999997E+02  0.45594000000E+02  0.51100000000E-03 0.  1.
    9900012    2    1    2    0    0 -0.26134549696E+02  0.36307173335E+02 -0.52809088179E+01  0.46142317395E+02  0.99999966638E+01 0.  0.
        -12    1    1    2    0    0  0.26134549696E+02 -0.36307173335E+02  0.52809088179E+01  0.45045682605E+02  0.00000000000E+00 0.  1.
         11    1    3    3    0    0 -0.47301559759E+01  0.12168993347E+02 -0.15702706971E+01  0.13150076995E+02  0.51100000000E-03 0. -1.
        -11    1    3    3    0    0 -0.30797063454E+01  0.15791790102E+01  0.87265380357E+00  0.35693027950E+01  0.51100000000E-03 0.  1.
         12    1    3    3    0    0 -0.18324687374E+02  0.22559000978E+02 -0.45832919243E+01  0.29422937605E+02  0.00000000000E+00 0. -1.
</event>
<event>
 7    1  0.3708346E-009  0.4614232E+02  0.7816164E-02  0.1320468E+00
        -11   -1    0    0    0    0  0.00000000000E+00  0.00000000000E+00  0.45593999997E+02  0.45594000000E+02  0.51100000000E-03 0. -1.
         11   -1    0    0    0    0 -0.00000000000E+00 -0.00000000000E+00 -0.45593999997E+02  0.45594000000E+02  0.51100000000E-03 0.  1.
    9900012    2    1    2    0    0  0.13910409905E+02 -0.30221611691E+02  0.30368869400E+02  0.46142317126E+02  0.99999942089E+01 0.  0.
        -12    1    1    2    0    0 -0.13910409905E+02  0.30221611691E+02 -0.30368869400E+02  0.45045682874E+02  0.00000000000E+00 0.  1.
         11    1    3    3    0    0  0.57923364238E+01 -0.13979855648E+02  0.17486252263E+02  0.23124803646E+02  0.51100000000E-03 0. -1.
        -11    1    3    3    0    0 -0.35261762904E+00 -0.11859715453E+01  0.26868094368E+01  0.29580082673E+01  0.51100000000E-03 0.  1.
        -12    1    3    3    0    0  0.84706911102E+01 -0.15055784497E+02  0.10195807700E+02  0.20059505213E+02  0.00000000000E+00 0.  1.
</event>
<event>
 7    1  0.3708346E-009  0.4614232E+02  0.7816164E-02  0.1320468E+00
        -11   -1    0    0    0    0  0.00000000000E+00  0.00000000000E+00  0.45593999997E+02  0.45594000000E+02  0.51100000000E-03 0. -1.
         11   -1    0    0    0    0 -0.00000000000E+00 -0.00000000000E+00 -0.45593999997E+02  0.45594000000E+02  0.51100000000E-03 0.  1.
    9900012    2    1    2    0    0 -0.14335557527E+02 -0.35862700496E+02  0.23183437201E+02  0.46142320330E+02  0.10000023425E+02 0.  0.
        -12    1    1    2    0    0  0.14335557527E+02  0.35862700496E+02 -0.23183437201E+02  0.45045679670E+02  0.00000000000E+00 0.  1.
         11    1    3    3    0    0 -0.22878576614E+01 -0.58506623422E+01  0.60719156131E+01  0.87368588174E+01  0.51100000000E-03 0. -1.
        -11    1    3    3    0    0  0.99903456765E+00 -0.84909203998E+00  0.76730272564E+00  0.15191382734E+01  0.51100000000E-03 0.  1.
         12    1    3    3    0    0 -0.13046734433E+02 -0.29162946114E+02  0.16344218862E+02  0.35886323239E+02  0.00000000000E+00 0. -1.
</event>
<event>
 7    1  0.3708346E-009  0.4614232E+02  0.7816164E-02  0.1320468E+00
        -11   -1    0    0    0    0  0.00000000000E+00  0.00000000000E+00  0.45593999997E+02  0.45594000000E+02  0.51100000000E-03 0.  1.
         11   -1    0    0    0    0 -0.00000000000E+00 -0.00000000000E+00 -0.45593999997E+02  0.45594000000E+02  0.51100000000E-03 0. -1.
    9900012    2    1    2    0    0 -0.43180118638E+02 -0.12496941632E+02 -0.29012615588E+01  0.46142317472E+02  0.99999973657E+01 0.  0.
        -12    1    1    2    0    0  0.43180118638E+02  0.12496941632E+02  0.29012615588E+01  0.45045682528E+02  0.00000000000E+00 0.  1.
         11    1    3    3    0    0 -0.18461953758E+02 -0.51935871122E+01 -0.15675516409E+00  0.19179198526E+02  0.51100000000E-03 0. -1.
        -11    1    3    3    0    0 -0.15889170996E+02 -0.31104395026E+01 -0.49749013680E+01  0.16937834358E+02  0.51100000000E-03 0.  1.
        -12    1    3    3    0    0 -0.88289938833E+01 -0.41929150170E+01  0.22303949734E+01  0.10025284588E+02  0.00000000000E+00 0.  1.
</event>
<event>
 7    1  0.3708346E-009  0.4614232E+02  0.7816164E-02  0.1320468E+00
        -11   -1    0    0    0    0  0.00000000000E+00  0.00000000000E+00  0.45593999997E+02  0.45594000000E+02  0.51100000000E-03 0.  1.
         11   -1    0    0    0    0 -0.00000000000E+00 -0.00000000000E+00 -0.45593999997E+02  0.45594000000E+02  0.51100000000E-03 0. -1.
    9900012    2    1    2    0    0  0.21993058053E+02 -0.17195189804E+02 -0.35351723602E+02  0.46142317449E+02  0.99999971496E+01 0.  0.
        -12    1    1    2    0    0 -0.21993058053E+02  0.17195189804E+02  0.35351723602E+02  0.45045682551E+02  0.00000000000E+00 0.  1.
         11    1    3    3    0    0  0.13361597135E+02 -0.75817943313E+01 -0.20215100383E+02  0.25390277018E+02  0.51100000000E-03 0. -1.
        -11    1    3    3    0    0  0.94947930348E+01 -0.82679751284E+01 -0.13212641754E+02  0.18250600261E+02  0.51100000000E-03 0.  1.
         12    1    3    3    0    0 -0.86333211701E+00 -0.13454203446E+01 -0.19239814645E+01  0.25014401699E+01  0.00000000000E+00 0. -1.
</event>
<event>
 7    1  0.3708346E-009  0.4614232E+02  0.7816164E-02  0.1320468E+00
        -11   -1    0    0    0    0  0.00000000000E+00  0.00000000000E+00  0.45593999997E+02  0.45594000000E+02  0.51100000000E-03 0.  1.
         11   -1    0    0    0    0 -0.00000000000E+00 -0.00000000000E+00 -0.45593999997E+02  0.45594000000E+02  0.51100000000E-03 0. -1.
    9900012    2    1    2    0    0  0.23609162508E+02 -0.13019146111E+02 -0.36086322839E+02  0.46142318566E+02  0.10000007343E+02 0.  0.
        -12    1    1    2    0    0 -0.23609162508E+02  0.13019146111E+02  0.36086322839E+02  0.45045681434E+02  0.00000000000E+00 0.  1.
         11    1    3    3    0    0  0.32791431461E+01 -0.14239389298E+01 -0.13744091939E+01  0.38300630206E+01  0.51100000000E-03 0. -1.
        -11    1    3    3    0    0  0.43611929157E+00 -0.84640756053E+00 -0.84720393566E-01  0.95592029020E+00  0.51100000000E-03 0.  1.
         12    1    3    3    0    0  0.19893900071E+02 -0.10748799620E+02 -0.34627193251E+02  0.41356335256E+02  0.00000000000E+00 0. -1.
</event>
<event>
 7    1  0.3708346E-009  0.4614232E+02  0.7816164E-02  0.1320468E+00
        -11   -1    0    0    0    0  0.00000000000E+00  0.00000000000E+00  0.45593999997E+02  0.45594000000E+02  0.51100000000E-03 0.  1.
         11   -1    0    0    0    0 -0.00000000000E+00 -0.00000000000E+00 -0.45593999997E+02  0.45594000000E+02  0.51100000000E-03 0. -1.
    9900012    2    1    2    0    0 -0.36784503383E+02 -0.93484598312E+01 -0.24261494988E+02  0.46142317306E+02  0.99999958503E+01 0.  0.
        -12    1    1    2    0    0  0.36784503383E+02  0.93484598312E+01  0.24261494988E+02  0.45045682694E+02  0.00000000000E+00 0.  1.
         11    1    3    3    0    0 -0.40695795652E+01 -0.24267308733E+01 -0.51884770245E+01  0.70264354166E+01  0.51100000000E-03 0. -1.
        -11    1    3    3    0    0 -0.25449972450E+02 -0.80361918029E+01 -0.13613472043E+02  0.29960108440E+02  0.51100000000E-03 0.  1.
        -12    1    3    3    0    0 -0.72649513677E+01  0.11144628450E+01 -0.54595459203E+01  0.91557734498E+01  0.00000000000E+00 0.  1.
</event>
<event>
 7    1  0.3708346E-009  0.4614232E+02  0.7816164E-02  0.1320468E+00
        -11   -1    0    0    0    0  0.00000000000E+00  0.00000000000E+00  0.45593999997E+02  0.45594000000E+02  0.51100000000E-03 0. -1.
         11   -1    0    0    0    0 -0.00000000000E+00 -0.00000000000E+00 -0.45593999997E+02  0.45594000000E+02  0.51100000000E-03 0.  1.
    9900012    2    1    2    0    0 -0.23594886452E+02  0.34205513060E+02  0.17389014035E+02  0.46142316528E+02  0.99999887519E+01 0.  0.
        -12    1    1    2    0    0  0.23594886452E+02 -0.34205513060E+02 -0.17389014035E+02  0.45045683472E+02  0.00000000000E+00 0.  1.
         11    1    3    3    0    0 -0.38388847492E+00  0.53080917678E+00 -0.22084131973E+00  0.69130303988E+00  0.51100000000E-03 0.  1.
        -11    1    3    3    0    0 -0.11534607872E+02  0.91019438978E+01  0.63759946478E+01  0.16017049338E+02  0.51100000000E-03 0. -1.
        -12    1    3    3    0    0 -0.11676390105E+02  0.24572759986E+02  0.11233860707E+02  0.29433964150E+02  0.00000000000E+00 0.  1.
</event>
<event>
 7    1  0.3708346E-009  0.4614232E+02  0.7816164E-02  0.1320468E+00
        -11   -1    0    0    0    0  0.00000000000E+00  0.00000000000E+00  0.45593999997E+02  0.45594000000E+02  0.51100000000E-03 0.  1.
         11   -1    0    0    0    0 -0.00000000000E+00 -0.00000000000E+00 -0.45593999997E+02  0.45594000000E+02  0.51100000000E-03 0. -1.
    9900012    2    1    2    0    0  0.30401495942E+02  0.10169098939E+02 -0.31645725718E+02  0.46142317799E+02  0.10000000343E+02 0.  0.
        -12    1    1    2    0    0 -0.30401495942E+02 -0.10169098939E+02  0.31645725718E+02  0.45045682201E+02  0.00000000000E+00 0.  1.
         11    1    3    3    0    0  0.22776294154E+02  0.62906584633E+01 -0.21128011488E+02  0.31697394672E+02  0.51100000000E-03 0. -1.
        -11    1    3    3    0    0  0.98988275704E-01  0.15165641788E+01 -0.37687477151E+01  0.40636467844E+01  0.51100000000E-03 0.  1.
        -12    1    3    3    0    0  0.75262135119E+01  0.23618762973E+01 -0.67489665152E+01  0.10381276342E+02  0.00000000000E+00 0.  1.
</event>
<event>
 7    1  0.3708346E-009  0.4614232E+02  0.7816164E-02  0.1320468E+00
        -11   -1    0    0    0    0  0.00000000000E+00  0.00000000000E+00  0.45593999997E+02  0.45594000000E+02  0.51100000000E-03 0.  1.
         11   -1    0    0    0    0 -0.00000000000E+00 -0.00000000000E+00 -0.45593999997E+02  0.45594000000E+02  0.51100000000E-03 0. -1.
    9900012    2    1    2    0    0  0.20815005709E+02 -0.86128757149E+01 -0.39008554682E+02  0.46142318419E+02  0.10000005996E+02 0.  0.
        -12    1    1    2    0    0 -0.20815005709E+02  0.86128757149E+01  0.39008554682E+02  0.45045681581E+02  0.00000000000E+00 0.  1.
         11    1    3    3    0    0  0.19072485219E+01 -0.98709519536E-01 -0.45072658353E+00  0.19622678736E+01  0.51100000000E-03 0.  1.
        -11    1    3    3    0    0  0.13255814606E+02 -0.85640054533E+01 -0.30448103821E+02  0.34294982677E+02  0.51100000000E-03 0. -1.
         12    1    3    3    0    0  0.56519425816E+01  0.49839257921E-01 -0.81097242770E+01  0.98850678675E+01  0.00000000000E+00 0. -1.
</event>
<event>
 7    1  0.3708346E-009  0.4614232E+02  0.7816164E-02  0.1320468E+00
        -11   -1    0    0    0    0  0.00000000000E+00  0.00000000000E+00  0.45593999997E+02  0.45594000000E+02  0.51100000000E-03 0. -1.
         11   -1    0    0    0    0 -0.00000000000E+00 -0.00000000000E+00 -0.45593999997E+02  0.45594000000E+02  0.51100000000E-03 0.  1.
    9900012    2    1    2    0    0  0.15015834344E+02  0.39769751681E+02  0.14899832843E+02  0.46142318203E+02  0.10000004032E+02 0.  0.
        -12    1    1    2    0    0 -0.15015834344E+02 -0.39769751681E+02 -0.14899832843E+02  0.45045681797E+02  0.00000000000E+00 0.  1.
         11    1    3    3    0    0  0.30706363466E+01  0.12202418941E+02  0.14776705971E+01  0.12669307251E+02  0.51100000000E-03 0.  1.
        -11    1    3    3    0    0  0.67058776087E+01  0.13714223744E+02  0.35489497061E+01  0.15673026883E+02  0.51100000000E-03 0. -1.
        -12    1    3    3    0    0  0.52393203888E+01  0.13853108996E+02  0.98732125398E+01  0.17799984069E+02  0.00000000000E+00 0.  1.
</event>
<event>
 7    1  0.3708346E-009  0.4614232E+02  0.7816164E-02  0.1320468E+00
        -11   -1    0    0    0    0  0.00000000000E+00  0.00000000000E+00  0.45593999997E+02  0.45594000000E+02  0.51100000000E-03 0.  1.
         11   -1    0    0    0    0 -0.00000000000E+00 -0.00000000000E+00 -0.45593999997E+02  0.45594000000E+02  0.51100000000E-03 0. -1.
    9900012    2    1    2    0    0  0.30704639417E+02 -0.68322515721E+00 -0.32952568588E+02  0.46142318133E+02  0.10000003387E+02 0.  0.
        -12    1    1    2    0    0 -0.30704639417E+02  0.68322515721E+00  0.32952568588E+02  0.45045681867E+02  0.00000000000E+00 0.  1.
         11    1    3    3    0    0  0.13269523596E+02  0.29237709595E+00 -0.14789989868E+02  0.19872331051E+02  0.51100000000E-03 0. -1.
        -11    1    3    3    0    0  0.56932172032E+01  0.30171471624E+01 -0.77314180159E+01  0.10064329283E+02  0.51100000000E-03 0.  1.
        -12    1    3    3    0    0  0.11741898618E+02 -0.39927494156E+01 -0.10431160704E+02  0.16205657799E+02  0.00000000000E+00 0.  1.
</event>
<event>
 7    1  0.3708346E-009  0.4614232E+02  0.7816164E-02  0.1320468E+00
        -11   -1    0    0    0    0  0.00000000000E+00  0.00000000000E+00  0.45593999997E+02  0.45594000000E+02  0.51100000000E-03 0.  1.
         11   -1    0    0    0    0 -0.00000000000E+00 -0.00000000000E+00 -0.45593999997E+02  0.45594000000E+02  0.51100000000E-03 0. -1.
    9900012    2    1    2    0    0 -0.23951500751E+02  0.34897226408E+02 -0.15415011563E+02  0.46142318956E+02  0.10000010895E+02 0.  0.
        -12    1    1    2    0    0  0.23951500751E+02 -0.34897226408E+02  0.15415011563E+02  0.45045681044E+02  0.00000000000E+00 0.  1.
         11    1    3    3    0    0 -0.13959890565E+01  0.34340209967E+01 -0.33374399973E+01  0.49879646800E+01  0.51100000000E-03 0. -1.
        -11    1    3    3    0    0 -0.33385302560E+01  0.35794460311E+01  0.73022652027E+00  0.49488836309E+01  0.51100000000E-03 0.  1.
         12    1    3    3    0    0 -0.19216981439E+02  0.27883759381E+02 -0.12807798086E+02  0.36205470645E+02  0.00000000000E+00 0. -1.
</event>
<event>
 7    1  0.3708346E-009  0.4614232E+02  0.7816164E-02  0.1320468E+00
        -11   -1    0    0    0    0  0.00000000000E+00  0.00000000000E+00  0.45593999997E+02  0.45594000000E+02  0.51100000000E-03 0.  1.
         11   -1    0    0    0    0 -0.00000000000E+00 -0.00000000000E+00 -0.45593999997E+02  0.45594000000E+02  0.51100000000E-03 0. -1.
    9900012    2    1    2    0    0 -0.77312052331E+01  0.44115836683E+02 -0.48098748581E+01  0.46142317890E+02  0.10000001175E+02 0.  0.
        -12    1    1    2    0    0  0.77312052331E+01 -0.44115836683E+02  0.48098748581E+01  0.45045682110E+02  0.00000000000E+00 0.  1.
         11    1    3    3    0    0 -0.65318404938E+01  0.18801673335E+02 -0.47036151053E+01  0.20452184621E+02  0.51100000000E-03 0. -1.
        -11    1    3    3    0    0 -0.17109717020E+01  0.18055295178E+02  0.16290864621E+01  0.18209201825E+02  0.51100000000E-03 0.  1.
         12    1    3    3    0    0  0.51160696274E+00  0.72588681694E+01 -0.17353462149E+01  0.74809314440E+01  0.00000000000E+00 0. -1.
</event>
<event>
 7    1  0.3708346E-009  0.4614232E+02  0.7816164E-02  0.1320468E+00
        -11   -1    0    0    0    0  0.00000000000E+00  0.00000000000E+00  0.45593999997E+02  0.45594000000E+02  0.51100000000E-03 0.  1.
         11   -1    0    0    0    0 -0.00000000000E+00 -0.00000000000E+00 -0.45593999997E+02  0.45594000000E+02  0.51100000000E-03 0. -1.
    9900012    2    1    2    0    0 -0.46674521713E+01 -0.36734511078E+01 -0.44652372110E+02  0.46142315547E+02  0.99999798108E+01 0.  0.
        -12    1    1    2    0    0  0.46674521713E+01  0.36734511078E+01  0.44652372110E+02  0.45045684453E+02  0.00000000000E+00 0.  1.
         11    1    3    3    0    0 -0.15021593145E+01 -0.16583052540E+00 -0.46852487980E+01  0.49229603827E+01  0.51100000000E-03 0. -1.
        -11    1    3    3    0    0 -0.50342124595E+01 -0.19980399491E+01 -0.37033833622E+02  0.37427801054E+02  0.51100000000E-03 0.  1.
        -12    1    3    3    0    0  0.18689196027E+01 -0.15095806334E+01 -0.29332896899E+01  0.37915541108E+01  0.00000000000E+00 0.  1.
</event>
<event>
 7    1  0.3708346E-009  0.4614232E+02  0.7816164E-02  0.1320468E+00
        -11   -1    0    0    0    0  0.00000000000E+00  0.00000000000E+00  0.45593999997E+02  0.45594000000E+02  0.51100000000E-03 0.  1.
         11   -1    0    0    0    0 -0.00000000000E+00 -0.00000000000E+00 -0.45593999997E+02  0.45594000000E+02  0.51100000000E-03 0. -1.
    9900012    2    1    2    0    0  0.32233917672E+02  0.26328722431E+02 -0.17230391312E+02  0.46142318097E+02  0.10000003062E+02 0.  0.
        -12    1    1    2    0    0 -0.32233917672E+02 -0.26328722431E+02  0.17230391312E+02  0.45045681903E+02  0.00000000000E+00 0.  1.
         11    1    3    3    0    0  0.12709284941E+02  0.68693355956E+01 -0.55362404863E+01  0.15471381781E+02  0.51100000000E-03 0. -1.
        -11    1    3    3    0    0  0.15899448553E+02  0.11658693163E+02 -0.74229621125E+01  0.21066987382E+02  0.51100000000E-03 0.  1.
        -12    1    3    3    0    0  0.36251841780E+01  0.78006936727E+01 -0.42711887134E+01  0.96039489339E+01  0.00000000000E+00 0.  1.
</event>
<event>
 7    1  0.3708346E-009  0.4614232E+02  0.7816164E-02  0.1320468E+00
        -11   -1    0    0    0    0  0.00000000000E+00  0.00000000000E+00  0.45593999997E+02  0.45594000000E+02  0.51100000000E-03 0.  1.
         11   -1    0    0    0    0 -0.00000000000E+00 -0.00000000000E+00 -0.45593999997E+02  0.45594000000E+02  0.51100000000E-03 0. -1.
    9900012    2    1    2    0    0 -0.41806604104E+02  0.87795471097E+01 -0.14291282769E+02  0.46142319215E+02  0.10000013259E+02 0.  0.
        -12    1    1    2    0    0  0.41806604104E+02 -0.87795471097E+01  0.14291282769E+02  0.45045680785E+02  0.00000000000E+00 0.  1.
         11    1    3    3    0    0 -0.31471910298E+02  0.73995131225E+01 -0.13412210035E+02  0.35001732965E+02  0.51100000000E-03 0. -1.
        -11    1    3    3    0    0 -0.73196813695E+01  0.26462910543E+01 -0.12361600914E+00  0.77843350951E+01  0.51100000000E-03 0.  1.
        -12    1    3    3    0    0 -0.30150124370E+01 -0.12662570671E+01 -0.75545672491E+00  0.33562511555E+01  0.00000000000E+00 0.  1.
</event>
<event>
 7    1  0.3708346E-009  0.4614231E+02  0.7816164E-02  0.1320468E+00
        -11   -1    0    0    0    0  0.00000000000E+00  0.00000000000E+00  0.45593999997E+02  0.45594000000E+02  0.51100000000E-03 0.  1.
         11   -1    0    0    0    0 -0.00000000000E+00 -0.00000000000E+00 -0.45593999997E+02  0.45594000000E+02  0.51100000000E-03 0. -1.
    9900012    2    1    2    0    0 -0.15210343190E+02  0.54713879682E+01 -0.42045493588E+02  0.46142310336E+02  0.99999322931E+01 0.  0.
        -12    1    1    2    0    0  0.15210343190E+02 -0.54713879682E+01  0.42045493588E+02  0.45045689664E+02  0.00000000000E+00 0.  1.
         11    1    3    3    0    0 -0.12297011728E+02  0.58328720607E+01 -0.33564473674E+02  0.36218956186E+02  0.51100000000E-03 0. -1.
        -11    1    3    3    0    0 -0.18043595238E+01  0.18188355654E+01 -0.54980067476E+01  0.60656371935E+01  0.51100000000E-03 0.  1.
         12    1    3    3    0    0 -0.11089719386E+01 -0.21803196579E+01 -0.29830131661E+01  0.38577169570E+01  0.00000000000E+00 0. -1.
</event>
<event>
 7    1  0.3708346E-009  0.4614232E+02  0.7816164E-02  0.1320468E+00
        -11   -1    0    0    0    0  0.00000000000E+00  0.00000000000E+00  0.45593999997E+02  0.45594000000E+02  0.51100000000E-03 0. -1.
         11   -1    0    0    0    0 -0.00000000000E+00 -0.00000000000E+00 -0.45593999997E+02  0.45594000000E+02  0.51100000000E-03 0.  1.
    9900012    2    1    2    0    0 -0.27284934692E+02 -0.33664486861E+02 -0.12302366065E+02  0.46142317104E+02  0.99999940041E+01 0.  0.
        -12    1    1    2    0    0  0.27284934692E+02  0.33664486861E+02  0.12302366065E+02  0.45045682896E+02  0.00000000000E+00 0.  1.
         11    1    3    3    0    0 -0.12425961231E+02 -0.12144055461E+02 -0.45144842893E+01  0.17951689731E+02  0.51100000000E-03 0. -1.
        -11    1    3    3    0    0 -0.52251973825E+01 -0.25446140258E+01 -0.17368704238E+01  0.60658443235E+01  0.51100000000E-03 0.  1.
        -12    1    3    3    0    0 -0.96337760793E+01 -0.18975817375E+02 -0.60510113518E+01  0.22124783049E+02  0.00000000000E+00 0.  1.
</event>
<event>
 7    1  0.3708346E-009  0.4614231E+02  0.7816164E-02  0.1320468E+00
        -11   -1    0    0    0    0  0.00000000000E+00  0.00000000000E+00  0.45593999997E+02  0.45594000000E+02  0.51100000000E-03 0.  1.
         11   -1    0    0    0    0 -0.00000000000E+00 -0.00000000000E+00 -0.45593999997E+02  0.45594000000E+02  0.51100000000E-03 0. -1.
    9900012    2    1    2    0    0 -0.25043458048E+02 -0.34251374984E+01 -0.37285485036E+02  0.46142314832E+02  0.99999732868E+01 0.  0.
        -12    1    1    2    0    0  0.25043458048E+02  0.34251374984E+01  0.37285485036E+02  0.45045685168E+02  0.00000000000E+00 0.  1.
         11    1    3    3    0    0 -0.14574285087E+01 -0.11516720375E+00 -0.12784687656E+01  0.19421235770E+01  0.51100000000E-03 0. -1.
        -11    1    3    3    0    0  0.64909652501E+00  0.59146949481E+00 -0.25999927086E+01  0.27442894905E+01  0.51100000000E-03 0.  1.
        -12    1    3    3    0    0 -0.24235126065E+02 -0.39014397895E+01 -0.33407023562E+02  0.41455901764E+02  0.00000000000E+00 0.  1.
</event>
<event>
 7    1  0.3708346E-009  0.4614232E+02  0.7816164E-02  0.1320468E+00
        -11   -1    0    0    0    0  0.00000000000E+00  0.00000000000E+00  0.45593999997E+02  0.45594000000E+02  0.51100000000E-03 0.  1.
         11   -1    0    0    0    0 -0.00000000000E+00 -0.00000000000E+00 -0.45593999997E+02  0.45594000000E+02  0.51100000000E-03 0. -1.
    9900012    2    1    2    0    0  0.15646823066E+02  0.21012665441E+02 -0.36643666102E+02  0.46142318227E+02  0.10000004246E+02 0.  0.
        -12    1    1    2    0    0 -0.15646823066E+02 -0.21012665441E+02  0.36643666102E+02  0.45045681773E+02  0.00000000000E+00 0.  1.
         11    1    3    3    0    0  0.63310344798E+01  0.13382942719E+02 -0.21411160969E+02  0.26031192207E+02  0.51100000000E-03 0. -1.
        -11    1    3    3    0    0  0.89835855911E+01  0.56260223706E+01 -0.14480072053E+02  0.17945178314E+02  0.51100000000E-03 0.  1.
         12    1    3    3    0    0  0.33220299496E+00  0.20037003507E+01 -0.75243308069E+00  0.21659477063E+01  0.00000000000E+00 0. -1.
</event>
<event>
 7    1  0.3708346E-009  0.4614232E+02  0.7816164E-02  0.1320468E+00
        -11   -1    0    0    0    0  0.00000000000E+00  0.00000000000E+00  0.45593999997E+02  0.45594000000E+02  0.51100000000E-03 0. -1.
         11   -1    0    0    0    0 -0.00000000000E+00 -0.00000000000E+00 -0.45593999997E+02  0.45594000000E+02  0.51100000000E-03 0.  1.
    9900012    2    1    2    0    0 -0.21226994853E+02 -0.32317953550E+02  0.23110128039E+02  0.46142318186E+02  0.10000003872E+02 0.  0.
        -12    1    1    2    0    0  0.21226994853E+02  0.32317953550E+02 -0.23110128039E+02  0.45045681814E+02  0.00000000000E+00 0.  1.
         11    1    3    3    0    0 -0.56652873004E+01 -0.62339314569E+01  0.64067686903E+01  0.10583197386E+02  0.51100000000E-03 0. -1.
        -11    1    3    3    0    0 -0.14219440774E+02 -0.25139271705E+02  0.13334582643E+02  0.31811736393E+02  0.51100000000E-03 0.  1.
        -12    1    3    3    0    0 -0.13422667786E+01 -0.94475038789E+00  0.33687767056E+01  0.37473844068E+01  0.00000000000E+00 0.  1.
</event>
<event>
 7    1  0.3708346E-009  0.4614232E+02  0.7816164E-02  0.1320468E+00
        -11   -1    0    0    0    0  0.00000000000E+00  0.00000000000E+00  0.45593999997E+02  0.45594000000E+02  0.51100000000E-03 0.  1.
         11   -1    0    0    0    0 -0.00000000000E+00 -0.00000000000E+00 -0.45593999997E+02  0.45594000000E+02  0.51100000000E-03 0. -1.
    9900012    2    1    2    0    0  0.25194032803E+02  0.20144725074E+02 -0.31441441622E+02  0.46142317760E+02  0.99999999888E+01 0.  0.
        -12    1    1    2    0    0 -0.25194032803E+02 -0.20144725074E+02  0.31441441622E+02  0.45045682240E+02  0.00000000000E+00 0.  1.
         11    1    3    3    0    0  0.11261972879E+02  0.10340635778E+02 -0.20161939898E+02  0.25303450400E+02  0.51100000000E-03 0. -1.
        -11    1    3    3    0    0  0.27003186377E+01  0.13876424873E+00 -0.16832311601E+01  0.31850029295E+01  0.51100000000E-03 0.  1.
        -12    1    3    3    0    0  0.11231741286E+02  0.96653250469E+01 -0.95962705643E+01  0.17653864431E+02  0.00000000000E+00 0.  1.
</event>
<event>
 7    1  0.3708346E-009  0.4614232E+02  0.7816164E-02  0.1320468E+00
        -11   -1    0    0    0    0  0.00000000000E+00  0.00000000000E+00  0.45593999997E+02  0.45594000000E+02  0.51100000000E-03 0.  1.
         11   -1    0    0    0    0 -0.00000000000E+00 -0.00000000000E+00 -0.45593999997E+02  0.45594000000E+02  0.51100000000E-03 0. -1.
    9900012    2    1    2    0    0 -0.16976921772E+02 -0.36053492271E+02 -0.21001028346E+02  0.46142319082E+02  0.10000012043E+02 0.  0.
        -12    1    1    2    0    0  0.16976921772E+02  0.36053492271E+02  0.21001028346E+02  0.45045680918E+02  0.00000000000E+00 0.  1.
         11    1    3    3    0    0 -0.12064598388E+02 -0.18637759996E+02 -0.12815516784E+02  0.25635095136E+02  0.51100000000E-03 0. -1.
        -11    1    3    3    0    0  0.63737632514E+00 -0.13352014263E+00 -0.29723171334E+00  0.71583738438E+00  0.51100000000E-03 0.  1.
        -12    1    3    3    0    0 -0.55496997092E+01 -0.17282212132E+02 -0.78882798491E+01  0.19791386562E+02  0.00000000000E+00 0.  1.
</event>
<event>
 7    1  0.3708346E-009  0.4614232E+02  0.7816164E-02  0.1320468E+00
        -11   -1    0    0    0    0  0.00000000000E+00  0.00000000000E+00  0.45593999997E+02  0.45594000000E+02  0.51100000000E-03 0.  1.
         11   -1    0    0    0    0 -0.00000000000E+00 -0.00000000000E+00 -0.45593999997E+02  0.45594000000E+02  0.51100000000E-03 0. -1.
    9900012    2    1    2    0    0  0.30398267569E+02  0.27948769541E+02 -0.17997920004E+02  0.46142317471E+02  0.99999973526E+01 0.  0.
        -12    1    1    2    0    0 -0.30398267569E+02 -0.27948769541E+02  0.17997920004E+02  0.45045682529E+02  0.00000000000E+00 0.  1.
         11    1    3    3    0    0  0.18775275542E+02  0.18195543557E+02 -0.15227938019E+02  0.30256881426E+02  0.51100000000E-03 0. -1.
        -11    1    3    3    0    0  0.56609438124E+01  0.71892668213E+01 -0.15095725504E+01  0.92741927854E+01  0.51100000000E-03 0.  1.
         12    1    3    3    0    0  0.59620482140E+01  0.25639591626E+01 -0.12604094342E+01  0.66112432595E+01  0.00000000000E+00 0. -1.
</event>
<event>
 7    1  0.3708346E-009  0.4614232E+02  0.7816164E-02  0.1320468E+00
        -11   -1    0    0    0    0  0.00000000000E+00  0.00000000000E+00  0.45593999997E+02  0.45594000000E+02  0.51100000000E-03 0.  1.
         11   -1    0    0    0    0 -0.00000000000E+00 -0.00000000000E+00 -0.45593999997E+02  0.45594000000E+02  0.51100000000E-03 0. -1.
    9900012    2    1    2    0    0  0.41708072488E+02 -0.16705324961E+02  0.32376376526E+01  0.46142317740E+02  0.99999998055E+01 0.  0.
        -12    1    1    2    0    0 -0.41708072488E+02  0.16705324961E+02 -0.32376376526E+01  0.45045682260E+02  0.00000000000E+00 0.  1.
         11    1    3    3    0    0  0.24576198336E+02 -0.60661814706E+01  0.40030408902E+01  0.25628351857E+02  0.51100000000E-03 0. -1.
        -11    1    3    3    0    0  0.85849383605E+01 -0.52120924877E+01 -0.22198260335E+01  0.10285655187E+02  0.51100000000E-03 0.  1.
        -12    1    3    3    0    0  0.85469357921E+01 -0.54270510025E+01  0.14544227959E+01  0.10228310696E+02  0.00000000000E+00 0.  1.
</event>
<event>
 7    1  0.3708346E-009  0.4614232E+02  0.7816164E-02  0.1320468E+00
        -11   -1    0    0    0    0  0.00000000000E+00  0.00000000000E+00  0.45593999997E+02  0.45594000000E+02  0.51100000000E-03 0. -1.
         11   -1    0    0    0    0 -0.00000000000E+00 -0.00000000000E+00 -0.45593999997E+02  0.45594000000E+02  0.51100000000E-03 0.  1.
    9900012    2    1    2    0    0 -0.36924975824E+01 -0.35770864990E+01  0.44751351643E+02  0.46142316965E+02  0.99999927416E+01 0.  0.
        -12    1    1    2    0    0  0.36924975824E+01  0.35770864990E+01 -0.44751351643E+02  0.45045683035E+02  0.00000000000E+00 0.  1.
         11    1    3    3    0    0  0.56922707639E+00  0.25308443480E+01  0.10048991196E+02  0.10378411097E+02  0.51100000000E-03 0. -1.
        -11    1    3    3    0    0 -0.28926361540E+01 -0.63896801979E+01  0.25146468277E+02  0.26106325364E+02  0.51100000000E-03 0.  1.
        -12    1    3    3    0    0 -0.13690885048E+01  0.28174935085E+00  0.95558921703E+01  0.96575805045E+01  0.00000000000E+00 0.  1.
</event>
<event>
 7    1  0.3708346E-009  0.4614232E+02  0.7816164E-02  0.1320468E+00
        -11   -1    0    0    0    0  0.00000000000E+00  0.00000000000E+00  0.45593999997E+02  0.45594000000E+02  0.51100000000E-03 0. -1.
         11   -1    0    0    0    0 -0.00000000000E+00 -0.00000000000E+00 -0.45593999997E+02  0.45594000000E+02  0.51100000000E-03 0.  1.
    9900012    2    1    2    0    0  0.22179506757E+02  0.21423794892E+02  0.32836017287E+02  0.46142317201E+02  0.99999948917E+01 0.  0.
        -12    1    1    2    0    0 -0.22179506757E+02 -0.21423794892E+02 -0.32836017287E+02  0.45045682799E+02  0.00000000000E+00 0.  1.
         11    1    3    3    0    0 -0.41941719292E+00  0.98396606720E+00  0.70069578619E+00  0.12787004532E+01  0.51100000000E-03 0. -1.
        -11    1    3    3    0    0  0.82042045570E+01  0.88453422669E+01  0.80504266095E+01  0.14503738176E+02  0.51100000000E-03 0.  1.
         12    1    3    3    0    0  0.14394719393E+02  0.11594486558E+02  0.24084894891E+02  0.30359878571E+02  0.00000000000E+00 0. -1.
</event>
<event>
 7    1  0.3708346E-009  0.4614232E+02  0.7816164E-02  0.1320468E+00
        -11   -1    0    0    0    0  0.00000000000E+00  0.00000000000E+00  0.45593999997E+02  0.45594000000E+02  0.51100000000E-03 0. -1.
         11   -1    0    0    0    0 -0.00000000000E+00 -0.00000000000E+00 -0.45593999997E+02  0.45594000000E+02  0.51100000000E-03 0.  1.
    9900012    2    1    2    0    0  0.27967705585E+02  0.17982387579E+02  0.30390045990E+02  0.46142315257E+02  0.99999771643E+01 0.  0.
        -12    1    1    2    0    0 -0.27967705585E+02 -0.17982387579E+02 -0.30390045990E+02  0.45045684743E+02  0.00000000000E+00 0.  1.
         11    1    3    3    0    0  0.18712764705E+02  0.12213235441E+02  0.22703849304E+02  0.31855854349E+02  0.51100000000E-03 0. -1.
        -11    1    3    3    0    0  0.75150780053E+01  0.57726577354E+01  0.41494943429E+01  0.10344963911E+02  0.51100000000E-03 0.  1.
        -12    1    3    3    0    0  0.17398628750E+01 -0.35055982454E-02  0.35367023426E+01  0.39414969965E+01  0.00000000000E+00 0.  1.
</event>
<event>
 7    1  0.3708346E-009  0.4614232E+02  0.7816164E-02  0.1320468E+00
        -11   -1    0    0    0    0  0.00000000000E+00  0.00000000000E+00  0.45593999997E+02  0.45594000000E+02  0.51100000000E-03 0.  1.
         11   -1    0    0    0    0 -0.00000000000E+00 -0.00000000000E+00 -0.45593999997E+02  0.45594000000E+02  0.51100000000E-03 0. -1.
    9900012    2    1    2    0    0 -0.41125820864E+02  0.13060792611E+02 -0.12930433214E+02  0.46142317094E+02  0.99999939184E+01 0.  0.
        -12    1    1    2    0    0  0.41125820864E+02 -0.13060792611E+02  0.12930433214E+02  0.45045682906E+02  0.00000000000E+00 0.  1.
         11    1    3    3    0    0 -0.76111845131E+01  0.53126245168E+01 -0.45091588528E+01  0.10319235571E+02  0.51100000000E-03 0. -1.
        -11    1    3    3    0    0 -0.22420450216E+02  0.25718667297E+01 -0.58553987022E+01  0.23314733123E+02  0.51100000000E-03 0.  1.
        -12    1    3    3    0    0 -0.11094186134E+02  0.51763013645E+01 -0.25658756591E+01  0.12508348400E+02  0.00000000000E+00 0.  1.
</event>
<event>
 7    1  0.3708346E-009  0.4614232E+02  0.7816164E-02  0.1320468E+00
        -11   -1    0    0    0    0  0.00000000000E+00  0.00000000000E+00  0.45593999997E+02  0.45594000000E+02  0.51100000000E-03 0.  1.
         11   -1    0    0    0    0 -0.00000000000E+00 -0.00000000000E+00 -0.45593999997E+02  0.45594000000E+02  0.51100000000E-03 0. -1.
    9900012    2    1    2    0    0  0.38077702560E+02 -0.19033373003E+02 -0.14728635282E+02  0.46142318549E+02  0.10000007183E+02 0.  0.
        -12    1    1    2    0    0 -0.38077702560E+02  0.19033373003E+02  0.14728635282E+02  0.45045681451E+02  0.00000000000E+00 0.  1.
         11    1    3    3    0    0  0.32084823396E+02 -0.14191328927E+02 -0.10970646895E+02  0.36758465727E+02  0.51100000000E-03 0. -1.
        -11    1    3    3    0    0  0.32149351746E+01 -0.75410098128E+00 -0.22768564206E+00  0.33100328517E+01  0.51100000000E-03 0.  1.
         12    1    3    3    0    0  0.27779439897E+01 -0.40879430946E+01 -0.35303027450E+01  0.60738199698E+01  0.00000000000E+00 0. -1.
</event>
<event>
 7    1  0.3708346E-009  0.4614232E+02  0.7816164E-02  0.1320468E+00
        -11   -1    0    0    0    0  0.00000000000E+00  0.00000000000E+00  0.45593999997E+02  0.45594000000E+02  0.51100000000E-03 0.  1.
         11   -1    0    0    0    0 -0.00000000000E+00 -0.00000000000E+00 -0.45593999997E+02  0.45594000000E+02  0.51100000000E-03 0. -1.
    9900012    2    1    2    0    0  0.86063352279E+01 -0.43188712188E+02 -0.94752102621E+01  0.46142317898E+02  0.10000001247E+02 0.  0.
        -12    1    1    2    0    0 -0.86063352279E+01  0.43188712188E+02  0.94752102621E+01  0.45045682102E+02  0.00000000000E+00 0.  1.
         11    1    3    3    0    0  0.16294824615E+01 -0.16518372524E+02  0.22288016529E+00  0.16600045776E+02  0.51100000000E-03 0. -1.
        -11    1    3    3    0    0  0.45219676253E+01 -0.92162178240E+01 -0.40112923773E+01  0.11021675416E+02  0.51100000000E-03 0.  1.
         12    1    3    3    0    0  0.24548851411E+01 -0.17454121841E+02 -0.56867980501E+01  0.18520596706E+02  0.00000000000E+00 0. -1.
</event>
<event>
 7    1  0.3708346E-009  0.4614232E+02  0.7816164E-02  0.1320468E+00
        -11   -1    0    0    0    0  0.00000000000E+00  0.00000000000E+00  0.45593999997E+02  0.45594000000E+02  0.51100000000E-03 0. -1.
         11   -1    0    0    0    0 -0.00000000000E+00 -0.00000000000E+00 -0.45593999997E+02  0.45594000000E+02  0.51100000000E-03 0.  1.
    9900012    2    1    2    0    0  0.10790880846E+02 -0.43617613408E+02  0.31896983450E+01  0.46142317805E+02  0.10000000404E+02 0.  0.
        -12    1    1    2    0    0 -0.10790880846E+02  0.43617613408E+02 -0.31896983450E+01  0.45045682195E+02  0.00000000000E+00 0.  1.
         11    1    3    3    0    0  0.23722079084E+01 -0.18117820243E+02 -0.65450538712E+00  0.18284177812E+02  0.51100000000E-03 0. -1.
        -11    1    3    3    0    0  0.15697617232E+01 -0.11762551153E+02  0.39528112007E+01  0.12507856657E+02  0.51100000000E-03 0.  1.
        -12    1    3    3    0    0  0.68489112147E+01 -0.13737242012E+02 -0.10860746864E+00  0.15350283337E+02  0.00000000000E+00 0.  1.
</event>
<event>
 7    1  0.3708346E-009  0.4614232E+02  0.7816164E-02  0.1320468E+00
        -11   -1    0    0    0    0  0.00000000000E+00  0.00000000000E+00  0.45593999997E+02  0.45594000000E+02  0.51100000000E-03 0.  1.
         11   -1    0    0    0    0 -0.00000000000E+00 -0.00000000000E+00 -0.45593999997E+02  0.45594000000E+02  0.51100000000E-03 0. -1.
    9900012    2    1    2    0    0 -0.15469251756E+02 -0.35525758000E+02 -0.22972511926E+02  0.46142317238E+02  0.99999952272E+01 0.  0.
        -12    1    1    2    0    0  0.15469251756E+02  0.35525758000E+02  0.22972511926E+02  0.45045682762E+02  0.00000000000E+00 0.  1.
         11    1    3    3    0    0 -0.61322002155E+01 -0.14673825877E+02 -0.75717822783E+01  0.17614111743E+02  0.51100000000E-03 0. -1.
        -11    1    3    3    0    0 -0.54337413092E+01 -0.18843586255E+02 -0.12215482043E+02  0.23104637832E+02  0.51100000000E-03 0.  1.
        -12    1    3    3    0    0 -0.39033102315E+01 -0.20083458673E+01 -0.31852476049E+01  0.54235676626E+01  0.00000000000E+00 0.  1.
</event>
<event>
 7    1  0.3708346E-009  0.4614232E+02  0.7816164E-02  0.1320468E+00
        -11   -1    0    0    0    0  0.00000000000E+00  0.00000000000E+00  0.45593999997E+02  0.45594000000E+02  0.51100000000E-03 0. -1.
         11   -1    0    0    0    0 -0.00000000000E+00 -0.00000000000E+00 -0.45593999997E+02  0.45594000000E+02  0.51100000000E-03 0.  1.
    9900012    2    1    2    0    0  0.37227907446E+02  0.24448438734E+02 -0.67431705419E+01  0.46142316540E+02  0.99999888692E+01 0.  0.
        -12    1    1    2    0    0 -0.37227907446E+02 -0.24448438734E+02  0.67431705419E+01  0.45045683460E+02  0.00000000000E+00 0.  1.
         11    1    3    3    0    0  0.11106732749E+02  0.54528507793E+01 -0.42803748866E+01  0.13092543809E+02  0.51100000000E-03 0.  1.
        -11    1    3    3    0    0  0.14882713698E+02  0.11264848863E+02  0.18169689910E+01  0.18753489369E+02  0.51100000000E-03 0. -1.
        -12    1    3    3    0    0  0.11238461000E+02  0.77307390921E+01 -0.42797646463E+01  0.14296283363E+02  0.00000000000E+00 0.  1.
</event>
<event>
 7    1  0.3708346E-009  0.4614232E+02  0.7816164E-02  0.1320468E+00
        -11   -1    0    0    0    0  0.00000000000E+00  0.00000000000E+00  0.45593999997E+02  0.45594000000E+02  0.51100000000E-03 0.  1.
         11   -1    0    0    0    0 -0.00000000000E+00 -0.00000000000E+00 -0.45593999997E+02  0.45594000000E+02  0.51100000000E-03 0. -1.
    9900012    2    1    2    0    0 -0.36044034103E+02  0.14855147218E+02 -0.22566913037E+02  0.46142319216E+02  0.10000013265E+02 0.  0.
        -12    1    1    2    0    0  0.36044034103E+02 -0.14855147218E+02  0.22566913037E+02  0.45045680784E+02  0.00000000000E+00 0.  1.
         11    1    3    3    0    0 -0.29461004090E+02  0.10792833783E+02 -0.17708292544E+02  0.36028039749E+02  0.51100000000E-03 0. -1.
        -11    1    3    3    0    0 -0.44831991198E+01  0.43237982847E+01 -0.50091757966E+01  0.79928811062E+01  0.51100000000E-03 0.  1.
         12    1    3    3    0    0 -0.20998308929E+01 -0.26148484936E+00  0.15055530367E+00  0.21213983607E+01  0.00000000000E+00 0. -1.
</event>
<event>
 7    1  0.3708346E-009  0.4614232E+02  0.7816164E-02  0.1320468E+00
        -11   -1    0    0    0    0  0.00000000000E+00  0.00000000000E+00  0.45593999997E+02  0.45594000000E+02  0.51100000000E-03 0. -1.
         11   -1    0    0    0    0 -0.00000000000E+00 -0.00000000000E+00 -0.45593999997E+02  0.45594000000E+02  0.51100000000E-03 0.  1.
    9900012    2    1    2    0    0 -0.80746893973E+01 -0.38120331281E+02  0.22599848037E+02  0.46142318774E+02  0.10000009233E+02 0.  0.
        -12    1    1    2    0    0  0.80746893973E+01  0.38120331281E+02 -0.22599848037E+02  0.45045681226E+02  0.00000000000E+00 0.  1.
         11    1    3    3    0    0  0.66742680428E+00 -0.65541875806E+01  0.11160712118E+01  0.66819494605E+01  0.51100000000E-03 0. -1.
        -11    1    3    3    0    0 -0.39071946404E+01 -0.12489731333E+02  0.11360185153E+02  0.17329551803E+02  0.51100000000E-03 0.  1.
         12    1    3    3    0    0 -0.48349215612E+01 -0.19076412367E+02  0.10123591672E+02  0.22130817510E+02  0.00000000000E+00 0. -1.
</event>
<event>
 7    1  0.3708346E-009  0.4614232E+02  0.7816164E-02  0.1320468E+00
        -11   -1    0    0    0    0  0.00000000000E+00  0.00000000000E+00  0.45593999997E+02  0.45594000000E+02  0.51100000000E-03 0.  1.
         11   -1    0    0    0    0 -0.00000000000E+00 -0.00000000000E+00 -0.45593999997E+02  0.45594000000E+02  0.51100000000E-03 0. -1.
    9900012    2    1    2    0    0  0.33360720609E+02  0.28993383612E+02 -0.86924902141E+01  0.46142319197E+02  0.10000013095E+02 0.  0.
        -12    1    1    2    0    0 -0.33360720609E+02 -0.28993383612E+02  0.86924902141E+01  0.45045680803E+02  0.00000000000E+00 0.  1.
         11    1    3    3    0    0  0.84919028158E+01  0.73327215438E+01 -0.47190663981E+01  0.12171721596E+02  0.51100000000E-03 0. -1.
        -11    1    3    3    0    0  0.15921978688E+02  0.91772607275E+01 -0.20039234138E+01  0.18486406604E+02  0.51100000000E-03 0.  1.
        -12    1    3    3    0    0  0.89468391051E+01  0.12483401341E+02 -0.19695004023E+01  0.15484190998E+02  0.00000000000E+00 0.  1.
</event>
<event>
 7    1  0.3708346E-009  0.4614232E+02  0.7816164E-02  0.1320468E+00
        -11   -1    0    0    0    0  0.00000000000E+00  0.00000000000E+00  0.45593999997E+02  0.45594000000E+02  0.51100000000E-03 0.  1.
         11   -1    0    0    0    0 -0.00000000000E+00 -0.00000000000E+00 -0.45593999997E+02  0.45594000000E+02  0.51100000000E-03 0. -1.
    9900012    2    1    2    0    0 -0.18464669108E+02  0.40360599768E+02 -0.76936040103E+01  0.46142316948E+02  0.99999925869E+01 0.  0.
        -12    1    1    2    0    0  0.18464669108E+02 -0.40360599768E+02  0.76936040103E+01  0.45045683052E+02  0.00000000000E+00 0.  1.
         11    1    3    3    0    0 -0.10857236389E+02  0.27145159150E+02 -0.45906986830E+01  0.29594150806E+02  0.51100000000E-03 0. -1.
        -11    1    3    3    0    0 -0.14850811134E+01  0.81214120882E+01 -0.10433596004E+01  0.83217425902E+01  0.51100000000E-03 0.  1.
         12    1    3    3    0    0 -0.61223516059E+01  0.50940285302E+01 -0.20595457268E+01  0.82264235518E+01  0.00000000000E+00 0. -1.
</event>
<event>
 7    1  0.3708346E-009  0.4614232E+02  0.7816164E-02  0.1320468E+00
        -11   -1    0    0    0    0  0.00000000000E+00  0.00000000000E+00  0.45593999997E+02  0.45594000000E+02  0.51100000000E-03 0. -1.
         11   -1    0    0    0    0 -0.00000000000E+00 -0.00000000000E+00 -0.45593999997E+02  0.45594000000E+02  0.51100000000E-03 0.  1.
    9900012    2    1    2    0    0 -0.13737465744E+02 -0.11478443218E+02  0.41335708182E+02  0.46142318801E+02  0.10000009485E+02 0.  0.
        -12    1    1    2    0    0  0.13737465744E+02  0.11478443218E+02 -0.41335708182E+02  0.45045681199E+02  0.00000000000E+00 0.  1.
         11    1    3    3    0    0 -0.80584575411E+01 -0.54804301619E+01  0.22117288812E+02  0.24169160461E+02  0.51100000000E-03 0. -1.
        -11    1    3    3    0    0 -0.11233988816E+00 -0.18014516052E+01  0.32413936975E+00  0.18338251630E+01  0.51100000000E-03 0.  1.
        -12    1    3    3    0    0 -0.55666683150E+01 -0.41965614504E+01  0.18894280000E+02  0.20139333178E+02  0.00000000000E+00 0.  1.
</event>
<event>
 7    1  0.3708346E-009  0.4614232E+02  0.7816164E-02  0.1320468E+00
        -11   -1    0    0    0    0  0.00000000000E+00  0.00000000000E+00  0.45593999997E+02  0.45594000000E+02  0.51100000000E-03 0. -1.
         11   -1    0    0    0    0 -0.00000000000E+00 -0.00000000000E+00 -0.45593999997E+02  0.45594000000E+02  0.51100000000E-03 0.  1.
    9900012    2    1    2    0    0  0.34839835286E+02 -0.13067976418E+02  0.25387543436E+02  0.46142317719E+02  0.99999996189E+01 0.  0.
        -12    1    1    2    0    0 -0.34839835286E+02  0.13067976418E+02 -0.25387543436E+02  0.45045682281E+02  0.00000000000E+00 0.  1.
         11    1    3    3    0    0  0.10125992383E+02 -0.33759679253E+00  0.57012744243E+01  0.11625584874E+02  0.51100000000E-03 0. -1.
        -11    1    3    3    0    0  0.67378075738E+01 -0.24419019979E+01  0.24594972171E+01  0.75769428592E+01  0.51100000000E-03 0.  1.
        -12    1    3    3    0    0  0.17976035329E+02 -0.10288477627E+02  0.17226771794E+02  0.26939789986E+02  0.00000000000E+00 0.  1.
</event>
<event>
 7    1  0.3708346E-009  0.4614232E+02  0.7816164E-02  0.1320468E+00
        -11   -1    0    0    0    0  0.00000000000E+00  0.00000000000E+00  0.45593999997E+02  0.45594000000E+02  0.51100000000E-03 0.  1.
         11   -1    0    0    0    0 -0.00000000000E+00 -0.00000000000E+00 -0.45593999997E+02  0.45594000000E+02  0.51100000000E-03 0. -1.
    9900012    2    1    2    0    0  0.13336882091E+02  0.18409338724E+02 -0.38888780983E+02  0.46142318048E+02  0.10000002619E+02 0.  0.
        -12    1    1    2    0    0 -0.13336882091E+02 -0.18409338724E+02  0.38888780983E+02  0.45045681952E+02  0.00000000000E+00 0.  1.
         11    1    3    3    0    0  0.82743224448E+01  0.69825667890E+01 -0.16865320018E+02  0.20041448812E+02  0.51100000000E-03 0. -1.
        -11    1    3    3    0    0  0.23649872625E+01  0.19999663587E+01 -0.10615726099E+02  0.11058330392E+02  0.51100000000E-03 0.  1.
        -12    1    3    3    0    0  0.26975723836E+01  0.94268055766E+01 -0.11407734866E+02  0.15042538845E+02  0.00000000000E+00 0.  1.
</event>
<event>
 7    1  0.3708346E-009  0.4614232E+02  0.7816164E-02  0.1320468E+00
        -11   -1    0    0    0    0  0.00000000000E+00  0.00000000000E+00  0.45593999997E+02  0.45594000000E+02  0.51100000000E-03 0.  1.
         11   -1    0    0    0    0 -0.00000000000E+00 -0.00000000000E+00 -0.45593999997E+02  0.45594000000E+02  0.51100000000E-03 0. -1.
    9900012    2    1    2    0    0  0.22700694231E+02  0.29403419095E+02 -0.25480009279E+02  0.46142318232E+02  0.10000004297E+02 0.  0.
        -12    1    1    2    0    0 -0.22700694231E+02 -0.29403419095E+02  0.25480009279E+02  0.45045681768E+02  0.00000000000E+00 0.  1.
         11    1    3    3    0    0  0.60312384778E+01  0.88843885128E+01 -0.37812905916E+01  0.11384478715E+02  0.51100000000E-03 0. -1.
        -11    1    3    3    0    0 -0.14755252294E-01  0.24385802083E+01 -0.11191255995E+01  0.26831573786E+01  0.51100000000E-03 0.  1.
         12    1    3    3    0    0  0.16684211005E+02  0.18080450374E+02 -0.20579593088E+02  0.32074682138E+02  0.00000000000E+00 0. -1.
</event>
<event>
 7    1  0.3708346E-009  0.4614232E+02  0.7816164E-02  0.1320468E+00
        -11   -1    0    0    0    0  0.00000000000E+00  0.00000000000E+00  0.45593999997E+02  0.45594000000E+02  0.51100000000E-03 0. -1.
         11   -1    0    0    0    0 -0.00000000000E+00 -0.00000000000E+00 -0.45593999997E+02  0.45594000000E+02  0.51100000000E-03 0.  1.
    9900012    2    1    2    0    0 -0.13472826501E+01 -0.44531797324E+02  0.66496134005E+01  0.46142317612E+02  0.99999986411E+01 0.  0.
        -12    1    1    2    0    0  0.13472826501E+01  0.44531797324E+02 -0.66496134005E+01  0.45045682388E+02  0.00000000000E+00 0.  1.
         11    1    3    3    0    0  0.27612861719E+01 -0.16799357759E+02 -0.38126970015E-01  0.17024822359E+02  0.51100000000E-03 0. -1.
        -11    1    3    3    0    0  0.45852317254E+00 -0.71481911569E+01  0.27238844471E+01  0.76633169749E+01  0.51100000000E-03 0.  1.
         12    1    3    3    0    0 -0.45670919946E+01 -0.20584248408E+02  0.39638559234E+01  0.21454178278E+02  0.00000000000E+00 0. -1.
</event>
<event>
 7    1  0.3708346E-009  0.4614232E+02  0.7816164E-02  0.1320468E+00
        -11   -1    0    0    0    0  0.00000000000E+00  0.00000000000E+00  0.45593999997E+02  0.45594000000E+02  0.51100000000E-03 0.  1.
         11   -1    0    0    0    0 -0.00000000000E+00 -0.00000000000E+00 -0.45593999997E+02  0.45594000000E+02  0.51100000000E-03 0. -1.
    9900012    2    1    2    0    0  0.19820352053E+02  0.38629078383E+02 -0.12002561481E+02  0.46142317251E+02  0.99999953466E+01 0.  0.
        -12    1    1    2    0    0 -0.19820352053E+02 -0.38629078383E+02  0.12002561481E+02  0.45045682749E+02  0.00000000000E+00 0.  1.
         11    1    3    3    0    0  0.17036009530E+02  0.34902940395E+02 -0.81972140019E+01  0.39694271458E+02  0.51100000000E-03 0. -1.
        -11    1    3    3    0    0  0.50483202243E+00 -0.48664470989E-01  0.14521495341E+00  0.52755212579E+00  0.51100000000E-03 0.  1.
         12    1    3    3    0    0  0.22795105000E+01  0.37748024589E+01 -0.39505624325E+01  0.59204936666E+01  0.00000000000E+00 0. -1.
</event>
<event>
 7    1  0.4174689E-009  0.4614232E+02  0.7816164E-02  0.1320468E+00
        -11   -1    0    0    0    0  0.00000000000E+00  0.00000000000E+00  0.45593999997E+02  0.45594000000E+02  0.51100000000E-03 0. -1.
         11   -1    0    0    0    0 -0.00000000000E+00 -0.00000000000E+00 -0.45593999997E+02  0.45594000000E+02  0.51100000000E-03 0.  1.
    9900012    2    1    2    0    0 -0.19376736966E+02 -0.31045537632E+02  0.26264618029E+02  0.46142317604E+02  0.99999985665E+01 0.  0.
        -12    1    1    2    0    0  0.19376736966E+02  0.31045537632E+02 -0.26264618029E+02  0.45045682396E+02  0.00000000000E+00 0.  1.
         11    1    3    3    0    0 -0.86484520208E+01 -0.99947235484E+01  0.12754369997E+02  0.18367476023E+02  0.51100000000E-03 0. -1.
        -11    1    3    3    0    0 -0.27830027626E+01 -0.37241572850E+01  0.45539597545E+00  0.46713849783E+01  0.51100000000E-03 0.  1.
         12    1    3    3    0    0 -0.79452821831E+01 -0.17326656798E+02  0.13054852057E+02  0.23103456603E+02  0.00000000000E+00 0. -1.
</event>
<event>
 7    1  0.3708346E-009  0.4614232E+02  0.7816164E-02  0.1320468E+00
        -11   -1    0    0    0    0  0.00000000000E+00  0.00000000000E+00  0.45593999997E+02  0.45594000000E+02  0.51100000000E-03 0. -1.
         11   -1    0    0    0    0 -0.00000000000E+00 -0.00000000000E+00 -0.45593999997E+02  0.45594000000E+02  0.51100000000E-03 0.  1.
    9900012    2    1    2    0    0 -0.26901640023E+02 -0.10907492328E+02  0.34444765881E+02  0.46142317394E+02  0.99999966553E+01 0.  0.
        -12    1    1    2    0    0  0.26901640023E+02  0.10907492328E+02 -0.34444765881E+02  0.45045682606E+02  0.00000000000E+00 0.  1.
         11    1    3    3    0    0 -0.19861333525E+02 -0.49587386994E+01  0.22493546496E+02  0.30414162706E+02  0.51100000000E-03 0. -1.
        -11    1    3    3    0    0  0.33775949986E+00 -0.16249628965E+01  0.22488606650E+01  0.27949884519E+01  0.51100000000E-03 0.  1.
         12    1    3    3    0    0 -0.73780659978E+01 -0.43237907320E+01  0.97023587196E+01  0.12933166236E+02  0.00000000000E+00 0. -1.
</event>
<event>
 7    1  0.3708346E-009  0.4614232E+02  0.7816164E-02  0.1320468E+00
        -11   -1    0    0    0    0  0.00000000000E+00  0.00000000000E+00  0.45593999997E+02  0.45594000000E+02  0.51100000000E-03 0.  1.
         11   -1    0    0    0    0 -0.00000000000E+00 -0.00000000000E+00 -0.45593999997E+02  0.45594000000E+02  0.51100000000E-03 0. -1.
    9900012    2    1    2    0    0  0.18146983436E+02 -0.17884601087E+02 -0.37147564240E+02  0.46142317711E+02  0.99999995446E+01 0.  0.
        -12    1    1    2    0    0 -0.18146983436E+02  0.17884601087E+02  0.37147564240E+02  0.45045682289E+02  0.00000000000E+00 0.  1.
         11    1    3    3    0    0  0.63984705289E+01 -0.97501390426E+01 -0.22592297032E+02  0.25424742317E+02  0.51100000000E-03 0.  1.
        -11    1    3    3    0    0  0.63486454831E+01 -0.64223243689E+01 -0.97452665136E+01  0.13286149534E+02  0.51100000000E-03 0. -1.
        -12    1    3    3    0    0  0.53998674244E+01 -0.17121376750E+01 -0.48100006950E+01  0.74314258595E+01  0.00000000000E+00 0.  1.
</event>
<event>
 7    1  0.3708346E-009  0.4614232E+02  0.7816164E-02  0.1320468E+00
        -11   -1    0    0    0    0  0.00000000000E+00  0.00000000000E+00  0.45593999997E+02  0.45594000000E+02  0.51100000000E-03 0.  1.
         11   -1    0    0    0    0 -0.00000000000E+00 -0.00000000000E+00 -0.45593999997E+02  0.45594000000E+02  0.51100000000E-03 0. -1.
    9900012    2    1    2    0    0  0.19559455291E+02  0.40305536128E+02 -0.46909446780E+01  0.46142317678E+02  0.99999992466E+01 0.  0.
        -12    1    1    2    0    0 -0.19559455291E+02 -0.40305536128E+02  0.46909446780E+01  0.45045682322E+02  0.00000000000E+00 0.  1.
         11    1    3    3    0    0  0.65621572318E+00  0.51107405147E+01 -0.17243719453E+01  0.54335758530E+01  0.51100000000E-03 0. -1.
        -11    1    3    3    0    0  0.12872279971E+02  0.19407694400E+02 -0.45711673142E+01  0.23732883610E+02  0.51100000000E-03 0.  1.
         12    1    3    3    0    0  0.60309595966E+01  0.15787101213E+02  0.16045945814E+01  0.16975858215E+02  0.00000000000E+00 0. -1.
</event>
<event>
 7    1  0.3708346E-009  0.4614232E+02  0.7816164E-02  0.1320468E+00
        -11   -1    0    0    0    0  0.00000000000E+00  0.00000000000E+00  0.45593999997E+02  0.45594000000E+02  0.51100000000E-03 0.  1.
         11   -1    0    0    0    0 -0.00000000000E+00 -0.00000000000E+00 -0.45593999997E+02  0.45594000000E+02  0.51100000000E-03 0. -1.
    9900012    2    1    2    0    0  0.15219021241E+02 -0.17539922422E+02 -0.38598523641E+02  0.46142317483E+02  0.99999974680E+01 0.  0.
        -12    1    1    2    0    0 -0.15219021241E+02  0.17539922422E+02  0.38598523641E+02  0.45045682517E+02  0.00000000000E+00 0.  1.
         11    1    3    3    0    0  0.54612013373E+01 -0.11945726537E+01 -0.12148109323E+02  0.13372669302E+02  0.51100000000E-03 0. -1.
        -11    1    3    3    0    0 -0.29188958623E+00 -0.36885905483E+00 -0.62909591358E+00  0.78550522754E+00  0.51100000000E-03 0.  1.
         12    1    3    3    0    0  0.10049709490E+02 -0.15976490714E+02 -0.25821318404E+02  0.31984142954E+02  0.00000000000E+00 0. -1.
</event>
<event>
 7    1  0.3708346E-009  0.4614232E+02  0.7816164E-02  0.1320468E+00
        -11   -1    0    0    0    0  0.00000000000E+00  0.00000000000E+00  0.45593999997E+02  0.45594000000E+02  0.51100000000E-03 0.  1.
         11   -1    0    0    0    0 -0.00000000000E+00 -0.00000000000E+00 -0.45593999997E+02  0.45594000000E+02  0.51100000000E-03 0. -1.
    9900012    2    1    2    0    0  0.24145462691E+02  0.32978381498E+01 -0.37884485090E+02  0.46142319680E+02  0.10000017495E+02 0.  0.
        -12    1    1    2    0    0 -0.24145462691E+02 -0.32978381498E+01  0.37884485090E+02  0.45045680320E+02  0.00000000000E+00 0.  1.
         11    1    3    3    0    0  0.11411102642E+02  0.14170074244E+01 -0.24368764350E+02  0.26945460652E+02  0.51100000000E-03 0. -1.
        -11    1    3    3    0    0  0.48850919548E+01 -0.13730041620E+01 -0.41898351049E+01  0.65805761376E+01  0.51100000000E-03 0.  1.
         12    1    3    3    0    0  0.78492680943E+01  0.32538348875E+01 -0.93258856351E+01  0.12616282890E+02  0.00000000000E+00 0. -1.
</event>
<event>
 7    1  0.3708346E-009  0.4614232E+02  0.7816164E-02  0.1320468E+00
        -11   -1    0    0    0    0  0.00000000000E+00  0.00000000000E+00  0.45593999997E+02  0.45594000000E+02  0.51100000000E-03 0. -1.
         11   -1    0    0    0    0 -0.00000000000E+00 -0.00000000000E+00 -0.45593999997E+02  0.45594000000E+02  0.51100000000E-03 0.  1.
    9900012    2    1    2    0    0 -0.38503138018E+02 -0.22575052111E+02  0.60818476755E+01  0.46142317785E+02  0.10000000220E+02 0.  0.
        -12    1    1    2    0    0  0.38503138018E+02  0.22575052111E+02 -0.60818476755E+01  0.45045682215E+02  0.00000000000E+00 0.  1.
         11    1    3    3    0    0 -0.16916591977E+02 -0.11777400508E+02  0.62373383024E+01  0.21535613207E+02  0.51100000000E-03 0. -1.
        -11    1    3    3    0    0 -0.93760391523E+01 -0.65353155042E+01 -0.17989475523E+01  0.11569644397E+02  0.51100000000E-03 0.  1.
        -12    1    3    3    0    0 -0.12210506889E+02 -0.42623360992E+01  0.16434569254E+01  0.13037060181E+02  0.00000000000E+00 0.  1.
</event>
<event>
 7    1  0.3708346E-009  0.4614232E+02  0.7816164E-02  0.1320468E+00
        -11   -1    0    0    0    0  0.00000000000E+00  0.00000000000E+00  0.45593999997E+02  0.45594000000E+02  0.51100000000E-03 0. -1.
         11   -1    0    0    0    0 -0.00000000000E+00 -0.00000000000E+00 -0.45593999997E+02  0.45594000000E+02  0.51100000000E-03 0.  1.
    9900012    2    1    2    0    0  0.25985907325E+02  0.21585753187E+02  0.29797673589E+02  0.46142317948E+02  0.10000001705E+02 0.  0.
        -12    1    1    2    0    0 -0.25985907325E+02 -0.21585753187E+02 -0.29797673589E+02  0.45045682052E+02  0.00000000000E+00 0.  1.
         11    1    3    3    0    0  0.57264698721E+01  0.14412435800E+01  0.36375440228E+01  0.69355149075E+01  0.51100000000E-03 0. -1.
        -11    1    3    3    0    0  0.16711210201E+02  0.13056370623E+02  0.20218297385E+02  0.29300390947E+02  0.51100000000E-03 0.  1.
        -12    1    3    3    0    0  0.35482272520E+01  0.70881389846E+01  0.59418321817E+01  0.99064120939E+01  0.00000000000E+00 0.  1.
</event>
<event>
 7    1  0.3708346E-009  0.4614231E+02  0.7816164E-02  0.1320468E+00
        -11   -1    0    0    0    0  0.00000000000E+00  0.00000000000E+00  0.45593999997E+02  0.45594000000E+02  0.51100000000E-03 0. -1.
         11   -1    0    0    0    0 -0.00000000000E+00 -0.00000000000E+00 -0.45593999997E+02  0.45594000000E+02  0.51100000000E-03 0.  1.
    9900012    2    1    2    0    0  0.14732467381E+02 -0.42537841529E+02 -0.16125937708E+01  0.46142311907E+02  0.99999466195E+01 0.  0.
        -12    1    1    2    0    0 -0.14732467381E+02  0.42537841529E+02  0.16125937708E+01  0.45045688093E+02  0.00000000000E+00 0.  1.
         11    1    3    3    0    0  0.54306212628E+00  0.31473488015E+00  0.53561572096E+00  0.82514179354E+00  0.51100000000E-03 0. -1.
        -11    1    3    3    0    0  0.73547246268E-01  0.57842470955E-01 -0.55288048327E-03  0.93570912562E-01  0.51100000000E-03 0.  1.
         12    1    3    3    0    0  0.14115858009E+02 -0.42910418880E+02 -0.21476566113E+01  0.45223599201E+02  0.00000000000E+00 0. -1.
</event>
<event>
 7    1  0.3708346E-009  0.4614232E+02  0.7816164E-02  0.1320468E+00
        -11   -1    0    0    0    0  0.00000000000E+00  0.00000000000E+00  0.45593999997E+02  0.45594000000E+02  0.51100000000E-03 0.  1.
         11   -1    0    0    0    0 -0.00000000000E+00 -0.00000000000E+00 -0.45593999997E+02  0.45594000000E+02  0.51100000000E-03 0. -1.
    9900012    2    1    2    0    0  0.21829427197E+02 -0.47338781165E+01 -0.39117515374E+02  0.46142317601E+02  0.99999985400E+01 0.  0.
        -12    1    1    2    0    0 -0.21829427197E+02  0.47338781165E+01  0.39117515374E+02  0.45045682399E+02  0.00000000000E+00 0.  1.
         11    1    3    3    0    0  0.85968010771E+01  0.58906989462E+00 -0.12631740235E+02  0.15290940250E+02  0.51100000000E-03 0. -1.
        -11    1    3    3    0    0  0.43138148003E+00  0.79635831640E+00 -0.51463452830E+01  0.52254326694E+01  0.51100000000E-03 0.  1.
        -12    1    3    3    0    0  0.12801244639E+02 -0.61193063275E+01 -0.21339429856E+02  0.25625944682E+02  0.00000000000E+00 0.  1.
</event>
<event>
 7    1  0.3708346E-009  0.4614232E+02  0.7816164E-02  0.1320468E+00
        -11   -1    0    0    0    0  0.00000000000E+00  0.00000000000E+00  0.45593999997E+02  0.45594000000E+02  0.51100000000E-03 0. -1.
         11   -1    0    0    0    0 -0.00000000000E+00 -0.00000000000E+00 -0.45593999997E+02  0.45594000000E+02  0.51100000000E-03 0.  1.
    9900012    2    1    2    0    0  0.98449907518E+00  0.31921037362E+02  0.31767776454E+02  0.46142317793E+02  0.10000000290E+02 0.  0.
        -12    1    1    2    0    0 -0.98449907518E+00 -0.31921037362E+02 -0.31767776454E+02  0.45045682207E+02  0.00000000000E+00 0.  1.
         11    1    3    3    0    0  0.32112319354E+01  0.10497411901E+02  0.73247647776E+01  0.13196963532E+02  0.51100000000E-03 0.  1.
        -11    1    3    3    0    0 -0.30307125494E+01  0.15132809553E+02  0.14657840777E+02  0.21284723161E+02  0.51100000000E-03 0. -1.
         12    1    3    3    0    0  0.80397968918E+00  0.62908159078E+01  0.97851708987E+01  0.11660631100E+02  0.00000000000E+00 0. -1.
</event>
<event>
 7    1  0.3708346E-009  0.4614232E+02  0.7816164E-02  0.1320468E+00
        -11   -1    0    0    0    0  0.00000000000E+00  0.00000000000E+00  0.45593999997E+02  0.45594000000E+02  0.51100000000E-03 0.  1.
         11   -1    0    0    0    0 -0.00000000000E+00 -0.00000000000E+00 -0.45593999997E+02  0.45594000000E+02  0.51100000000E-03 0. -1.
    9900012    2    1    2    0    0 -0.32808066200E+02 -0.44760567837E+01 -0.30540287808E+02  0.46142317949E+02  0.10000001711E+02 0.  0.
        -12    1    1    2    0    0  0.32808066200E+02  0.44760567837E+01  0.30540287808E+02  0.45045682051E+02  0.00000000000E+00 0.  1.
         11    1    3    3    0    0 -0.25008040427E-01 -0.95888779484E+00 -0.22443990460E+01  0.24407823630E+01  0.51100000000E-03 0. -1.
        -11    1    3    3    0    0 -0.71619917118E+00  0.57278162305E+00 -0.12665910006E+01  0.15637368910E+01  0.51100000000E-03 0.  1.
         12    1    3    3    0    0 -0.32066858988E+02 -0.40899506119E+01 -0.27029297761E+02  0.42137798695E+02  0.00000000000E+00 0. -1.
</event>
<event>
 7    1  0.3708346E-009  0.4614231E+02  0.7816164E-02  0.1320468E+00
        -11   -1    0    0    0    0  0.00000000000E+00  0.00000000000E+00  0.45593999997E+02  0.45594000000E+02  0.51100000000E-03 0.  1.
         11   -1    0    0    0    0 -0.00000000000E+00 -0.00000000000E+00 -0.45593999997E+02  0.45594000000E+02  0.51100000000E-03 0. -1.
    9900012    2    1    2    0    0 -0.21549836512E+02 -0.20710385576E+02 -0.33701615610E+02  0.46142307430E+02  0.99999057919E+01 0.  0.
        -12    1    1    2    0    0  0.21549836512E+02  0.20710385576E+02  0.33701615610E+02  0.45045692570E+02  0.00000000000E+00 0.  1.
         11    1    3    3    0    0 -0.10222372103E+02 -0.81083133894E+01 -0.17099134071E+02  0.21508649973E+02  0.51100000000E-03 0. -1.
        -11    1    3    3    0    0 -0.67617283281E+01 -0.31911101482E+01 -0.49085322527E+01  0.89441513347E+01  0.51100000000E-03 0.  1.
         12    1    3    3    0    0 -0.45657360810E+01 -0.94109620381E+01 -0.11693949287E+02  0.15689506122E+02  0.00000000000E+00 0. -1.
</event>
<event>
 7    1  0.3749431E-009  0.4614232E+02  0.7816164E-02  0.1320468E+00
        -11   -1    0    0    0    0  0.00000000000E+00  0.00000000000E+00  0.45593999997E+02  0.45594000000E+02  0.51100000000E-03 0.  1.
         11   -1    0    0    0    0 -0.00000000000E+00 -0.00000000000E+00 -0.45593999997E+02  0.45594000000E+02  0.51100000000E-03 0. -1.
    9900012    2    1    2    0    0 -0.39820434606E+02  0.20500727872E+02 -0.48131742568E+01  0.46142317611E+02  0.99999986275E+01 0.  0.
        -12    1    1    2    0    0  0.39820434606E+02 -0.20500727872E+02  0.48131742568E+01  0.45045682389E+02  0.00000000000E+00 0.  1.
         11    1    3    3    0    0 -0.21367924932E+02  0.10625419503E+02 -0.14451081848E+01  0.23907657632E+02  0.51100000000E-03 0. -1.
        -11    1    3    3    0    0 -0.75647799841E+01  0.59613037188E+01 -0.44589881045E+01  0.10613463780E+02  0.51100000000E-03 0.  1.
        -12    1    3    3    0    0 -0.10887729690E+02  0.39140046499E+01  0.10909220325E+01  0.11621196199E+02  0.00000000000E+00 0.  1.
</event>
<event>
 7    1  0.3708346E-009  0.4614232E+02  0.7816164E-02  0.1320468E+00
        -11   -1    0    0    0    0  0.00000000000E+00  0.00000000000E+00  0.45593999997E+02  0.45594000000E+02  0.51100000000E-03 0.  1.
         11   -1    0    0    0    0 -0.00000000000E+00 -0.00000000000E+00 -0.45593999997E+02  0.45594000000E+02  0.51100000000E-03 0. -1.
    9900012    2    1    2    0    0 -0.42809316368E+01  0.17978763036E+02 -0.41079811337E+02  0.46142321012E+02  0.10000029644E+02 0.  0.
        -12    1    1    2    0    0  0.42809316368E+01 -0.17978763036E+02  0.41079811337E+02  0.45045678988E+02  0.00000000000E+00 0.  1.
         11    1    3    3    0    0 -0.28776294850E+01  0.18065609408E+02 -0.37854135830E+02  0.42042628301E+02  0.51100000000E-03 0. -1.
        -11    1    3    3    0    0  0.46581958022E+00 -0.91504148075E-01 -0.14507060758E+00  0.49639362681E+00  0.51100000000E-03 0.  1.
         12    1    3    3    0    0 -0.18691217320E+01  0.46577761544E-02 -0.30806048998E+01  0.36032990845E+01  0.00000000000E+00 0. -1.
</event>
<event>
 7    1  0.3708346E-009  0.4614232E+02  0.7816164E-02  0.1320468E+00
        -11   -1    0    0    0    0  0.00000000000E+00  0.00000000000E+00  0.45593999997E+02  0.45594000000E+02  0.51100000000E-03 0.  1.
         11   -1    0    0    0    0 -0.00000000000E+00 -0.00000000000E+00 -0.45593999997E+02  0.45594000000E+02  0.51100000000E-03 0. -1.
    9900012    2    1    2    0    0  0.20551993733E+02  0.35568799577E+02 -0.18482129329E+02  0.46142322580E+02  0.10000043939E+02 0.  0.
        -12    1    1    2    0    0 -0.20551993733E+02 -0.35568799577E+02  0.18482129329E+02  0.45045677420E+02  0.00000000000E+00 0.  1.
         11    1    3    3    0    0  0.68523528881E+01  0.13821922538E+02 -0.74050857397E+01  0.17112439272E+02  0.51100000000E-03 0. -1.
        -11    1    3    3    0    0  0.88990287490E+01  0.12362471316E+02 -0.24912178643E+01  0.15434687442E+02  0.51100000000E-03 0.  1.
        -12    1    3    3    0    0  0.48006120959E+01  0.93844057221E+01 -0.85858257252E+01  0.13595195866E+02  0.00000000000E+00 0.  1.
</event>
<event>
 7    1  0.3708346E-009  0.4614232E+02  0.7816164E-02  0.1320468E+00
        -11   -1    0    0    0    0  0.00000000000E+00  0.00000000000E+00  0.45593999997E+02  0.45594000000E+02  0.51100000000E-03 0.  1.
         11   -1    0    0    0    0 -0.00000000000E+00 -0.00000000000E+00 -0.45593999997E+02  0.45594000000E+02  0.51100000000E-03 0. -1.
    9900012    2    1    2    0    0  0.16962913953E+02  0.34517607963E+02 -0.23450111853E+02  0.46142318129E+02  0.10000003355E+02 0.  0.
        -12    1    1    2    0    0 -0.16962913953E+02 -0.34517607963E+02  0.23450111853E+02  0.45045681871E+02  0.00000000000E+00 0.  1.
         11    1    3    3    0    0  0.13193435156E+02  0.26410291227E+02 -0.20611999420E+02  0.36005898604E+02  0.51100000000E-03 0. -1.
        -11    1    3    3    0    0  0.30198322382E+01  0.30612352011E+01 -0.26093394535E+01  0.50298310457E+01  0.51100000000E-03 0.  1.
         12    1    3    3    0    0  0.74964655809E+00  0.50460815355E+01 -0.22877298016E+00  0.51065884797E+01  0.00000000000E+00 0. -1.
</event>
<event>
 7    1  0.3708346E-009  0.4614232E+02  0.7816164E-02  0.1320468E+00
        -11   -1    0    0    0    0  0.00000000000E+00  0.00000000000E+00  0.45593999997E+02  0.45594000000E+02  0.51100000000E-03 0.  1.
         11   -1    0    0    0    0 -0.00000000000E+00 -0.00000000000E+00 -0.45593999997E+02  0.45594000000E+02  0.51100000000E-03 0. -1.
    9900012    2    1    2    0    0 -0.25522907348E+02 -0.26120721088E+02 -0.26370487321E+02  0.46142317952E+02  0.10000001741E+02 0.  0.
        -12    1    1    2    0    0  0.25522907348E+02  0.26120721088E+02  0.26370487321E+02  0.45045682048E+02  0.00000000000E+00 0.  1.
         11    1    3    3    0    0 -0.20676800407E+00 -0.10583960321E+01  0.31844317751E+00  0.11244382983E+01  0.51100000000E-03 0. -1.
        -11    1    3    3    0    0  0.86342548309E-01 -0.13418803159E+01 -0.19008158359E+01  0.23283468215E+01  0.51100000000E-03 0.  1.
         12    1    3    3    0    0 -0.25402481892E+02 -0.23720444740E+02 -0.24788114663E+02  0.42689532832E+02  0.00000000000E+00 0. -1.
</event>
<event>
 7    1  0.3708346E-009  0.4614232E+02  0.7816164E-02  0.1320468E+00
        -11   -1    0    0    0    0  0.00000000000E+00  0.00000000000E+00  0.45593999997E+02  0.45594000000E+02  0.51100000000E-03 0. -1.
         11   -1    0    0    0    0 -0.00000000000E+00 -0.00000000000E+00 -0.45593999997E+02  0.45594000000E+02  0.51100000000E-03 0.  1.
    9900012    2    1    2    0    0  0.16916314963E+02 -0.41373891564E+02 -0.55814829444E+01  0.46142316889E+02  0.99999920512E+01 0.  0.
        -12    1    1    2    0    0 -0.16916314963E+02  0.41373891564E+02  0.55814829444E+01  0.45045683111E+02  0.00000000000E+00 0.  1.
         11    1    3    3    0    0  0.10358128422E+02 -0.18471859915E+02 -0.59673311652E+01  0.22002487919E+02  0.51100000000E-03 0. -1.
        -11    1    3    3    0    0  0.15106647175E+01 -0.37939238905E+01  0.14862704993E+01  0.43456836786E+01  0.51100000000E-03 0.  1.
         12    1    3    3    0    0  0.50475218239E+01 -0.19108107758E+02 -0.11004222784E+01  0.19794145292E+02  0.00000000000E+00 0. -1.
</event>
<event>
 7    1  0.3708346E-009  0.4614233E+02  0.7816164E-02  0.1320468E+00
        -11   -1    0    0    0    0  0.00000000000E+00  0.00000000000E+00  0.45593999997E+02  0.45594000000E+02  0.51100000000E-03 0.  1.
         11   -1    0    0    0    0 -0.00000000000E+00 -0.00000000000E+00 -0.45593999997E+02  0.45594000000E+02  0.51100000000E-03 0. -1.
    9900012    2    1    2    0    0  0.13721437211E+02 -0.36507322118E+02  0.22539969432E+02  0.46142327295E+02  0.10000086941E+02 0.  0.
        -12    1    1    2    0    0 -0.13721437211E+02  0.36507322118E+02 -0.22539969432E+02  0.45045672705E+02  0.00000000000E+00 0.  1.
         11    1    3    3    0    0  0.13400711389E+01 -0.51023951086E+01  0.65703422444E+01  0.84261274599E+01  0.51100000000E-03 0. -1.
        -11    1    3    3    0    0  0.50874411017E+01 -0.14272836649E+02  0.43362866558E+01  0.15760688602E+02  0.51100000000E-03 0.  1.
         12    1    3    3    0    0  0.72939249708E+01 -0.17132090361E+02  0.11633340532E+02  0.21955511234E+02  0.00000000000E+00 0. -1.
</event>
<event>
 7    1  0.3708346E-009  0.4614232E+02  0.7816164E-02  0.1320468E+00
        -11   -1    0    0    0    0  0.00000000000E+00  0.00000000000E+00  0.45593999997E+02  0.45594000000E+02  0.51100000000E-03 0. -1.
         11   -1    0    0    0    0 -0.00000000000E+00 -0.00000000000E+00 -0.45593999997E+02  0.45594000000E+02  0.51100000000E-03 0.  1.
    9900012    2    1    2    0    0  0.23640795386E+02 -0.17649397637E+02  0.34040050044E+02  0.46142318182E+02  0.10000003843E+02 0.  0.
        -12    1    1    2    0    0 -0.23640795386E+02  0.17649397637E+02 -0.34040050044E+02  0.45045681818E+02  0.00000000000E+00 0.  1.
         11    1    3    3    0    0  0.21700927229E+01  0.44282098075E+00  0.63875783988E+00  0.23050823600E+01  0.51100000000E-03 0. -1.
        -11    1    3    3    0    0  0.43204997853E+01 -0.39323016654E+01  0.45279470353E+01  0.73913476036E+01  0.51100000000E-03 0.  1.
         12    1    3    3    0    0  0.17150202878E+02 -0.14159916952E+02  0.28873345169E+02  0.36445888219E+02  0.00000000000E+00 0. -1.
</event>
<event>
 7    1  0.3708346E-009  0.4614232E+02  0.7816164E-02  0.1320468E+00
        -11   -1    0    0    0    0  0.00000000000E+00  0.00000000000E+00  0.45593999997E+02  0.45594000000E+02  0.51100000000E-03 0.  1.
         11   -1    0    0    0    0 -0.00000000000E+00 -0.00000000000E+00 -0.45593999997E+02  0.45594000000E+02  0.51100000000E-03 0. -1.
    9900012    2    1    2    0    0  0.16464090390E+02  0.11202950356E+02 -0.40404714144E+02  0.46142319917E+02  0.10000019660E+02 0.  0.
        -12    1    1    2    0    0 -0.16464090390E+02 -0.11202950356E+02  0.40404714144E+02  0.45045680083E+02  0.00000000000E+00 0.  1.
         11    1    3    3    0    0  0.57453265283E+01  0.26627610021E+01 -0.99198648709E+01  0.11768720933E+02  0.51100000000E-03 0. -1.
        -11    1    3    3    0    0  0.10166942030E+02  0.95118542202E+01 -0.23616780301E+02  0.27415221921E+02  0.51100000000E-03 0.  1.
        -12    1    3    3    0    0  0.55182183159E+00 -0.97166486601E+00 -0.68680689722E+01  0.69583770631E+01  0.00000000000E+00 0.  1.
</event>
<event>
 7    1  0.3708346E-009  0.4614232E+02  0.7816164E-02  0.1320468E+00
        -11   -1    0    0    0    0  0.00000000000E+00  0.00000000000E+00  0.45593999997E+02  0.45594000000E+02  0.51100000000E-03 0.  1.
         11   -1    0    0    0    0 -0.00000000000E+00 -0.00000000000E+00 -0.45593999997E+02  0.45594000000E+02  0.51100000000E-03 0. -1.
    9900012    2    1    2    0    0  0.13790417331E+02  0.42498476984E+02  0.57285876508E+01  0.46142324596E+02  0.10000062324E+02 0.  0.
        -12    1    1    2    0    0 -0.13790417331E+02 -0.42498476984E+02 -0.57285876508E+01  0.45045675404E+02  0.00000000000E+00 0.  1.
         11    1    3    3    0    0  0.89841831853E+01  0.16711183178E+02  0.56613208616E+01  0.19799741030E+02  0.51100000000E-03 0. -1.
        -11    1    3    3    0    0  0.20023756430E+01  0.15073028422E+02 -0.85294061528E+00  0.15229353302E+02  0.51100000000E-03 0.  1.
         12    1    3    3    0    0  0.28038585027E+01  0.10714265385E+02  0.92020740455E+00  0.11113230264E+02  0.00000000000E+00 0. -1.
</event>
<event>
 7    1  0.3708346E-009  0.4614232E+02  0.7816164E-02  0.1320468E+00
        -11   -1    0    0    0    0  0.00000000000E+00  0.00000000000E+00  0.45593999997E+02  0.45594000000E+02  0.51100000000E-03 0.  1.
         11   -1    0    0    0    0 -0.00000000000E+00 -0.00000000000E+00 -0.45593999997E+02  0.45594000000E+02  0.51100000000E-03 0. -1.
    9900012    2    1    2    0    0  0.87175302654E+01 -0.29627144837E+02 -0.32792536499E+02  0.46142317685E+02  0.99999993070E+01 0.  0.
        -12    1    1    2    0    0 -0.87175302654E+01  0.29627144837E+02  0.32792536499E+02  0.45045682315E+02  0.00000000000E+00 0.  1.
         11    1    3    3    0    0  0.16998315491E+01 -0.11983905633E+02 -0.16336628768E+02  0.20331966488E+02  0.51100000000E-03 0. -1.
        -11    1    3    3    0    0 -0.68618024819E+00 -0.52601099078E+00 -0.26640052807E-01  0.86500916120E+00  0.51100000000E-03 0.  1.
         12    1    3    3    0    0  0.77038789645E+01 -0.17117228214E+02 -0.16429267679E+02  0.24945342036E+02  0.00000000000E+00 0. -1.
</event>
<event>
 7    1  0.3708346E-009  0.4614232E+02  0.7816164E-02  0.1320468E+00
        -11   -1    0    0    0    0  0.00000000000E+00  0.00000000000E+00  0.45593999997E+02  0.45594000000E+02  0.51100000000E-03 0.  1.
         11   -1    0    0    0    0 -0.00000000000E+00 -0.00000000000E+00 -0.45593999997E+02  0.45594000000E+02  0.51100000000E-03 0. -1.
    9900012    2    1    2    0    0  0.15846640758E+02 -0.39684441860E+02 -0.14252808513E+02  0.46142317637E+02  0.99999988697E+01 0.  0.
        -12    1    1    2    0    0 -0.15846640758E+02  0.39684441860E+02  0.14252808513E+02  0.45045682363E+02  0.00000000000E+00 0.  1.
         11    1    3    3    0    0  0.31725714716E+01 -0.15452198938E+02 -0.81585636862E+01  0.17759443219E+02  0.51100000000E-03 0. -1.
        -11    1    3    3    0    0  0.10447095926E+01 -0.54999923095E+01 -0.40969471080E+00  0.56133041566E+01  0.51100000000E-03 0.  1.
         12    1    3    3    0    0  0.11629359693E+02 -0.18732250613E+02 -0.56845501163E+01  0.22769570262E+02  0.00000000000E+00 0. -1.
</event>
<event>
 7    1  0.3708346E-009  0.4614232E+02  0.7816164E-02  0.1320468E+00
        -11   -1    0    0    0    0  0.00000000000E+00  0.00000000000E+00  0.45593999997E+02  0.45594000000E+02  0.51100000000E-03 0.  1.
         11   -1    0    0    0    0 -0.00000000000E+00 -0.00000000000E+00 -0.45593999997E+02  0.45594000000E+02  0.51100000000E-03 0. -1.
    9900012    2    1    2    0    0 -0.15021220381E+02  0.42436366732E+02  0.16220996861E+01  0.46142317737E+02  0.99999997825E+01 0.  0.
        -12    1    1    2    0    0  0.15021220381E+02 -0.42436366732E+02 -0.16220996861E+01  0.45045682263E+02  0.00000000000E+00 0.  1.
         11    1    3    3    0    0 -0.12198259135E+02  0.28599896347E+02 -0.96683489095E+00  0.31107657690E+02  0.51100000000E-03 0. -1.
        -11    1    3    3    0    0 -0.16319435473E+00  0.10618378793E+02  0.15479575922E+01  0.10731857880E+02  0.51100000000E-03 0.  1.
        -12    1    3    3    0    0 -0.26597668911E+01  0.32180915917E+01  0.10409769848E+01  0.43028021672E+01  0.00000000000E+00 0.  1.
</event>
<event>
 7    1  0.3708346E-009  0.4614232E+02  0.7816164E-02  0.1320468E+00
        -11   -1    0    0    0    0  0.00000000000E+00  0.00000000000E+00  0.45593999997E+02  0.45594000000E+02  0.51100000000E-03 0.  1.
         11   -1    0    0    0    0 -0.00000000000E+00 -0.00000000000E+00 -0.45593999997E+02  0.45594000000E+02  0.51100000000E-03 0. -1.
    9900012    2    1    2    0    0  0.30753036943E+01 -0.28194527613E+02 -0.34996066191E+02  0.46142317310E+02  0.99999958894E+01 0.  0.
        -12    1    1    2    0    0 -0.30753036943E+01  0.28194527613E+02  0.34996066191E+02  0.45045682690E+02  0.00000000000E+00 0.  1.
         11    1    3    3    0    0  0.10983009563E+01 -0.83926513301E+01 -0.10549566754E+02  0.13525391687E+02  0.51100000000E-03 0. -1.
        -11    1    3    3    0    0 -0.25018618306E+01 -0.13493432192E+02 -0.13859631017E+02  0.19504394303E+02  0.51100000000E-03 0.  1.
        -12    1    3    3    0    0  0.44788645686E+01 -0.63084440908E+01 -0.10586868421E+02  0.13112531320E+02  0.00000000000E+00 0.  1.
</event>
<event>
 7    1  0.3708346E-009  0.4614232E+02  0.7816164E-02  0.1320468E+00
        -11   -1    0    0    0    0  0.00000000000E+00  0.00000000000E+00  0.45593999997E+02  0.45594000000E+02  0.51100000000E-03 0.  1.
         11   -1    0    0    0    0 -0.00000000000E+00 -0.00000000000E+00 -0.45593999997E+02  0.45594000000E+02  0.51100000000E-03 0. -1.
    9900012    2    1    2    0    0 -0.18581033227E+01 -0.34626783720E+02 -0.28751463596E+02  0.46142319212E+02  0.10000013226E+02 0.  0.
        -12    1    1    2    0    0  0.18581033227E+01  0.34626783720E+02  0.28751463596E+02  0.45045680788E+02  0.00000000000E+00 0.  1.
         11    1    3    3    0    0  0.13223635888E+01 -0.14124636356E+02 -0.72327317080E+01  0.15923768582E+02  0.51100000000E-03 0. -1.
        -11    1    3    3    0    0 -0.26227881659E+01 -0.70192295558E+01 -0.98675188175E+01  0.12390178739E+02  0.51100000000E-03 0.  1.
        -12    1    3    3    0    0 -0.55767874559E+00 -0.13482917809E+02 -0.11651213071E+02  0.17828371890E+02  0.00000000000E+00 0.  1.
</event>
<event>
 7    1  0.3708346E-009  0.4614233E+02  0.7816164E-02  0.1320468E+00
        -11   -1    0    0    0    0  0.00000000000E+00  0.00000000000E+00  0.45593999997E+02  0.45594000000E+02  0.51100000000E-03 0.  1.
         11   -1    0    0    0    0 -0.00000000000E+00 -0.00000000000E+00 -0.45593999997E+02  0.45594000000E+02  0.51100000000E-03 0. -1.
    9900012    2    1    2    0    0  0.48206836152E+01  0.13342076044E+02 -0.42753509909E+02  0.46142327697E+02  0.10000090602E+02 0.  0.
        -12    1    1    2    0    0 -0.48206836152E+01 -0.13342076044E+02  0.42753509909E+02  0.45045672303E+02  0.00000000000E+00 0.  1.
         11    1    3    3    0    0  0.26875074832E+01  0.67709998303E+01 -0.32366624213E+02  0.33176309294E+02  0.51100000000E-03 0. -1.
        -11    1    3    3    0    0  0.29880681795E+01  0.54725062549E+01 -0.93147235838E+01  0.11208967475E+02  0.51100000000E-03 0.  1.
        -12    1    3    3    0    0 -0.85489204747E+00  0.10985699587E+01 -0.10721621125E+01  0.17570509277E+01  0.00000000000E+00 0.  1.
</event>
<event>
 7    1  0.3708346E-009  0.4614232E+02  0.7816164E-02  0.1320468E+00
        -11   -1    0    0    0    0  0.00000000000E+00  0.00000000000E+00  0.45593999997E+02  0.45594000000E+02  0.51100000000E-03 0. -1.
         11   -1    0    0    0    0 -0.00000000000E+00 -0.00000000000E+00 -0.45593999997E+02  0.45594000000E+02  0.51100000000E-03 0.  1.
    9900012    2    1    2    0    0  0.13765008828E+02  0.13639086486E+02  0.40664646933E+02  0.46142315874E+02  0.99999827887E+01 0.  0.
        -12    1    1    2    0    0 -0.13765008828E+02 -0.13639086486E+02 -0.40664646933E+02  0.45045684126E+02  0.00000000000E+00 0.  1.
         11    1    3    3    0    0  0.10202086964E+02  0.11134461243E+02  0.25030575637E+02  0.29233346072E+02  0.51100000000E-03 0. -1.
        -11    1    3    3    0    0  0.10968775873E+01  0.14083388233E+01  0.10368427830E+01  0.20643647693E+01  0.51100000000E-03 0.  1.
         12    1    3    3    0    0  0.24660442764E+01  0.10962864190E+01  0.14597228514E+02  0.14844605032E+02  0.00000000000E+00 0. -1.
</event>
<event>
 7    1  0.3708346E-009  0.4614232E+02  0.7816164E-02  0.1320468E+00
        -11   -1    0    0    0    0  0.00000000000E+00  0.00000000000E+00  0.45593999997E+02  0.45594000000E+02  0.51100000000E-03 0.  1.
         11   -1    0    0    0    0 -0.00000000000E+00 -0.00000000000E+00 -0.45593999997E+02  0.45594000000E+02  0.51100000000E-03 0. -1.
    9900012    2    1    2    0    0 -0.26792119549E+02 -0.13922318326E+02 -0.33428503955E+02  0.46142317697E+02  0.99999994146E+01 0.  0.
        -12    1    1    2    0    0  0.26792119549E+02  0.13922318326E+02  0.33428503955E+02  0.45045682303E+02  0.00000000000E+00 0.  1.
         11    1    3    3    0    0 -0.17774372690E+02 -0.93143004449E+01 -0.26177076576E+02  0.32983690752E+02  0.51100000000E-03 0. -1.
        -11    1    3    3    0    0 -0.92601706858E+01 -0.46119870666E+01 -0.61591861632E+01  0.12039799014E+02  0.51100000000E-03 0.  1.
         12    1    3    3    0    0  0.24242382692E+00  0.39691856956E-02 -0.10922412162E+01  0.11188279317E+01  0.00000000000E+00 0. -1.
</event>
<event>
 7    1  0.3708346E-009  0.4614232E+02  0.7816164E-02  0.1320468E+00
        -11   -1    0    0    0    0  0.00000000000E+00  0.00000000000E+00  0.45593999997E+02  0.45594000000E+02  0.51100000000E-03 0.  1.
         11   -1    0    0    0    0 -0.00000000000E+00 -0.00000000000E+00 -0.45593999997E+02  0.45594000000E+02  0.51100000000E-03 0. -1.
    9900012    2    1    2    0    0 -0.26403533531E+02 -0.34726526914E+02 -0.11226539207E+02  0.46142318331E+02  0.10000005198E+02 0.  0.
        -12    1    1    2    0    0  0.26403533531E+02  0.34726526914E+02  0.11226539207E+02  0.45045681669E+02  0.00000000000E+00 0.  1.
         11    1    3    3    0    0 -0.53241104162E+01 -0.75532965215E+01 -0.19847305527E+01  0.94518567326E+01  0.51100000000E-03 0. -1.
        -11    1    3    3    0    0 -0.14266318830E+02 -0.23471748061E+02 -0.91001280008E+01  0.28935499648E+02  0.51100000000E-03 0.  1.
        -12    1    3    3    0    0 -0.68131042845E+01 -0.37014823317E+01 -0.14168065375E+00  0.77549619504E+01  0.00000000000E+00 0.  1.
</event>
<event>
 7    1  0.3708346E-009  0.4614232E+02  0.7816164E-02  0.1320468E+00
        -11   -1    0    0    0    0  0.00000000000E+00  0.00000000000E+00  0.45593999997E+02  0.45594000000E+02  0.51100000000E-03 0. -1.
         11   -1    0    0    0    0 -0.00000000000E+00 -0.00000000000E+00 -0.45593999997E+02  0.45594000000E+02  0.51100000000E-03 0.  1.
    9900012    2    1    2    0    0 -0.38496920781E+02 -0.15831068346E+02  0.17218532968E+02  0.46142317497E+02  0.99999975914E+01 0.  0.
        -12    1    1    2    0    0  0.38496920781E+02  0.15831068346E+02 -0.17218532968E+02  0.45045682503E+02  0.00000000000E+00 0.  1.
         11    1    3    3    0    0 -0.22280890635E+02 -0.12220492430E+02  0.10284215410E+02  0.27414295715E+02  0.51100000000E-03 0. -1.
        -11    1    3    3    0    0 -0.11817701565E+02 -0.39609568076E+00  0.57707649209E+01  0.13157381582E+02  0.51100000000E-03 0.  1.
         12    1    3    3    0    0 -0.43983285815E+01 -0.32144802356E+01  0.11635526371E+01  0.55706401998E+01  0.00000000000E+00 0. -1.
</event>
<event>
 7    1  0.3708346E-009  0.4614232E+02  0.7816164E-02  0.1320468E+00
        -11   -1    0    0    0    0  0.00000000000E+00  0.00000000000E+00  0.45593999997E+02  0.45594000000E+02  0.51100000000E-03 0.  1.
         11   -1    0    0    0    0 -0.00000000000E+00 -0.00000000000E+00 -0.45593999997E+02  0.45594000000E+02  0.51100000000E-03 0. -1.
    9900012    2    1    2    0    0  0.14944415374E+02 -0.39377312044E+02 -0.15975144675E+02  0.46142317609E+02  0.99999986144E+01 0.  0.
        -12    1    1    2    0    0 -0.14944415374E+02  0.39377312044E+02  0.15975144675E+02  0.45045682391E+02  0.00000000000E+00 0.  1.
         11    1    3    3    0    0  0.34172602600E+00 -0.97116621390E+01 -0.52989020798E+01  0.11068492295E+02  0.51100000000E-03 0. -1.
        -11    1    3    3    0    0  0.97979967035E+01 -0.22940292572E+02 -0.63311937542E+01  0.25736001579E+02  0.51100000000E-03 0.  1.
        -12    1    3    3    0    0  0.48046926442E+01 -0.67253573333E+01 -0.43450488414E+01  0.93378237347E+01  0.00000000000E+00 0.  1.
</event>
<event>
 7    1  0.3708346E-009  0.4614232E+02  0.7816164E-02  0.1320468E+00
        -11   -1    0    0    0    0  0.00000000000E+00  0.00000000000E+00  0.45593999997E+02  0.45594000000E+02  0.51100000000E-03 0. -1.
         11   -1    0    0    0    0 -0.00000000000E+00 -0.00000000000E+00 -0.45593999997E+02  0.45594000000E+02  0.51100000000E-03 0.  1.
    9900012    2    1    2    0    0  0.13907221790E+02  0.25271209667E+02  0.34598678270E+02  0.46142318809E+02  0.10000009552E+02 0.  0.
        -12    1    1    2    0    0 -0.13907221790E+02 -0.25271209667E+02 -0.34598678270E+02  0.45045681191E+02  0.00000000000E+00 0.  1.
         11    1    3    3    0    0  0.77233224481E+01  0.20187449200E+02  0.26690374281E+02  0.34344706934E+02  0.51100000000E-03 0. -1.
        -11    1    3    3    0    0  0.16789140228E+00 -0.51046998175E+00  0.54925965500E+00  0.76840975720E+00  0.51100000000E-03 0.  1.
        -12    1    3    3    0    0  0.60160079395E+01  0.55942304489E+01  0.73590443340E+01  0.11029202118E+02  0.00000000000E+00 0.  1.
</event>
<event>
 7    1  0.3708346E-009  0.4614232E+02  0.7816164E-02  0.1320468E+00
        -11   -1    0    0    0    0  0.00000000000E+00  0.00000000000E+00  0.45593999997E+02  0.45594000000E+02  0.51100000000E-03 0.  1.
         11   -1    0    0    0    0 -0.00000000000E+00 -0.00000000000E+00 -0.45593999997E+02  0.45594000000E+02  0.51100000000E-03 0. -1.
    9900012    2    1    2    0    0  0.21404179826E+02 -0.31261891219E+02 -0.24365318783E+02  0.46142317455E+02  0.99999972042E+01 0.  0.
        -12    1    1    2    0    0 -0.21404179826E+02  0.31261891219E+02  0.24365318783E+02  0.45045682545E+02  0.00000000000E+00 0.  1.
         11    1    3    3    0    0  0.13587435535E+02 -0.12946971789E+02 -0.12931245950E+02  0.22791656478E+02  0.51100000000E-03 0. -1.
        -11    1    3    3    0    0  0.35731698194E-01  0.14590370698E+00  0.14726381357E+00  0.21036049504E+00  0.51100000000E-03 0.  1.
         12    1    3    3    0    0  0.77810125921E+01 -0.18460823137E+02 -0.11581336646E+02  0.23140300481E+02  0.00000000000E+00 0. -1.
</event>
<event>
 7    1  0.3708346E-009  0.4614232E+02  0.7816164E-02  0.1320468E+00
        -11   -1    0    0    0    0  0.00000000000E+00  0.00000000000E+00  0.45593999997E+02  0.45594000000E+02  0.51100000000E-03 0.  1.
         11   -1    0    0    0    0 -0.00000000000E+00 -0.00000000000E+00 -0.45593999997E+02  0.45594000000E+02  0.51100000000E-03 0. -1.
    9900012    2    1    2    0    0 -0.40367807551E+02 -0.16735651324E+02 -0.10930300884E+02  0.46142318863E+02  0.10000010047E+02 0.  0.
        -12    1    1    2    0    0  0.40367807551E+02  0.16735651324E+02  0.10930300884E+02  0.45045681137E+02  0.00000000000E+00 0.  1.
         11    1    3    3    0    0 -0.17576944879E+02 -0.10282067655E+02 -0.65045936509E+01  0.21377082246E+02  0.51100000000E-03 0. -1.
        -11    1    3    3    0    0 -0.19051176693E+00 -0.51501822153E+00  0.65192777583E+00  0.85237819533E+00  0.51100000000E-03 0.  1.
        -12    1    3    3    0    0 -0.22600350905E+02 -0.59385654477E+01 -0.50776350089E+01  0.23912858422E+02  0.00000000000E+00 0.  1.
</event>
<event>
 7    1  0.3708346E-009  0.4614232E+02  0.7816164E-02  0.1320468E+00
        -11   -1    0    0    0    0  0.00000000000E+00  0.00000000000E+00  0.45593999997E+02  0.45594000000E+02  0.51100000000E-03 0.  1.
         11   -1    0    0    0    0 -0.00000000000E+00 -0.00000000000E+00 -0.45593999997E+02  0.45594000000E+02  0.51100000000E-03 0. -1.
    9900012    2    1    2    0    0 -0.43474356402E+02 -0.74848772866E+00  0.11770029102E+02  0.46142317815E+02  0.10000000493E+02 0.  0.
        -12    1    1    2    0    0  0.43474356402E+02  0.74848772866E+00 -0.11770029102E+02  0.45045682185E+02  0.00000000000E+00 0.  1.
         11    1    3    3    0    0 -0.27934188025E+02 -0.10605140960E+01  0.33032688057E+01  0.28148803453E+02  0.51100000000E-03 0. -1.
        -11    1    3    3    0    0 -0.19152684433E+01 -0.63849874324E+00  0.21376096407E+01  0.29402906475E+01  0.51100000000E-03 0.  1.
         12    1    3    3    0    0 -0.13624899934E+02  0.95052511059E+00  0.63291506557E+01  0.15053223715E+02  0.00000000000E+00 0. -1.
</event>
<event>
 7    1  0.3708346E-009  0.4614232E+02  0.7816164E-02  0.1320468E+00
        -11   -1    0    0    0    0  0.00000000000E+00  0.00000000000E+00  0.45593999997E+02  0.45594000000E+02  0.51100000000E-03 0.  1.
         11   -1    0    0    0    0 -0.00000000000E+00 -0.00000000000E+00 -0.45593999997E+02  0.45594000000E+02  0.51100000000E-03 0. -1.
    9900012    2    1    2    0    0 -0.31184225739E+00 -0.39717782540E+02 -0.21248858762E+02  0.46142317697E+02  0.99999994111E+01 0.  0.
        -12    1    1    2    0    0  0.31184225739E+00  0.39717782540E+02  0.21248858762E+02  0.45045682303E+02  0.00000000000E+00 0.  1.
         11    1    3    3    0    0 -0.10093309579E+00 -0.91699408183E+01 -0.58471208180E+01  0.10875974633E+02  0.51100000000E-03 0. -1.
        -11    1    3    3    0    0  0.24418094260E+01 -0.63932335283E+01 -0.73425755704E+00  0.68829501408E+01  0.51100000000E-03 0.  1.
        -12    1    3    3    0    0 -0.26527185876E+01 -0.24154608193E+02 -0.14667480387E+02  0.28383392923E+02  0.00000000000E+00 0.  1.
</event>
<event>
 7    1  0.3708346E-009  0.4614232E+02  0.7816164E-02  0.1320468E+00
        -11   -1    0    0    0    0  0.00000000000E+00  0.00000000000E+00  0.45593999997E+02  0.45594000000E+02  0.51100000000E-03 0.  1.
         11   -1    0    0    0    0 -0.00000000000E+00 -0.00000000000E+00 -0.45593999997E+02  0.45594000000E+02  0.51100000000E-03 0. -1.
    9900012    2    1    2    0    0  0.29566585200E+02  0.14648233722E+01 -0.33952682567E+02  0.46142319614E+02  0.10000016900E+02 0.  0.
        -12    1    1    2    0    0 -0.29566585200E+02 -0.14648233722E+01  0.33952682567E+02  0.45045680386E+02  0.00000000000E+00 0.  1.
         11    1    3    3    0    0  0.14447477060E+02 -0.18844063581E+01 -0.20381782445E+02  0.25053894640E+02  0.51100000000E-03 0. -1.
        -11    1    3    3    0    0  0.14080790895E+02  0.19724166605E+01 -0.13017645319E+02  0.19277401008E+02  0.51100000000E-03 0.  1.
        -12    1    3    3    0    0  0.10383172448E+01  0.13768130698E+01 -0.55325480292E+00  0.18110239664E+01  0.00000000000E+00 0.  1.
</event>
<event>
 7    1  0.3708346E-009  0.4614232E+02  0.7816164E-02  0.1320468E+00
        -11   -1    0    0    0    0  0.00000000000E+00  0.00000000000E+00  0.45593999997E+02  0.45594000000E+02  0.51100000000E-03 0.  1.
         11   -1    0    0    0    0 -0.00000000000E+00 -0.00000000000E+00 -0.45593999997E+02  0.45594000000E+02  0.51100000000E-03 0. -1.
    9900012    2    1    2    0    0 -0.10251244423E+02 -0.24775818548E+02 -0.36196467933E+02  0.46142317768E+02  0.10000000058E+02 0.  0.
        -12    1    1    2    0    0  0.10251244423E+02  0.24775818548E+02  0.36196467933E+02  0.45045682232E+02  0.00000000000E+00 0.  1.
         11    1    3    3    0    0 -0.56532154410E+01 -0.94971195672E+01 -0.20526919526E+02  0.23313269835E+02  0.51100000000E-03 0. -1.
        -11    1    3    3    0    0 -0.31187614044E+01 -0.56216373271E+01 -0.38460219523E+01  0.74914193618E+01  0.51100000000E-03 0.  1.
         12    1    3    3    0    0 -0.14792675773E+01 -0.96570616540E+01 -0.11823526455E+02  0.15337628571E+02  0.00000000000E+00 0. -1.
</event>
<event>
 7    1  0.3708346E-009  0.4614232E+02  0.7816164E-02  0.1320468E+00
        -11   -1    0    0    0    0  0.00000000000E+00  0.00000000000E+00  0.45593999997E+02  0.45594000000E+02  0.51100000000E-03 0. -1.
         11   -1    0    0    0    0 -0.00000000000E+00 -0.00000000000E+00 -0.45593999997E+02  0.45594000000E+02  0.51100000000E-03 0.  1.
    9900012    2    1    2    0    0 -0.35607632326E+02  0.24331318562E+02  0.13007571914E+02  0.46142317965E+02  0.10000001863E+02 0.  0.
        -12    1    1    2    0    0  0.35607632326E+02 -0.24331318562E+02 -0.13007571914E+02  0.45045682035E+02  0.00000000000E+00 0.  1.
         11    1    3    3    0    0 -0.22368563047E+02  0.13366190912E+02  0.56654854994E+01  0.26666559555E+02  0.51100000000E-03 0. -1.
        -11    1    3    3    0    0 -0.10550812262E+01  0.17579952095E+01 -0.76174808648E+00  0.21872366033E+01  0.51100000000E-03 0.  1.
        -12    1    3    3    0    0 -0.12183988053E+02  0.92071324403E+01  0.81038345011E+01  0.17288521807E+02  0.00000000000E+00 0.  1.
</event>
<event>
 7    1  0.3708346E-009  0.4614231E+02  0.7816164E-02  0.1320468E+00
        -11   -1    0    0    0    0  0.00000000000E+00  0.00000000000E+00  0.45593999997E+02  0.45594000000E+02  0.51100000000E-03 0.  1.
         11   -1    0    0    0    0 -0.00000000000E+00 -0.00000000000E+00 -0.45593999997E+02  0.45594000000E+02  0.51100000000E-03 0. -1.
    9900012    2    1    2    0    0  0.40022111267E+02 -0.16209955273E+02 -0.12828955629E+02  0.46142310497E+02  0.99999337615E+01 0.  0.
        -12    1    1    2    0    0 -0.40022111267E+02  0.16209955273E+02  0.12828955629E+02  0.45045689503E+02  0.00000000000E+00 0.  1.
         11    1    3    3    0    0  0.13654252073E+02 -0.73491179812E+01 -0.84944389292E+01  0.17680600322E+02  0.51100000000E-03 0. -1.
        -11    1    3    3    0    0  0.14211990351E+02 -0.27268725052E+01 -0.30161587829E+01  0.14782209492E+02  0.51100000000E-03 0.  1.
        -12    1    3    3    0    0  0.12155868843E+02 -0.61339647865E+01 -0.13183579174E+01  0.13679500683E+02  0.00000000000E+00 0.  1.
</event>
<event>
 7    1  0.3708346E-009  0.4614232E+02  0.7816164E-02  0.1320468E+00
        -11   -1    0    0    0    0  0.00000000000E+00  0.00000000000E+00  0.45593999997E+02  0.45594000000E+02  0.51100000000E-03 0.  1.
         11   -1    0    0    0    0 -0.00000000000E+00 -0.00000000000E+00 -0.45593999997E+02  0.45594000000E+02  0.51100000000E-03 0. -1.
    9900012    2    1    2    0    0 -0.40565892150E+01 -0.38397923814E+02 -0.23200367362E+02  0.46142317466E+02  0.99999973060E+01 0.  0.
        -12    1    1    2    0    0  0.40565892150E+01  0.38397923814E+02  0.23200367362E+02  0.45045682534E+02  0.00000000000E+00 0.  1.
         11    1    3    3    0    0 -0.19887272013E+01 -0.21907716825E+01 -0.25756813143E+01  0.39228371034E+01  0.51100000000E-03 0. -1.
        -11    1    3    3    0    0 -0.17831342691E+01 -0.27075627549E+02 -0.12048977891E+02  0.29689173843E+02  0.51100000000E-03 0.  1.
        -12    1    3    3    0    0 -0.28472774468E+00 -0.91315245825E+01 -0.85757081567E+01  0.12530306520E+02  0.00000000000E+00 0.  1.
</event>
<event>
 7    1  0.3708346E-009  0.4614232E+02  0.7816164E-02  0.1320468E+00
        -11   -1    0    0    0    0  0.00000000000E+00  0.00000000000E+00  0.45593999997E+02  0.45594000000E+02  0.51100000000E-03 0. -1.
         11   -1    0    0    0    0 -0.00000000000E+00 -0.00000000000E+00 -0.45593999997E+02  0.45594000000E+02  0.51100000000E-03 0.  1.
    9900012    2    1    2    0    0 -0.22222680920E+02 -0.99572194784E+01  0.37896170598E+02  0.46142317487E+02  0.99999975046E+01 0.  0.
        -12    1    1    2    0    0  0.22222680920E+02  0.99572194784E+01 -0.37896170598E+02  0.45045682513E+02  0.00000000000E+00 0.  1.
         11    1    3    3    0    0 -0.19956113594E+02 -0.88208165378E+01  0.32407581357E+02  0.39067948549E+02  0.51100000000E-03 0. -1.
        -11    1    3    3    0    0 -0.13552787136E+00  0.11560585903E+01  0.24481552838E+01  0.27107755021E+01  0.51100000000E-03 0.  1.
        -12    1    3    3    0    0 -0.21310394542E+01 -0.22924615308E+01  0.30404339579E+01  0.43635934364E+01  0.00000000000E+00 0.  1.
</event>
<event>
 7    1  0.3708346E-009  0.4614232E+02  0.7816164E-02  0.1320468E+00
        -11   -1    0    0    0    0  0.00000000000E+00  0.00000000000E+00  0.45593999997E+02  0.45594000000E+02  0.51100000000E-03 0. -1.
         11   -1    0    0    0    0 -0.00000000000E+00 -0.00000000000E+00 -0.45593999997E+02  0.45594000000E+02  0.51100000000E-03 0.  1.
    9900012    2    1    2    0    0  0.18198911776E+02  0.29222837007E+02  0.29050626689E+02  0.46142317592E+02  0.99999984615E+01 0.  0.
        -12    1    1    2    0    0 -0.18198911776E+02 -0.29222837007E+02 -0.29050626689E+02  0.45045682408E+02  0.00000000000E+00 0.  1.
         11    1    3    3    0    0  0.75563454671E+01  0.96096300247E+01  0.77209224963E+01  0.14458768637E+02  0.51100000000E-03 0. -1.
        -11    1    3    3    0    0  0.57475335083E+01  0.41223302235E+01  0.51010025016E+01  0.87205489898E+01  0.51100000000E-03 0.  1.
        -12    1    3    3    0    0  0.48950328004E+01  0.15490876759E+02  0.16228701691E+02  0.22962999966E+02  0.00000000000E+00 0.  1.
</event>
<event>
 7    1  0.3708346E-009  0.4614232E+02  0.7816164E-02  0.1320468E+00
        -11   -1    0    0    0    0  0.00000000000E+00  0.00000000000E+00  0.45593999997E+02  0.45594000000E+02  0.51100000000E-03 0.  1.
         11   -1    0    0    0    0 -0.00000000000E+00 -0.00000000000E+00 -0.45593999997E+02  0.45594000000E+02  0.51100000000E-03 0. -1.
    9900012    2    1    2    0    0 -0.33182874994E+02  0.20505217818E+02 -0.22528789308E+02  0.46142317650E+02  0.99999989897E+01 0.  0.
        -12    1    1    2    0    0  0.33182874994E+02 -0.20505217818E+02  0.22528789308E+02  0.45045682350E+02  0.00000000000E+00 0.  1.
         11    1    3    3    0    0 -0.14329420578E+02  0.82863277051E+01 -0.12282793775E+02  0.20612194063E+02  0.51100000000E-03 0. -1.
        -11    1    3    3    0    0 -0.19087383338E+02  0.10936439486E+02 -0.10137667255E+02  0.24222019093E+02  0.51100000000E-03 0.  1.
        -12    1    3    3    0    0  0.23392892114E+00  0.12824506269E+01 -0.10832827828E+00  0.13081044938E+01  0.00000000000E+00 0.  1.
</event>
<event>
 7    1  0.3708346E-009  0.4614232E+02  0.7816164E-02  0.1320468E+00
        -11   -1    0    0    0    0  0.00000000000E+00  0.00000000000E+00  0.45593999997E+02  0.45594000000E+02  0.51100000000E-03 0.  1.
         11   -1    0    0    0    0 -0.00000000000E+00 -0.00000000000E+00 -0.45593999997E+02  0.45594000000E+02  0.51100000000E-03 0. -1.
    9900012    2    1    2    0    0  0.43720884072E+02 -0.45037670623E+01 -0.98647808269E+01  0.46142317382E+02  0.99999965413E+01 0.  0.
        -12    1    1    2    0    0 -0.43720884072E+02  0.45037670623E+01  0.98647808269E+01  0.45045682618E+02  0.00000000000E+00 0.  1.
         11    1    3    3    0    0  0.10491223524E+02 -0.31199949211E+01 -0.29363795345E+01  0.11332363583E+02  0.51100000000E-03 0. -1.
        -11    1    3    3    0    0  0.28236267212E+02  0.16187578456E+01 -0.59515581699E+01  0.28902045048E+02  0.51100000000E-03 0.  1.
        -12    1    3    3    0    0  0.49933933353E+01 -0.30025299868E+01 -0.97684312246E+00  0.59079087508E+01  0.00000000000E+00 0.  1.
</event>
<event>
 7    1  0.3708346E-009  0.4614232E+02  0.7816164E-02  0.1320468E+00
        -11   -1    0    0    0    0  0.00000000000E+00  0.00000000000E+00  0.45593999997E+02  0.45594000000E+02  0.51100000000E-03 0. -1.
         11   -1    0    0    0    0 -0.00000000000E+00 -0.00000000000E+00 -0.45593999997E+02  0.45594000000E+02  0.51100000000E-03 0.  1.
    9900012    2    1    2    0    0 -0.22420300802E+02 -0.37142509309E+02  0.12119313996E+02  0.46142315883E+02  0.99999828779E+01 0.  0.
        -12    1    1    2    0    0  0.22420300802E+02  0.37142509309E+02 -0.12119313996E+02  0.45045684117E+02  0.00000000000E+00 0.  1.
         11    1    3    3    0    0 -0.28809895504E+01 -0.83515411827E+01  0.26773451726E+01  0.92312793452E+01  0.51100000000E-03 0. -1.
        -11    1    3    3    0    0 -0.42221138477E+01 -0.27077237531E+01 -0.57211336606E+00  0.50482994394E+01  0.51100000000E-03 0.  1.
        -12    1    3    3    0    0 -0.15317197404E+02 -0.26083244373E+02  0.10014082189E+02  0.31862737099E+02  0.00000000000E+00 0.  1.
</event>
<event>
 7    1  0.3708346E-009  0.4614232E+02  0.7816164E-02  0.1320468E+00
        -11   -1    0    0    0    0  0.00000000000E+00  0.00000000000E+00  0.45593999997E+02  0.45594000000E+02  0.51100000000E-03 0.  1.
         11   -1    0    0    0    0 -0.00000000000E+00 -0.00000000000E+00 -0.45593999997E+02  0.45594000000E+02  0.51100000000E-03 0. -1.
    9900012    2    1    2    0    0 -0.33500441514E+02 -0.27193828010E+02 -0.12935592685E+02  0.46142318502E+02  0.10000006759E+02 0.  0.
        -12    1    1    2    0    0  0.33500441514E+02  0.27193828010E+02  0.12935592685E+02  0.45045681498E+02  0.00000000000E+00 0.  1.
         11    1    3    3    0    0 -0.21357661675E+01 -0.34056824884E+01 -0.32627298805E+01  0.51774102472E+01  0.51100000000E-03 0. -1.
        -11    1    3    3    0    0 -0.15139361599E+01 -0.22825128950E+01 -0.19768574089E+01  0.33778444737E+01  0.51100000000E-03 0.  1.
         12    1    3    3    0    0 -0.29850739186E+02 -0.21505632627E+02 -0.76960053961E+01  0.37587063781E+02  0.00000000000E+00 0. -1.
</event>
<event>
 7    1  0.3708346E-009  0.4614232E+02  0.7816164E-02  0.1320468E+00
        -11   -1    0    0    0    0  0.00000000000E+00  0.00000000000E+00  0.45593999997E+02  0.45594000000E+02  0.51100000000E-03 0.  1.
         11   -1    0    0    0    0 -0.00000000000E+00 -0.00000000000E+00 -0.45593999997E+02  0.45594000000E+02  0.51100000000E-03 0. -1.
    9900012    2    1    2    0    0  0.19875725408E+02 -0.26716842853E+02 -0.30336107310E+02  0.46142316974E+02  0.99999928234E+01 0.  0.
        -12    1    1    2    0    0 -0.19875725408E+02  0.26716842853E+02  0.30336107310E+02  0.45045683026E+02  0.00000000000E+00 0.  1.
         11    1    3    3    0    0  0.15596848545E+02 -0.25557361626E+02 -0.26469825551E+02  0.39963634504E+02  0.51100000000E-03 0. -1.
        -11    1    3    3    0    0  0.23330980868E+01 -0.15942309689E+01 -0.22568801227E+01  0.36164108194E+01  0.51100000000E-03 0.  1.
         12    1    3    3    0    0  0.19457787762E+01  0.43474974182E+00 -0.16094016360E+01  0.25622716502E+01  0.00000000000E+00 0. -1.
</event>
<event>
 7    1  0.3708346E-009  0.4614232E+02  0.7816164E-02  0.1320468E+00
        -11   -1    0    0    0    0  0.00000000000E+00  0.00000000000E+00  0.45593999997E+02  0.45594000000E+02  0.51100000000E-03 0.  1.
         11   -1    0    0    0    0 -0.00000000000E+00 -0.00000000000E+00 -0.45593999997E+02  0.45594000000E+02  0.51100000000E-03 0. -1.
    9900012    2    1    2    0    0 -0.27448223002E+02  0.30536453552E+02 -0.18526561387E+02  0.46142318538E+02  0.10000007088E+02 0.  0.
        -12    1    1    2    0    0  0.27448223002E+02 -0.30536453552E+02  0.18526561387E+02  0.45045681462E+02  0.00000000000E+00 0.  1.
         11    1    3    3    0    0 -0.61268129727E+00  0.48930842857E+01 -0.25146887587E+01  0.55354595123E+01  0.51100000000E-03 0. -1.
        -11    1    3    3    0    0 -0.12429219387E+02  0.99691795209E+01 -0.54315678609E+01  0.16833655711E+02  0.51100000000E-03 0.  1.
         12    1    3    3    0    0 -0.14406322317E+02  0.15674189746E+02 -0.10580304768E+02  0.23773203315E+02  0.00000000000E+00 0. -1.
</event>
<event>
 7    1  0.3708346E-009  0.4614232E+02  0.7816164E-02  0.1320468E+00
        -11   -1    0    0    0    0  0.00000000000E+00  0.00000000000E+00  0.45593999997E+02  0.45594000000E+02  0.51100000000E-03 0. -1.
         11   -1    0    0    0    0 -0.00000000000E+00 -0.00000000000E+00 -0.45593999997E+02  0.45594000000E+02  0.51100000000E-03 0.  1.
    9900012    2    1    2    0    0  0.41535168565E+02  0.45997646161E+01  0.16816224061E+02  0.46142318143E+02  0.10000003486E+02 0.  0.
        -12    1    1    2    0    0 -0.41535168565E+02 -0.45997646161E+01 -0.16816224061E+02  0.45045681857E+02  0.00000000000E+00 0.  1.
         11    1    3    3    0    0  0.15139650929E+02  0.44804345261E+01  0.70281832664E+01  0.17282322879E+02  0.51100000000E-03 0. -1.
        -11    1    3    3    0    0  0.53463488029E+01  0.21144487961E+01  0.51472892102E+00  0.57722859732E+01  0.51100000000E-03 0.  1.
        -12    1    3    3    0    0  0.21049168833E+02 -0.19951187062E+01  0.92733118733E+01  0.23087709291E+02  0.00000000000E+00 0.  1.
</event>
<event>
 7    1  0.3708346E-009  0.4614232E+02  0.7816164E-02  0.1320468E+00
        -11   -1    0    0    0    0  0.00000000000E+00  0.00000000000E+00  0.45593999997E+02  0.45594000000E+02  0.51100000000E-03 0.  1.
         11   -1    0    0    0    0 -0.00000000000E+00 -0.00000000000E+00 -0.45593999997E+02  0.45594000000E+02  0.51100000000E-03 0. -1.
    9900012    2    1    2    0    0 -0.13520876370E+02 -0.42647792715E+02 -0.52407239770E+01  0.46142317531E+02  0.99999979018E+01 0.  0.
        -12    1    1    2    0    0  0.13520876370E+02  0.42647792715E+02  0.52407239770E+01  0.45045682469E+02  0.00000000000E+00 0.  1.
         11    1    3    3    0    0 -0.47412531329E+01 -0.17448429121E+02 -0.54936885442E+01  0.18897295419E+02  0.51100000000E-03 0. -1.
        -11    1    3    3    0    0 -0.31833897489E+01 -0.12639277501E+02  0.26135759732E+01  0.13293460260E+02  0.51100000000E-03 0.  1.
        -12    1    3    3    0    0 -0.55962334879E+01 -0.12560086093E+02 -0.23606114061E+01  0.13951561852E+02  0.00000000000E+00 0.  1.
</event>
<event>
 7    1  0.3708346E-009  0.4614232E+02  0.7816164E-02  0.1320468E+00
        -11   -1    0    0    0    0  0.00000000000E+00  0.00000000000E+00  0.45593999997E+02  0.45594000000E+02  0.51100000000E-03 0. -1.
         11   -1    0    0    0    0 -0.00000000000E+00 -0.00000000000E+00 -0.45593999997E+02  0.45594000000E+02  0.51100000000E-03 0.  1.
    9900012    2    1    2    0    0 -0.14220105507E+02  0.42730075910E+02 -0.10211443856E+01  0.46142317368E+02  0.99999964149E+01 0.  0.
        -12    1    1    2    0    0  0.14220105507E+02 -0.42730075910E+02  0.10211443856E+01  0.45045682632E+02  0.00000000000E+00 0.  1.
         11    1    3    3    0    0 -0.48860834934E+01  0.19647505336E+02  0.20760805879E+01  0.20352110178E+02  0.51100000000E-03 0. -1.
        -11    1    3    3    0    0 -0.93512911476E+01  0.23100740752E+02 -0.36930646501E+01  0.25193840442E+02  0.51100000000E-03 0.  1.
        -12    1    3    3    0    0  0.17269133765E-01 -0.18170177756E-01  0.59583967668E+00  0.59636674845E+00  0.00000000000E+00 0.  1.
</event>
<event>
 7    1  0.3708346E-009  0.4614232E+02  0.7816164E-02  0.1320468E+00
        -11   -1    0    0    0    0  0.00000000000E+00  0.00000000000E+00  0.45593999997E+02  0.45594000000E+02  0.51100000000E-03 0.  1.
         11   -1    0    0    0    0 -0.00000000000E+00 -0.00000000000E+00 -0.45593999997E+02  0.45594000000E+02  0.51100000000E-03 0. -1.
    9900012    2    1    2    0    0 -0.29278991729E+02  0.11868447029E+01 -0.34211775082E+02  0.46142317507E+02  0.99999976844E+01 0.  0.
        -12    1    1    2    0    0  0.29278991729E+02 -0.11868447029E+01  0.34211775082E+02  0.45045682493E+02  0.00000000000E+00 0.  1.
         11    1    3    3    0    0 -0.65956201095E+01 -0.24346127908E+01 -0.71136925971E+01  0.10001708189E+02  0.51100000000E-03 0. -1.
        -11    1    3    3    0    0 -0.11144341213E+02  0.24670712984E+01 -0.85325481024E+01  0.14250865211E+02  0.51100000000E-03 0.  1.
        -12    1    3    3    0    0 -0.11539030406E+02  0.11543861952E+01 -0.18565534382E+02  0.21889744107E+02  0.00000000000E+00 0.  1.
</event>
<event>
 7    1  0.3708346E-009  0.4614232E+02  0.7816164E-02  0.1320468E+00
        -11   -1    0    0    0    0  0.00000000000E+00  0.00000000000E+00  0.45593999997E+02  0.45594000000E+02  0.51100000000E-03 0.  1.
         11   -1    0    0    0    0 -0.00000000000E+00 -0.00000000000E+00 -0.45593999997E+02  0.45594000000E+02  0.51100000000E-03 0. -1.
    9900012    2    1    2    0    0  0.24125702642E+02  0.38009929804E+02  0.15196006422E+01  0.46142317879E+02  0.10000001075E+02 0.  0.
        -12    1    1    2    0    0 -0.24125702642E+02 -0.38009929804E+02 -0.15196006422E+01  0.45045682121E+02  0.00000000000E+00 0.  1.
         11    1    3    3    0    0  0.18807349882E+01  0.59203809017E+01  0.19590662274E+01  0.65135255324E+01  0.51100000000E-03 0. -1.
        -11    1    3    3    0    0  0.68579780163E+01  0.51748411886E+01  0.56547728821E+00  0.86099133923E+01  0.51100000000E-03 0.  1.
        -12    1    3    3    0    0  0.15386989637E+02  0.26914707713E+02 -0.10049428734E+01  0.31018878954E+02  0.00000000000E+00 0.  1.
</event>
<event>
 7    1  0.3708346E-009  0.4614232E+02  0.7816164E-02  0.1320468E+00
        -11   -1    0    0    0    0  0.00000000000E+00  0.00000000000E+00  0.45593999997E+02  0.45594000000E+02  0.51100000000E-03 0.  1.
         11   -1    0    0    0    0 -0.00000000000E+00 -0.00000000000E+00 -0.45593999997E+02  0.45594000000E+02  0.51100000000E-03 0. -1.
    9900012    2    1    2    0    0  0.67372384198E+01  0.44507697777E+02 -0.16697188108E+01  0.46142317589E+02  0.99999984294E+01 0.  0.
        -12    1    1    2    0    0 -0.67372384198E+01 -0.44507697777E+02  0.16697188108E+01  0.45045682411E+02  0.00000000000E+00 0.  1.
         11    1    3    3    0    0  0.80683498932E+01  0.33289802072E+02 -0.39798092876E+01  0.34484026364E+02  0.51100000000E-03 0. -1.
        -11    1    3    3    0    0 -0.13803875643E+01  0.60102213356E+01  0.69527078415E+00  0.62057740899E+01  0.51100000000E-03 0.  1.
         12    1    3    3    0    0  0.49276090890E-01  0.52076743695E+01  0.16148196927E+01  0.54525171354E+01  0.00000000000E+00 0. -1.
</event>
<event>
 7    1  0.3708346E-009  0.4614233E+02  0.7816164E-02  0.1320468E+00
        -11   -1    0    0    0    0  0.00000000000E+00  0.00000000000E+00  0.45593999997E+02  0.45594000000E+02  0.51100000000E-03 0. -1.
         11   -1    0    0    0    0 -0.00000000000E+00 -0.00000000000E+00 -0.45593999997E+02  0.45594000000E+02  0.51100000000E-03 0.  1.
    9900012    2    1    2    0    0 -0.89842172760E+01 -0.12352527617E+02  0.42377015433E+02  0.46142328337E+02  0.10000096435E+02 0.  0.
        -12    1    1    2    0    0  0.89842172760E+01  0.12352527617E+02 -0.42377015433E+02  0.45045671663E+02  0.00000000000E+00 0.  1.
         11    1    3    3    0    0 -0.28377136779E+01  0.31096122495E+00  0.47269567091E+01  0.55220861811E+01  0.51100000000E-03 0. -1.
        -11    1    3    3    0    0 -0.15067222678E+01  0.22491865476E+00  0.45278156404E+01  0.47772288126E+01  0.51100000000E-03 0.  1.
         12    1    3    3    0    0 -0.46397813303E+01 -0.12888407497E+02  0.33122243084E+02  0.35843013343E+02  0.00000000000E+00 0. -1.
</event>
<event>
 7    1  0.3708346E-009  0.4614232E+02  0.7816164E-02  0.1320468E+00
        -11   -1    0    0    0    0  0.00000000000E+00  0.00000000000E+00  0.45593999997E+02  0.45594000000E+02  0.51100000000E-03 0. -1.
         11   -1    0    0    0    0 -0.00000000000E+00 -0.00000000000E+00 -0.45593999997E+02  0.45594000000E+02  0.51100000000E-03 0.  1.
    9900012    2    1    2    0    0 -0.20070155229E+02 -0.16811917416E+02  0.36655995632E+02  0.46142315257E+02  0.99999771688E+01 0.  0.
        -12    1    1    2    0    0  0.20070155229E+02  0.16811917416E+02 -0.36655995632E+02  0.45045684743E+02  0.00000000000E+00 0.  1.
         11    1    3    3    0    0 -0.89154833291E+01 -0.85934883261E+01  0.19296632338E+02  0.22928015711E+02  0.51100000000E-03 0. -1.
        -11    1    3    3    0    0 -0.44094562051E+01  0.44012606099E+00  0.47103764665E+01  0.64671989062E+01  0.51100000000E-03 0.  1.
         12    1    3    3    0    0 -0.67452156950E+01 -0.86585551511E+01  0.12648986828E+02  0.16747100640E+02  0.00000000000E+00 0. -1.
</event>
<event>
 7    1  0.3708346E-009  0.4614232E+02  0.7816164E-02  0.1320468E+00
        -11   -1    0    0    0    0  0.00000000000E+00  0.00000000000E+00  0.45593999997E+02  0.45594000000E+02  0.51100000000E-03 0.  1.
         11   -1    0    0    0    0 -0.00000000000E+00 -0.00000000000E+00 -0.45593999997E+02  0.45594000000E+02  0.51100000000E-03 0. -1.
    9900012    2    1    2    0    0  0.47385617162E+01 -0.59891560161E+01 -0.44393574001E+02  0.46142319081E+02  0.10000012032E+02 0.  0.
        -12    1    1    2    0    0 -0.47385617162E+01  0.59891560161E+01  0.44393574001E+02  0.45045680919E+02  0.00000000000E+00 0.  1.
         11    1    3    3    0    0 -0.76454185321E+00 -0.22456357990E+01 -0.73219130223E+01  0.76966106147E+01  0.51100000000E-03 0. -1.
        -11    1    3    3    0    0 -0.13778943086E+01  0.10782762468E+01 -0.76700124979E+01  0.78670429241E+01  0.51100000000E-03 0.  1.
        -12    1    3    3    0    0  0.68809978780E+01 -0.48217964638E+01 -0.29401648481E+02  0.30578665542E+02  0.00000000000E+00 0.  1.
</event>
<event>
 7    1  0.3708346E-009  0.4614232E+02  0.7816164E-02  0.1320468E+00
        -11   -1    0    0    0    0  0.00000000000E+00  0.00000000000E+00  0.45593999997E+02  0.45594000000E+02  0.51100000000E-03 0.  1.
         11   -1    0    0    0    0 -0.00000000000E+00 -0.00000000000E+00 -0.45593999997E+02  0.45594000000E+02  0.51100000000E-03 0. -1.
    9900012    2    1    2    0    0  0.11493095019E+02 -0.12098204177E+02 -0.41840838210E+02  0.46142317415E+02  0.99999968464E+01 0.  0.
        -12    1    1    2    0    0 -0.11493095019E+02  0.12098204177E+02  0.41840838210E+02  0.45045682585E+02  0.00000000000E+00 0.  1.
         11    1    3    3    0    0  0.34531294397E+01 -0.70053880251E+01 -0.29421160450E+02  0.30440174881E+02  0.51100000000E-03 0. -1.
        -11    1    3    3    0    0  0.54000437710E+01 -0.41183436590E+01 -0.86181971127E+01  0.10972444985E+02  0.51100000000E-03 0.  1.
         12    1    3    3    0    0  0.26399218078E+01 -0.97447249264E+00 -0.38014806471E+01  0.47296975486E+01  0.00000000000E+00 0. -1.
</event>
<event>
 7    1  0.3708346E-009  0.4614232E+02  0.7816164E-02  0.1320468E+00
        -11   -1    0    0    0    0  0.00000000000E+00  0.00000000000E+00  0.45593999997E+02  0.45594000000E+02  0.51100000000E-03 0.  1.
         11   -1    0    0    0    0 -0.00000000000E+00 -0.00000000000E+00 -0.45593999997E+02  0.45594000000E+02  0.51100000000E-03 0. -1.
    9900012    2    1    2    0    0 -0.18886652368E+02 -0.35736928739E+02 -0.19881643941E+02  0.46142317864E+02  0.10000000936E+02 0.  0.
        -12    1    1    2    0    0  0.18886652368E+02  0.35736928739E+02  0.19881643941E+02  0.45045682136E+02  0.00000000000E+00 0.  1.
         11    1    3    3    0    0 -0.10211573173E+02 -0.17421039742E+02 -0.82488045378E+01  0.21813106815E+02  0.51100000000E-03 0. -1.
        -11    1    3    3    0    0  0.81300013314E+00 -0.10205458494E+00 -0.60624686214E+00  0.10192741897E+01  0.51100000000E-03 0.  1.
        -12    1    3    3    0    0 -0.94880793287E+01 -0.18213834412E+02 -0.11026592541E+02  0.23309936859E+02  0.00000000000E+00 0.  1.
</event>
<event>
 7    1  0.3708346E-009  0.4614232E+02  0.7816164E-02  0.1320468E+00
        -11   -1    0    0    0    0  0.00000000000E+00  0.00000000000E+00  0.45593999997E+02  0.45594000000E+02  0.51100000000E-03 0.  1.
         11   -1    0    0    0    0 -0.00000000000E+00 -0.00000000000E+00 -0.45593999997E+02  0.45594000000E+02  0.51100000000E-03 0. -1.
    9900012    2    1    2    0    0 -0.67906456771E-02  0.22166151186E+02 -0.39214473361E+02  0.46142320679E+02  0.10000026610E+02 0.  0.
        -12    1    1    2    0    0  0.67906456771E-02 -0.22166151186E+02  0.39214473361E+02  0.45045679321E+02  0.00000000000E+00 0.  1.
         11    1    3    3    0    0 -0.16483407731E+01  0.85939313151E+01 -0.15904736588E+02  0.18153052882E+02  0.51100000000E-03 0. -1.
        -11    1    3    3    0    0  0.83230936991E+00 -0.45254066023E-01  0.15453241352E+00  0.84774249963E+00  0.51100000000E-03 0.  1.
        -12    1    3    3    0    0  0.80924075753E+00  0.13617473937E+02 -0.23464269186E+02  0.27141525297E+02  0.00000000000E+00 0.  1.
</event>
<event>
 7    1  0.3726120E-009  0.4614232E+02  0.7816164E-02  0.1320468E+00
        -11   -1    0    0    0    0  0.00000000000E+00  0.00000000000E+00  0.45593999997E+02  0.45594000000E+02  0.51100000000E-03 0. -1.
         11   -1    0    0    0    0 -0.00000000000E+00 -0.00000000000E+00 -0.45593999997E+02  0.45594000000E+02  0.51100000000E-03 0.  1.
    9900012    2    1    2    0    0  0.91993431451E+01  0.42998752385E+02  0.97771595409E+01  0.46142317969E+02  0.10000001893E+02 0.  0.
        -12    1    1    2    0    0 -0.91993431451E+01 -0.42998752385E+02 -0.97771595409E+01  0.45045682031E+02  0.00000000000E+00 0.  1.
         11    1    3    3    0    0  0.90908071168E+01  0.41008974561E+02  0.72262034545E+01  0.42621553059E+02  0.51100000000E-03 0. -1.
        -11    1    3    3    0    0  0.37131340546E+00  0.87700835750E-01  0.93954051135E+00  0.10140521265E+01  0.51100000000E-03 0.  1.
         12    1    3    3    0    0 -0.26277737716E+00  0.19020769885E+01  0.16114155750E+01  0.25067127828E+01  0.00000000000E+00 0. -1.
</event>
<event>
 7    1  0.3708346E-009  0.4614232E+02  0.7816164E-02  0.1320468E+00
        -11   -1    0    0    0    0  0.00000000000E+00  0.00000000000E+00  0.45593999997E+02  0.45594000000E+02  0.51100000000E-03 0.  1.
         11   -1    0    0    0    0 -0.00000000000E+00 -0.00000000000E+00 -0.45593999997E+02  0.45594000000E+02  0.51100000000E-03 0. -1.
    9900012    2    1    2    0    0  0.73153014013E+01  0.43642281893E+02  0.84232511437E+01  0.46142316930E+02  0.99999924174E+01 0.  0.
        -12    1    1    2    0    0 -0.73153014013E+01 -0.43642281893E+02 -0.84232511437E+01  0.45045683070E+02  0.00000000000E+00 0.  1.
         11    1    3    3    0    0  0.94787573291E+00  0.12092595269E+02  0.82186279355E+00  0.12157499227E+02  0.51100000000E-03 0. -1.
        -11    1    3    3    0    0  0.55524538123E+00 -0.21188776623E+00  0.78430156998E+00  0.98403408104E+00  0.51100000000E-03 0.  1.
         12    1    3    3    0    0  0.58121802871E+01  0.31761574391E+02  0.68170867801E+01  0.33000783621E+02  0.00000000000E+00 0. -1.
</event>
<event>
 7    1  0.3708346E-009  0.4614232E+02  0.7816164E-02  0.1320468E+00
        -11   -1    0    0    0    0  0.00000000000E+00  0.00000000000E+00  0.45593999997E+02  0.45594000000E+02  0.51100000000E-03 0. -1.
         11   -1    0    0    0    0 -0.00000000000E+00 -0.00000000000E+00 -0.45593999997E+02  0.45594000000E+02  0.51100000000E-03 0.  1.
    9900012    2    1    2    0    0  0.39965726241E+02  0.15878568063E+02  0.13406166977E+02  0.46142317513E+02  0.99999977392E+01 0.  0.
        -12    1    1    2    0    0 -0.39965726241E+02 -0.15878568063E+02 -0.13406166977E+02  0.45045682487E+02  0.00000000000E+00 0.  1.
         11    1    3    3    0    0  0.10115392383E+02  0.35539283525E+01  0.69796786704E+01  0.12793259335E+02  0.51100000000E-03 0. -1.
        -11    1    3    3    0    0  0.24912275152E+02  0.11139596271E+02  0.35683164825E+01  0.27521717627E+02  0.51100000000E-03 0.  1.
        -12    1    3    3    0    0  0.49380587061E+01  0.11850434390E+01  0.28581718236E+01  0.58273405521E+01  0.00000000000E+00 0.  1.
</event>
<event>
 7    1  0.3708346E-009  0.4614232E+02  0.7816164E-02  0.1320468E+00
        -11   -1    0    0    0    0  0.00000000000E+00  0.00000000000E+00  0.45593999997E+02  0.45594000000E+02  0.51100000000E-03 0. -1.
         11   -1    0    0    0    0 -0.00000000000E+00 -0.00000000000E+00 -0.45593999997E+02  0.45594000000E+02  0.51100000000E-03 0.  1.
    9900012    2    1    2    0    0 -0.16159362521E+02 -0.31840094897E+02  0.27462643870E+02  0.46142318205E+02  0.10000004044E+02 0.  0.
        -12    1    1    2    0    0  0.16159362521E+02  0.31840094897E+02 -0.27462643870E+02  0.45045681795E+02  0.00000000000E+00 0.  1.
         11    1    3    3    0    0 -0.58379337977E+01 -0.78287630837E+01  0.61882735059E+01  0.11561389696E+02  0.51100000000E-03 0. -1.
        -11    1    3    3    0    0 -0.48309732147E+01 -0.19677651212E+02  0.16123329504E+02  0.25894208116E+02  0.51100000000E-03 0.  1.
        -12    1    3    3    0    0 -0.54904555082E+01 -0.43336806010E+01  0.51510408599E+01  0.86867203926E+01  0.00000000000E+00 0.  1.
</event>
<event>
 7    1  0.3708346E-009  0.4614232E+02  0.7816164E-02  0.1320468E+00
        -11   -1    0    0    0    0  0.00000000000E+00  0.00000000000E+00  0.45593999997E+02  0.45594000000E+02  0.51100000000E-03 0.  1.
         11   -1    0    0    0    0 -0.00000000000E+00 -0.00000000000E+00 -0.45593999997E+02  0.45594000000E+02  0.51100000000E-03 0. -1.
    9900012    2    1    2    0    0  0.75776266563E+00 -0.44947826116E+02  0.28691679837E+01  0.46142318723E+02  0.10000008773E+02 0.  0.
        -12    1    1    2    0    0 -0.75776266563E+00  0.44947826116E+02 -0.28691679837E+01  0.45045681277E+02  0.00000000000E+00 0.  1.
         11    1    3    3    0    0 -0.67236580927E+00 -0.97735582930E+00 -0.75729453740E+00  0.14074073597E+01  0.51100000000E-03 0. -1.
        -11    1    3    3    0    0 -0.12974160352E+00 -0.29152247826E+01  0.21480296165E+01  0.36234513811E+01  0.51100000000E-03 0.  1.
         12    1    3    3    0    0  0.15598700784E+01 -0.41055245504E+02  0.14784329046E+01  0.41111459982E+02  0.00000000000E+00 0. -1.
</event>
<event>
 7    1  0.3708346E-009  0.4614232E+02  0.7816164E-02  0.1320468E+00
        -11   -1    0    0    0    0  0.00000000000E+00  0.00000000000E+00  0.45593999997E+02  0.45594000000E+02  0.51100000000E-03 0.  1.
         11   -1    0    0    0    0 -0.00000000000E+00 -0.00000000000E+00 -0.45593999997E+02  0.45594000000E+02  0.51100000000E-03 0. -1.
    9900012    2    1    2    0    0  0.13338484275E+02 -0.36627433132E+02 -0.22574973962E+02  0.46142317965E+02  0.10000001856E+02 0.  0.
        -12    1    1    2    0    0 -0.13338484275E+02  0.36627433132E+02  0.22574973962E+02  0.45045682035E+02  0.00000000000E+00 0.  1.
         11    1    3    3    0    0  0.94498364691E+01 -0.17012951259E+02 -0.11148258915E+02  0.22428187553E+02  0.51100000000E-03 0. -1.
        -11    1    3    3    0    0  0.15455007556E+01 -0.62138008287E+01 -0.68114576083E+01  0.93485746687E+01  0.51100000000E-03 0.  1.
        -12    1    3    3    0    0  0.23431470508E+01 -0.13400681045E+02 -0.46152574384E+01  0.14365555743E+02  0.00000000000E+00 0.  1.
</event>
<event>
 7    1  0.3708346E-009  0.4614232E+02  0.7816164E-02  0.1320468E+00
        -11   -1    0    0    0    0  0.00000000000E+00  0.00000000000E+00  0.45593999997E+02  0.45594000000E+02  0.51100000000E-03 0. -1.
         11   -1    0    0    0    0 -0.00000000000E+00 -0.00000000000E+00 -0.45593999997E+02  0.45594000000E+02  0.51100000000E-03 0.  1.
    9900012    2    1    2    0    0 -0.35856049345E+02 -0.15162883672E+02 -0.22661515861E+02  0.46142316334E+02  0.99999869826E+01 0.  0.
        -12    1    1    2    0    0  0.35856049345E+02  0.15162883672E+02  0.22661515861E+02  0.45045683666E+02  0.00000000000E+00 0.  1.
         11    1    3    3    0    0 -0.15364949353E+02 -0.74031194463E+01 -0.51907369611E+01  0.17827832079E+02  0.51100000000E-03 0. -1.
        -11    1    3    3    0    0 -0.10626392904E+01 -0.15550510580E+01 -0.16134434595E+01  0.24800375224E+01  0.51100000000E-03 0.  1.
         12    1    3    3    0    0 -0.19428460701E+02 -0.62047131671E+01 -0.15857335440E+02  0.25834446732E+02  0.00000000000E+00 0. -1.
</event>
<event>
 7    1  0.3708346E-009  0.4614232E+02  0.7816164E-02  0.1320468E+00
        -11   -1    0    0    0    0  0.00000000000E+00  0.00000000000E+00  0.45593999997E+02  0.45594000000E+02  0.51100000000E-03 0.  1.
         11   -1    0    0    0    0 -0.00000000000E+00 -0.00000000000E+00 -0.45593999997E+02  0.45594000000E+02  0.51100000000E-03 0. -1.
    9900012    2    1    2    0    0 -0.11449712792E+02  0.30368271074E+02 -0.31237569435E+02  0.46142317019E+02  0.99999932311E+01 0.  0.
        -12    1    1    2    0    0  0.11449712792E+02 -0.30368271074E+02  0.31237569435E+02  0.45045682981E+02  0.00000000000E+00 0.  1.
         11    1    3    3    0    0 -0.60006090606E+01  0.23409321360E+02 -0.18168618067E+02  0.30234125064E+02  0.51100000000E-03 0. -1.
        -11    1    3    3    0    0 -0.43793232043E+01  0.41455428855E+01 -0.93152548794E+01  0.11096754988E+02  0.51100000000E-03 0.  1.
         12    1    3    3    0    0 -0.10697805273E+01  0.28134068286E+01 -0.37536964884E+01  0.48114369669E+01  0.00000000000E+00 0. -1.
</event>
<event>
 7    1  0.3708346E-009  0.4614231E+02  0.7816164E-02  0.1320468E+00
        -11   -1    0    0    0    0  0.00000000000E+00  0.00000000000E+00  0.45593999997E+02  0.45594000000E+02  0.51100000000E-03 0.  1.
         11   -1    0    0    0    0 -0.00000000000E+00 -0.00000000000E+00 -0.45593999997E+02  0.45594000000E+02  0.51100000000E-03 0. -1.
    9900012    2    1    2    0    0  0.28150533092E+02 -0.29885216893E+02 -0.18534719469E+02  0.46142306223E+02  0.99998947827E+01 0.  0.
        -12    1    1    2    0    0 -0.28150533092E+02  0.29885216893E+02  0.18534719469E+02  0.45045693777E+02  0.00000000000E+00 0.  1.
         11    1    3    3    0    0  0.81742626569E+01 -0.64934271472E+01 -0.76586215165E+01  0.12947495893E+02  0.51100000000E-03 0. -1.
        -11    1    3    3    0    0  0.15343189448E+02 -0.18313643653E+02 -0.56254739433E+01  0.24544835783E+02  0.51100000000E-03 0.  1.
        -12    1    3    3    0    0  0.46330809868E+01 -0.50781460931E+01 -0.52506240091E+01  0.86499745467E+01  0.00000000000E+00 0.  1.
</event>
<event>
 7    1  0.3708346E-009  0.4614232E+02  0.7816164E-02  0.1320468E+00
        -11   -1    0    0    0    0  0.00000000000E+00  0.00000000000E+00  0.45593999997E+02  0.45594000000E+02  0.51100000000E-03 0.  1.
         11   -1    0    0    0    0 -0.00000000000E+00 -0.00000000000E+00 -0.45593999997E+02  0.45594000000E+02  0.51100000000E-03 0. -1.
    9900012    2    1    2    0    0 -0.60077277727E+01  0.24959381936E+02 -0.37014178083E+02  0.46142324083E+02  0.10000057652E+02 0.  0.
        -12    1    1    2    0    0  0.60077277727E+01 -0.24959381936E+02  0.37014178083E+02  0.45045675917E+02  0.00000000000E+00 0.  1.
         11    1    3    3    0    0 -0.64736667578E+01  0.10478581775E+02 -0.16521426366E+02  0.20607439597E+02  0.51100000000E-03 0. -1.
        -11    1    3    3    0    0  0.22133910776E+01  0.38904880880E+01 -0.53841044446E+01  0.70016839801E+01  0.51100000000E-03 0.  1.
         12    1    3    3    0    0 -0.17474520925E+01  0.10590312073E+02 -0.15108647272E+02  0.18533200507E+02  0.00000000000E+00 0. -1.
</event>
<event>
 7    1  0.3708346E-009  0.4614232E+02  0.7816164E-02  0.1320468E+00
        -11   -1    0    0    0    0  0.00000000000E+00  0.00000000000E+00  0.45593999997E+02  0.45594000000E+02  0.51100000000E-03 0.  1.
         11   -1    0    0    0    0 -0.00000000000E+00 -0.00000000000E+00 -0.45593999997E+02  0.45594000000E+02  0.51100000000E-03 0. -1.
    9900012    2    1    2    0    0 -0.26256110311E+02 -0.11537996816E+02 -0.34736216884E+02  0.46142318047E+02  0.10000002606E+02 0.  0.
        -12    1    1    2    0    0  0.26256110311E+02  0.11537996816E+02  0.34736216884E+02  0.45045681953E+02  0.00000000000E+00 0.  1.
         11    1    3    3    0    0 -0.72967847347E+01  0.43003553046E+00 -0.99950213480E+01  0.12382586565E+02  0.51100000000E-03 0. -1.
        -11    1    3    3    0    0 -0.16563373717E+02 -0.11348507748E+02 -0.23734789765E+02  0.31088168529E+02  0.51100000000E-03 0.  1.
        -12    1    3    3    0    0 -0.23959518590E+01 -0.61952459842E+00 -0.10064057709E+01  0.26715629535E+01  0.00000000000E+00 0.  1.
</event>
<event>
 7    1  0.3708346E-009  0.4614232E+02  0.7816164E-02  0.1320468E+00
        -11   -1    0    0    0    0  0.00000000000E+00  0.00000000000E+00  0.45593999997E+02  0.45594000000E+02  0.51100000000E-03 0.  1.
         11   -1    0    0    0    0 -0.00000000000E+00 -0.00000000000E+00 -0.45593999997E+02  0.45594000000E+02  0.51100000000E-03 0. -1.
    9900012    2    1    2    0    0 -0.33099300985E+02 -0.43583991599E+01 -0.30241595318E+02  0.46142318116E+02  0.10000003240E+02 0.  0.
        -12    1    1    2    0    0  0.33099300985E+02  0.43583991599E+01  0.30241595318E+02  0.45045681884E+02  0.00000000000E+00 0.  1.
         11    1    3    3    0    0 -0.53527061123E+01 -0.23126532410E+01 -0.53504458144E+01  0.79137284772E+01  0.51100000000E-03 0. -1.
        -11    1    3    3    0    0 -0.17620557685E+02  0.23955406038E+01 -0.13274492957E+02  0.22190872706E+02  0.51100000000E-03 0.  1.
        -12    1    3    3    0    0 -0.10126037188E+02 -0.44412865227E+01 -0.11616656547E+02  0.16037716933E+02  0.00000000000E+00 0.  1.
</event>
<event>
 7    1  0.3708346E-009  0.4614232E+02  0.7816164E-02  0.1320468E+00
        -11   -1    0    0    0    0  0.00000000000E+00  0.00000000000E+00  0.45593999997E+02  0.45594000000E+02  0.51100000000E-03 0. -1.
         11   -1    0    0    0    0 -0.00000000000E+00 -0.00000000000E+00 -0.45593999997E+02  0.45594000000E+02  0.51100000000E-03 0.  1.
    9900012    2    1    2    0    0 -0.60189094142E+01  0.13723670999E+02  0.42479961384E+02  0.46142317239E+02  0.99999952434E+01 0.  0.
        -12    1    1    2    0    0  0.60189094142E+01 -0.13723670999E+02 -0.42479961384E+02  0.45045682761E+02  0.00000000000E+00 0.  1.
         11    1    3    3    0    0  0.41472434636E+00  0.56955692836E+01  0.16736827320E+02  0.17684255561E+02  0.51100000000E-03 0. -1.
        -11    1    3    3    0    0 -0.31435165516E+01 -0.11959382975E+00  0.92498558106E+01  0.97701500383E+01  0.51100000000E-03 0.  1.
        -12    1    3    3    0    0 -0.32901172090E+01  0.81476955447E+01  0.16493278253E+02  0.18687911640E+02  0.00000000000E+00 0.  1.
</event>
<event>
 7    1  0.3708346E-009  0.4614233E+02  0.7816164E-02  0.1320468E+00
        -11   -1    0    0    0    0  0.00000000000E+00  0.00000000000E+00  0.45593999997E+02  0.45594000000E+02  0.51100000000E-03 0.  1.
         11   -1    0    0    0    0 -0.00000000000E+00 -0.00000000000E+00 -0.45593999997E+02  0.45594000000E+02  0.51100000000E-03 0. -1.
    9900012    2    1    2    0    0  0.44950925869E+01  0.12443502840E+02 -0.43058867245E+02  0.46142326859E+02  0.10000082963E+02 0.  0.
        -12    1    1    2    0    0 -0.44950925869E+01 -0.12443502840E+02  0.43058867245E+02  0.45045673141E+02  0.00000000000E+00 0.  1.
         11    1    3    3    0    0  0.45632812834E+00  0.46373291803E+00  0.34293906483E+00  0.73545295110E+00  0.51100000000E-03 0. -1.
        -11    1    3    3    0    0 -0.91448102670E+00  0.21028765220E+01 -0.77403776185E+01  0.80729059918E+01  0.51100000000E-03 0.  1.
         12    1    3    3    0    0  0.49532454852E+01  0.98768933997E+01 -0.35661428691E+02  0.37333967916E+02  0.00000000000E+00 0. -1.
</event>
<event>
 7    1  0.3708346E-009  0.4614232E+02  0.7816164E-02  0.1320468E+00
        -11   -1    0    0    0    0  0.00000000000E+00  0.00000000000E+00  0.45593999997E+02  0.45594000000E+02  0.51100000000E-03 0. -1.
         11   -1    0    0    0    0 -0.00000000000E+00 -0.00000000000E+00 -0.45593999997E+02  0.45594000000E+02  0.51100000000E-03 0.  1.
    9900012    2    1    2    0    0  0.34910971278E+01 -0.12337900687E+02  0.43182191620E+02  0.46142320678E+02  0.10000026595E+02 0.  0.
        -12    1    1    2    0    0 -0.34910971278E+01  0.12337900687E+02 -0.43182191620E+02  0.45045679322E+02  0.00000000000E+00 0.  1.
         11    1    3    3    0    0  0.19313040252E+01 -0.16478906299E+01  0.18059681215E+02  0.18237257595E+02  0.51100000000E-03 0. -1.
        -11    1    3    3    0    0 -0.22666194085E+00 -0.43062507544E+01  0.16352810509E+02  0.16911817850E+02  0.51100000000E-03 0.  1.
         12    1    3    3    0    0  0.17864550434E+01 -0.63837593028E+01  0.87696998962E+01  0.10993245232E+02  0.00000000000E+00 0. -1.
</event>
<event>
 7    1  0.3708346E-009  0.4614232E+02  0.7816164E-02  0.1320468E+00
        -11   -1    0    0    0    0  0.00000000000E+00  0.00000000000E+00  0.45593999997E+02  0.45594000000E+02  0.51100000000E-03 0. -1.
         11   -1    0    0    0    0 -0.00000000000E+00 -0.00000000000E+00 -0.45593999997E+02  0.45594000000E+02  0.51100000000E-03 0.  1.
    9900012    2    1    2    0    0 -0.32850383576E+02  0.30077013699E+02 -0.67334274471E+01  0.46142317640E+02  0.99999988945E+01 0.  0.
        -12    1    1    2    0    0  0.32850383576E+02 -0.30077013699E+02  0.67334274471E+01  0.45045682360E+02  0.00000000000E+00 0.  1.
         11    1    3    3    0    0 -0.10426673990E+02  0.10138937714E+02 -0.17358959976E+01  0.14646737645E+02  0.51100000000E-03 0. -1.
        -11    1    3    3    0    0 -0.22745532248E+02  0.19046128867E+02 -0.58295769199E+01  0.30234057442E+02  0.51100000000E-03 0.  1.
        -12    1    3    3    0    0  0.32182266261E+00  0.89194711812E+00  0.83204547038E+00  0.12615225533E+01  0.00000000000E+00 0.  1.
</event>
<event>
 7    1  0.3708346E-009  0.4614232E+02  0.7816164E-02  0.1320468E+00
        -11   -1    0    0    0    0  0.00000000000E+00  0.00000000000E+00  0.45593999997E+02  0.45594000000E+02  0.51100000000E-03 0. -1.
         11   -1    0    0    0    0 -0.00000000000E+00 -0.00000000000E+00 -0.45593999997E+02  0.45594000000E+02  0.51100000000E-03 0.  1.
    9900012    2    1    2    0    0 -0.20991755202E+02  0.39785529614E+02 -0.23603561544E+01  0.46142318361E+02  0.10000005471E+02 0.  0.
        -12    1    1    2    0    0  0.20991755202E+02 -0.39785529614E+02  0.23603561544E+01  0.45045681639E+02  0.00000000000E+00 0.  1.
         11    1    3    3    0    0 -0.36965181246E+01  0.96612023705E+01 -0.28929238760E+01  0.10741139898E+02  0.51100000000E-03 0. -1.
        -11    1    3    3    0    0 -0.42025382079E+01  0.53079735495E+01  0.26333078882E+01  0.72643114805E+01  0.51100000000E-03 0.  1.
        -12    1    3    3    0    0 -0.13092698870E+02  0.24816353694E+02 -0.21007401666E+01  0.28136866983E+02  0.00000000000E+00 0.  1.
</event>
<event>
 7    1  0.3708346E-009  0.4614232E+02  0.7816164E-02  0.1320468E+00
        -11   -1    0    0    0    0  0.00000000000E+00  0.00000000000E+00  0.45593999997E+02  0.45594000000E+02  0.51100000000E-03 0.  1.
         11   -1    0    0    0    0 -0.00000000000E+00 -0.00000000000E+00 -0.45593999997E+02  0.45594000000E+02  0.51100000000E-03 0. -1.
    9900012    2    1    2    0    0  0.20076702211E+00 -0.17138360971E+02 -0.41657529888E+02  0.46142317404E+02  0.99999967453E+01 0.  0.
        -12    1    1    2    0    0 -0.20076702211E+00  0.17138360971E+02  0.41657529888E+02  0.45045682596E+02  0.00000000000E+00 0.  1.
         11    1    3    3    0    0 -0.93829689614E+00 -0.67562023592E+01 -0.75976162509E+01  0.10210310688E+02  0.51100000000E-03 0. -1.
        -11    1    3    3    0    0  0.24860140271E+01 -0.44676170502E+01 -0.11792128841E+02  0.12852788441E+02  0.51100000000E-03 0.  1.
         12    1    3    3    0    0 -0.13469501088E+01 -0.59145415617E+01 -0.22267784796E+02  0.23079218275E+02  0.00000000000E+00 0. -1.
</event>
<event>
 7    1  0.3708346E-009  0.4614232E+02  0.7816164E-02  0.1320468E+00
        -11   -1    0    0    0    0  0.00000000000E+00  0.00000000000E+00  0.45593999997E+02  0.45594000000E+02  0.51100000000E-03 0. -1.
         11   -1    0    0    0    0 -0.00000000000E+00 -0.00000000000E+00 -0.45593999997E+02  0.45594000000E+02  0.51100000000E-03 0.  1.
    9900012    2    1    2    0    0  0.41167512731E+02  0.10809060192E+02 -0.14748341614E+02  0.46142317997E+02  0.10000002155E+02 0.  0.
        -12    1    1    2    0    0 -0.41167512731E+02 -0.10809060192E+02  0.14748341614E+02  0.45045682003E+02  0.00000000000E+00 0.  1.
         11    1    3    3    0    0  0.12367749754E+02  0.41324530095E+01 -0.42272534085E+01  0.13707956576E+02  0.51100000000E-03 0. -1.
        -11    1    3    3    0    0  0.26678107656E+01 -0.15933133484E+01 -0.21375214000E+01  0.37715858340E+01  0.51100000000E-03 0.  1.
        -12    1    3    3    0    0  0.26131952212E+02  0.82699205312E+01 -0.83835668051E+01  0.28662775588E+02  0.00000000000E+00 0.  1.
</event>
<event>
 7    1  0.3708346E-009  0.4614232E+02  0.7816164E-02  0.1320468E+00
        -11   -1    0    0    0    0  0.00000000000E+00  0.00000000000E+00  0.45593999997E+02  0.45594000000E+02  0.51100000000E-03 0.  1.
         11   -1    0    0    0    0 -0.00000000000E+00 -0.00000000000E+00 -0.45593999997E+02  0.45594000000E+02  0.51100000000E-03 0. -1.
    9900012    2    1    2    0    0  0.33722679795E+02  0.94072069496E+01 -0.28344289530E+02  0.46142318474E+02  0.10000006505E+02 0.  0.
        -12    1    1    2    0    0 -0.33722679795E+02 -0.94072069496E+01  0.28344289530E+02  0.45045681526E+02  0.00000000000E+00 0.  1.
         11    1    3    3    0    0  0.19156874008E+02  0.61270909648E+01 -0.14694011430E+02  0.24908653870E+02  0.51100000000E-03 0. -1.
        -11    1    3    3    0    0  0.10148161932E+00  0.13473379892E+01 -0.16004516703E+00  0.13606001958E+01  0.51100000000E-03 0.  1.
        -12    1    3    3    0    0  0.14464324168E+02  0.19327779956E+01 -0.13490232933E+02  0.19873064409E+02  0.00000000000E+00 0.  1.
</event>
<event>
 7    1  0.3708346E-009  0.4614233E+02  0.7816164E-02  0.1320468E+00
        -11   -1    0    0    0    0  0.00000000000E+00  0.00000000000E+00  0.45593999997E+02  0.45594000000E+02  0.51100000000E-03 0.  1.
         11   -1    0    0    0    0 -0.00000000000E+00 -0.00000000000E+00 -0.45593999997E+02  0.45594000000E+02  0.51100000000E-03 0. -1.
    9900012    2    1    2    0    0 -0.13301518974E+02  0.35920692417E+02 -0.23704138773E+02  0.46142326004E+02  0.10000075166E+02 0.  0.
        -12    1    1    2    0    0  0.13301518974E+02 -0.35920692417E+02  0.23704138773E+02  0.45045673996E+02  0.00000000000E+00 0.  1.
         11    1    3    3    0    0 -0.43589255190E+01  0.21367926315E+02 -0.13935947918E+02  0.25880478189E+02  0.51100000000E-03 0. -1.
        -11    1    3    3    0    0 -0.39073523861E+01  0.75245704931E+01 -0.21702540958E+01  0.87519464622E+01  0.51100000000E-03 0.  1.
         12    1    3    3    0    0 -0.50352410685E+01  0.70281956095E+01 -0.75979367600E+01  0.11509901353E+02  0.00000000000E+00 0. -1.
</event>
<event>
 7    1  0.3708346E-009  0.4614232E+02  0.7816164E-02  0.1320468E+00
        -11   -1    0    0    0    0  0.00000000000E+00  0.00000000000E+00  0.45593999997E+02  0.45594000000E+02  0.51100000000E-03 0.  1.
         11   -1    0    0    0    0 -0.00000000000E+00 -0.00000000000E+00 -0.45593999997E+02  0.45594000000E+02  0.51100000000E-03 0. -1.
    9900012    2    1    2    0    0 -0.30927766637E+02 -0.31620049070E+02  0.85298991710E+01  0.46142318385E+02  0.10000005686E+02 0.  0.
        -12    1    1    2    0    0  0.30927766637E+02  0.31620049070E+02 -0.85298991710E+01  0.45045681615E+02  0.00000000000E+00 0.  1.
         11    1    3    3    0    0 -0.10272984773E+02 -0.12967965735E+02  0.18506184067E+01  0.16647136096E+02  0.51100000000E-03 0. -1.
        -11    1    3    3    0    0 -0.14896929406E+02 -0.10056681462E+02  0.66058154540E+01  0.19149207446E+02  0.51100000000E-03 0.  1.
        -12    1    3    3    0    0 -0.57578524581E+01 -0.85954018728E+01  0.73465310324E-01  0.10345974842E+02  0.00000000000E+00 0.  1.
</event>
<event>
 7    1  0.3708346E-009  0.4614232E+02  0.7816164E-02  0.1320468E+00
        -11   -1    0    0    0    0  0.00000000000E+00  0.00000000000E+00  0.45593999997E+02  0.45594000000E+02  0.51100000000E-03 0.  1.
         11   -1    0    0    0    0 -0.00000000000E+00 -0.00000000000E+00 -0.45593999997E+02  0.45594000000E+02  0.51100000000E-03 0. -1.
    9900012    2    1    2    0    0  0.22428187690E+02  0.93009278268E+01 -0.37941832741E+02  0.46142317263E+02  0.99999954608E+01 0.  0.
        -12    1    1    2    0    0 -0.22428187690E+02 -0.93009278268E+01  0.37941832741E+02  0.45045682737E+02  0.00000000000E+00 0.  1.
         11    1    3    3    0    0  0.15708294393E+02  0.64622784572E+01 -0.25682620747E+02  0.30791371588E+02  0.51100000000E-03 0. -1.
        -11    1    3    3    0    0  0.39416311498E+01  0.27642075190E+01 -0.29742009476E+01  0.56589019135E+01  0.51100000000E-03 0.  1.
        -12    1    3    3    0    0  0.27782621468E+01  0.74441850589E-01 -0.92850110461E+01  0.96920437613E+01  0.00000000000E+00 0.  1.
</event>
<event>
 7    1  0.3708346E-009  0.4614232E+02  0.7816164E-02  0.1320468E+00
        -11   -1    0    0    0    0  0.00000000000E+00  0.00000000000E+00  0.45593999997E+02  0.45594000000E+02  0.51100000000E-03 0. -1.
         11   -1    0    0    0    0 -0.00000000000E+00 -0.00000000000E+00 -0.45593999997E+02  0.45594000000E+02  0.51100000000E-03 0.  1.
    9900012    2    1    2    0    0 -0.73700350496E+01 -0.32181358506E+02  0.30645655537E+02  0.46142318129E+02  0.10000003357E+02 0.  0.
        -12    1    1    2    0    0  0.73700350496E+01  0.32181358506E+02 -0.30645655537E+02  0.45045681871E+02  0.00000000000E+00 0.  1.
         11    1    3    3    0    0  0.16091948594E+00 -0.91607170052E+00 -0.35996302519E+00  0.99732446178E+00  0.51100000000E-03 0.  1.
        -11    1    3    3    0    0  0.11704393928E+01 -0.30182055362E+01  0.35377236371E+01  0.47953083138E+01  0.51100000000E-03 0. -1.
         12    1    3    3    0    0 -0.87013939283E+01 -0.28247081269E+02  0.27467894925E+02  0.40349685354E+02  0.00000000000E+00 0. -1.
</event>
<event>
 7    1  0.3708346E-009  0.4614232E+02  0.7816164E-02  0.1320468E+00
        -11   -1    0    0    0    0  0.00000000000E+00  0.00000000000E+00  0.45593999997E+02  0.45594000000E+02  0.51100000000E-03 0.  1.
         11   -1    0    0    0    0 -0.00000000000E+00 -0.00000000000E+00 -0.45593999997E+02  0.45594000000E+02  0.51100000000E-03 0. -1.
    9900012    2    1    2    0    0 -0.11091159854E+02 -0.38843458049E+01 -0.43485760606E+02  0.46142319355E+02  0.10000014535E+02 0.  0.
        -12    1    1    2    0    0  0.11091159854E+02  0.38843458049E+01  0.43485760606E+02  0.45045680645E+02  0.00000000000E+00 0.  1.
         11    1    3    3    0    0 -0.25802105834E+01  0.12925215347E+00 -0.37753171455E+01  0.45746270432E+01  0.51100000000E-03 0. -1.
        -11    1    3    3    0    0 -0.68817359165E+01  0.10551355092E+01 -0.22453508215E+02  0.23508118419E+02  0.51100000000E-03 0.  1.
         12    1    3    3    0    0 -0.16292133545E+01 -0.50687334676E+01 -0.17256935246E+02  0.18059573893E+02  0.00000000000E+00 0. -1.
</event>
<event>
 7    1  0.3708346E-009  0.4614231E+02  0.7816164E-02  0.1320468E+00
        -11   -1    0    0    0    0  0.00000000000E+00  0.00000000000E+00  0.45593999997E+02  0.45594000000E+02  0.51100000000E-03 0.  1.
         11   -1    0    0    0    0 -0.00000000000E+00 -0.00000000000E+00 -0.45593999997E+02  0.45594000000E+02  0.51100000000E-03 0. -1.
    9900012    2    1    2    0    0  0.39036082372E+02 -0.21121450340E+02 -0.76930322692E+01  0.46142310562E+02  0.99999343531E+01 0.  0.
        -12    1    1    2    0    0 -0.39036082372E+02  0.21121450340E+02  0.76930322692E+01  0.45045689438E+02  0.00000000000E+00 0.  1.
         11    1    3    3    0    0  0.23415529401E+02 -0.16506886012E+02 -0.16045632359E+01  0.28693883083E+02  0.51100000000E-03 0. -1.
        -11    1    3    3    0    0  0.90219926905E+01 -0.19642897509E+01 -0.37002306504E+01  0.99471852029E+01  0.51100000000E-03 0.  1.
         12    1    3    3    0    0  0.65985602807E+01 -0.26502745775E+01 -0.23882383829E+01  0.75012422763E+01  0.00000000000E+00 0. -1.
</event>
<event>
 7    1  0.3708346E-009  0.4614232E+02  0.7816164E-02  0.1320468E+00
        -11   -1    0    0    0    0  0.00000000000E+00  0.00000000000E+00  0.45593999997E+02  0.45594000000E+02  0.51100000000E-03 0. -1.
         11   -1    0    0    0    0 -0.00000000000E+00 -0.00000000000E+00 -0.45593999997E+02  0.45594000000E+02  0.51100000000E-03 0.  1.
    9900012    2    1    2    0    0  0.11398731100E+02  0.32911089748E+02  0.28566451647E+02  0.46142322530E+02  0.10000043484E+02 0.  0.
        -12    1    1    2    0    0 -0.11398731100E+02 -0.32911089748E+02 -0.28566451647E+02  0.45045677470E+02  0.00000000000E+00 0.  1.
         11    1    3    3    0    0  0.62422766517E+01  0.11215205293E+02  0.78202239506E+01  0.15030061559E+02  0.51100000000E-03 0. -1.
        -11    1    3    3    0    0  0.17688867937E+01  0.98106383821E+01  0.13514073728E+02  0.16793087118E+02  0.51100000000E-03 0.  1.
         12    1    3    3    0    0  0.33875676545E+01  0.11885246073E+02  0.72321539679E+01  0.14319173853E+02  0.00000000000E+00 0. -1.
</event>
<event>
 7    1  0.3708346E-009  0.4614232E+02  0.7816164E-02  0.1320468E+00
        -11   -1    0    0    0    0  0.00000000000E+00  0.00000000000E+00  0.45593999997E+02  0.45594000000E+02  0.51100000000E-03 0. -1.
         11   -1    0    0    0    0 -0.00000000000E+00 -0.00000000000E+00 -0.45593999997E+02  0.45594000000E+02  0.51100000000E-03 0.  1.
    9900012    2    1    2    0    0 -0.30927241850E+02  0.17487882425E+02 -0.27691031281E+02  0.46142317259E+02  0.99999954248E+01 0.  0.
        -12    1    1    2    0    0  0.30927241850E+02 -0.17487882425E+02  0.27691031281E+02  0.45045682741E+02  0.00000000000E+00 0.  1.
         11    1    3    3    0    0 -0.19043205999E+02  0.92343206132E+01 -0.21490451702E+02  0.30162159845E+02  0.51100000000E-03 0. -1.
        -11    1    3    3    0    0 -0.39052766694E+01  0.14151156930E+01 -0.10867331854E+01  0.42935681626E+01  0.51100000000E-03 0.  1.
         12    1    3    3    0    0 -0.79787591817E+01  0.68384461184E+01 -0.51138463933E+01  0.11686589251E+02  0.00000000000E+00 0. -1.
</event>
<event>
 7    1  0.3708346E-009  0.4614232E+02  0.7816164E-02  0.1320468E+00
        -11   -1    0    0    0    0  0.00000000000E+00  0.00000000000E+00  0.45593999997E+02  0.45594000000E+02  0.51100000000E-03 0.  1.
         11   -1    0    0    0    0 -0.00000000000E+00 -0.00000000000E+00 -0.45593999997E+02  0.45594000000E+02  0.51100000000E-03 0. -1.
    9900012    2    1    2    0    0 -0.30609208949E+02 -0.75001163831E+01 -0.32185988599E+02  0.46142320071E+02  0.10000021059E+02 0.  0.
        -12    1    1    2    0    0  0.30609208949E+02  0.75001163831E+01  0.32185988599E+02  0.45045679929E+02  0.00000000000E+00 0.  1.
         11    1    3    3    0    0 -0.66162971662E+01 -0.24554663746E+01 -0.37744491621E+01  0.80031974889E+01  0.51100000000E-03 0.  1.
        -11    1    3    3    0    0 -0.21385770557E+02 -0.66328120918E+01 -0.24970242505E+02  0.33538908593E+02  0.51100000000E-03 0. -1.
        -12    1    3    3    0    0 -0.26071412250E+01  0.15881620832E+01 -0.34412969321E+01  0.46002139890E+01  0.00000000000E+00 0.  1.
</event>
<event>
 7    1  0.3708346E-009  0.4614232E+02  0.7816164E-02  0.1320468E+00
        -11   -1    0    0    0    0  0.00000000000E+00  0.00000000000E+00  0.45593999997E+02  0.45594000000E+02  0.51100000000E-03 0.  1.
         11   -1    0    0    0    0 -0.00000000000E+00 -0.00000000000E+00 -0.45593999997E+02  0.45594000000E+02  0.51100000000E-03 0. -1.
    9900012    2    1    2    0    0  0.14136865804E+02  0.49502985766E+01 -0.42482432330E+02  0.46142317771E+02  0.10000000091E+02 0.  0.
        -12    1    1    2    0    0 -0.14136865804E+02 -0.49502985766E+01  0.42482432330E+02  0.45045682229E+02  0.00000000000E+00 0.  1.
         11    1    3    3    0    0  0.46250379190E+00  0.19885909983E+01 -0.12926363690E+02  0.13086606987E+02  0.51100000000E-03 0.  1.
        -11    1    3    3    0    0  0.36004645832E+01 -0.95194170224E+00 -0.10600749012E+02  0.11235898633E+02  0.51100000000E-03 0. -1.
         12    1    3    3    0    0  0.10073897429E+02  0.39136492805E+01 -0.18955319628E+02  0.21819812151E+02  0.00000000000E+00 0. -1.
</event>
<event>
 7    1  0.3708346E-009  0.4614232E+02  0.7816164E-02  0.1320468E+00
        -11   -1    0    0    0    0  0.00000000000E+00  0.00000000000E+00  0.45593999997E+02  0.45594000000E+02  0.51100000000E-03 0.  1.
         11   -1    0    0    0    0 -0.00000000000E+00 -0.00000000000E+00 -0.45593999997E+02  0.45594000000E+02  0.51100000000E-03 0. -1.
    9900012    2    1    2    0    0 -0.66226227855E+01 -0.21313690002E+02 -0.39127750964E+02  0.46142318636E+02  0.10000007975E+02 0.  0.
        -12    1    1    2    0    0  0.66226227855E+01  0.21313690002E+02  0.39127750964E+02  0.45045681364E+02  0.00000000000E+00 0.  1.
         11    1    3    3    0    0 -0.15596548333E+01 -0.47647777555E+00 -0.31791882610E+01  0.35730648651E+01  0.51100000000E-03 0. -1.
        -11    1    3    3    0    0 -0.14279927018E+00 -0.41505354402E+01 -0.13764122835E+02  0.14377009903E+02  0.51100000000E-03 0.  1.
         12    1    3    3    0    0 -0.49201686819E+01 -0.16686676786E+02 -0.22184439868E+02  0.28192243867E+02  0.00000000000E+00 0. -1.
</event>
<event>
 7    1  0.3708346E-009  0.4614232E+02  0.7816164E-02  0.1320468E+00
        -11   -1    0    0    0    0  0.00000000000E+00  0.00000000000E+00  0.45593999997E+02  0.45594000000E+02  0.51100000000E-03 0.  1.
         11   -1    0    0    0    0 -0.00000000000E+00 -0.00000000000E+00 -0.45593999997E+02  0.45594000000E+02  0.51100000000E-03 0. -1.
    9900012    2    1    2    0    0 -0.32959430732E+01  0.43470962420E+02 -0.11336919331E+02  0.46142317028E+02  0.99999933151E+01 0.  0.
        -12    1    1    2    0    0  0.32959430732E+01 -0.43470962420E+02  0.11336919331E+02  0.45045682972E+02  0.00000000000E+00 0.  1.
         11    1    3    3    0    0  0.25867788716E+01  0.15238932973E+02 -0.38831761957E+01  0.15937238177E+02  0.51100000000E-03 0. -1.
        -11    1    3    3    0    0 -0.64491101837E+01  0.23325960141E+02 -0.50928341585E+01  0.24731122067E+02  0.51100000000E-03 0.  1.
        -12    1    3    3    0    0  0.56638823889E+00  0.49060693061E+01 -0.23609089770E+01  0.54739567838E+01  0.00000000000E+00 0.  1.
</event>
<event>
 7    1  0.3708346E-009  0.4614232E+02  0.7816164E-02  0.1320468E+00
        -11   -1    0    0    0    0  0.00000000000E+00  0.00000000000E+00  0.45593999997E+02  0.45594000000E+02  0.51100000000E-03 0. -1.
         11   -1    0    0    0    0 -0.00000000000E+00 -0.00000000000E+00 -0.45593999997E+02  0.45594000000E+02  0.51100000000E-03 0.  1.
    9900012    2    1    2    0    0 -0.20683717075E+02 -0.28567310953E+02  0.28021530375E+02  0.46142316837E+02  0.99999915732E+01 0.  0.
        -12    1    1    2    0    0  0.20683717075E+02  0.28567310953E+02 -0.28021530375E+02  0.45045683163E+02  0.00000000000E+00 0.  1.
         11    1    3    3    0    0 -0.30263018631E+01 -0.92125435391E+01  0.79543379545E+01  0.12541967708E+02  0.51100000000E-03 0. -1.
        -11    1    3    3    0    0 -0.26322867463E+01 -0.68560860227E+01  0.65146190818E+01  0.98170826169E+01  0.51100000000E-03 0.  1.
         12    1    3    3    0    0 -0.15025128465E+02 -0.12498681391E+02  0.13552573338E+02  0.23783266512E+02  0.00000000000E+00 0. -1.
</event>
<event>
 7    1  0.3708346E-009  0.4614232E+02  0.7816164E-02  0.1320468E+00
        -11   -1    0    0    0    0  0.00000000000E+00  0.00000000000E+00  0.45593999997E+02  0.45594000000E+02  0.51100000000E-03 0.  1.
         11   -1    0    0    0    0 -0.00000000000E+00 -0.00000000000E+00 -0.45593999997E+02  0.45594000000E+02  0.51100000000E-03 0. -1.
    9900012    2    1    2    0    0 -0.15039142763E+01 -0.38160072969E+02 -0.23888500878E+02  0.46142318727E+02  0.10000008804E+02 0.  0.
        -12    1    1    2    0    0  0.15039142763E+01  0.38160072969E+02  0.23888500878E+02  0.45045681273E+02  0.00000000000E+00 0.  1.
         11    1    3    3    0    0 -0.70547425274E+00 -0.94885741752E+01 -0.39090629322E+01  0.10286472042E+02  0.51100000000E-03 0. -1.
        -11    1    3    3    0    0  0.34903794466E+01 -0.97718370252E+01 -0.63951950424E+01  0.12188932169E+02  0.51100000000E-03 0.  1.
         12    1    3    3    0    0 -0.42888194701E+01 -0.18899661769E+02 -0.13584242904E+02  0.23666914516E+02  0.00000000000E+00 0. -1.
</event>
<event>
 7    1  0.3708346E-009  0.4614232E+02  0.7816164E-02  0.1320468E+00
        -11   -1    0    0    0    0  0.00000000000E+00  0.00000000000E+00  0.45593999997E+02  0.45594000000E+02  0.51100000000E-03 0.  1.
         11   -1    0    0    0    0 -0.00000000000E+00 -0.00000000000E+00 -0.45593999997E+02  0.45594000000E+02  0.51100000000E-03 0. -1.
    9900012    2    1    2    0    0  0.24593425707E+02 -0.49375583263E+01 -0.37415202501E+02  0.46142318204E+02  0.10000004042E+02 0.  0.
        -12    1    1    2    0    0 -0.24593425707E+02  0.49375583263E+01  0.37415202501E+02  0.45045681796E+02  0.00000000000E+00 0.  1.
         11    1    3    3    0    0  0.21751349421E+02 -0.14831303190E+01 -0.29668313298E+02  0.36817518811E+02  0.51100000000E-03 0. -1.
        -11    1    3    3    0    0  0.24596270244E+01 -0.37643956617E+01 -0.59284234648E+01  0.74408766175E+01  0.51100000000E-03 0.  1.
         12    1    3    3    0    0  0.38244926182E+00  0.30996765444E+00 -0.18184657382E+01  0.18839227760E+01  0.00000000000E+00 0. -1.
</event>
<event>
 7    1  0.3708346E-009  0.4614232E+02  0.7816164E-02  0.1320468E+00
        -11   -1    0    0    0    0  0.00000000000E+00  0.00000000000E+00  0.45593999997E+02  0.45594000000E+02  0.51100000000E-03 0.  1.
         11   -1    0    0    0    0 -0.00000000000E+00 -0.00000000000E+00 -0.45593999997E+02  0.45594000000E+02  0.51100000000E-03 0. -1.
    9900012    2    1    2    0    0 -0.38198173180E+02 -0.23359164882E+02 -0.49358267821E+01  0.46142318694E+02  0.10000008511E+02 0.  0.
        -12    1    1    2    0    0  0.38198173180E+02  0.23359164882E+02  0.49358267821E+01  0.45045681306E+02  0.00000000000E+00 0.  1.
         11    1    3    3    0    0 -0.35316333903E+02 -0.20062949238E+02 -0.51807413305E+01  0.40946372898E+02  0.51100000000E-03 0. -1.
        -11    1    3    3    0    0 -0.25878931717E+01 -0.37872743738E+01  0.39587107423E+00  0.46040582554E+01  0.51100000000E-03 0.  1.
        -12    1    3    3    0    0 -0.29394610496E+00  0.49105872990E+00 -0.15095652584E+00  0.59188754128E+00  0.00000000000E+00 0.  1.
</event>
<event>
 7    1  0.3708346E-009  0.4614231E+02  0.7816164E-02  0.1320468E+00
        -11   -1    0    0    0    0  0.00000000000E+00  0.00000000000E+00  0.45593999997E+02  0.45594000000E+02  0.51100000000E-03 0.  1.
         11   -1    0    0    0    0 -0.00000000000E+00 -0.00000000000E+00 -0.45593999997E+02  0.45594000000E+02  0.51100000000E-03 0. -1.
    9900012    2    1    2    0    0  0.41820946221E+02 -0.45360023761E+00 -0.16730704436E+02  0.46142314669E+02  0.99999718065E+01 0.  0.
        -12    1    1    2    0    0 -0.41820946221E+02  0.45360023761E+00  0.16730704436E+02  0.45045685331E+02  0.00000000000E+00 0.  1.
         11    1    3    3    0    0  0.17597692999E+02 -0.48604962912E+00 -0.54685257772E+01  0.18434202385E+02  0.51100000000E-03 0. -1.
        -11    1    3    3    0    0  0.18188910573E+01 -0.17976667095E+01 -0.25161869113E+01  0.35876408837E+01  0.51100000000E-03 0.  1.
        -12    1    3    3    0    0  0.22404362164E+02  0.18301161010E+01 -0.87459917478E+01  0.24120471400E+02  0.00000000000E+00 0.  1.
</event>
<event>
 7    1  0.3708346E-009  0.4614232E+02  0.7816164E-02  0.1320468E+00
        -11   -1    0    0    0    0  0.00000000000E+00  0.00000000000E+00  0.45593999997E+02  0.45594000000E+02  0.51100000000E-03 0.  1.
         11   -1    0    0    0    0 -0.00000000000E+00 -0.00000000000E+00 -0.45593999997E+02  0.45594000000E+02  0.51100000000E-03 0. -1.
    9900012    2    1    2    0    0 -0.26328085808E+02  0.33466570990E+02 -0.14694691904E+02  0.46142318228E+02  0.10000004258E+02 0.  0.
        -12    1    1    2    0    0  0.26328085808E+02 -0.33466570990E+02  0.14694691904E+02  0.45045681772E+02  0.00000000000E+00 0.  1.
         11    1    3    3    0    0 -0.31067429765E+01  0.38538976524E+01 -0.38519960419E+01  0.62723402973E+01  0.51100000000E-03 0. -1.
        -11    1    3    3    0    0 -0.75263118902E+01  0.47313221982E+01 -0.15880635742E+01  0.90306548261E+01  0.51100000000E-03 0.  1.
        -12    1    3    3    0    0 -0.15695030941E+02  0.24881351139E+02 -0.92546322883E+01  0.30839323105E+02  0.00000000000E+00 0.  1.
</event>
<event>
 7    1  0.3708346E-009  0.4614232E+02  0.7816164E-02  0.1320468E+00
        -11   -1    0    0    0    0  0.00000000000E+00  0.00000000000E+00  0.45593999997E+02  0.45594000000E+02  0.51100000000E-03 0. -1.
         11   -1    0    0    0    0 -0.00000000000E+00 -0.00000000000E+00 -0.45593999997E+02  0.45594000000E+02  0.51100000000E-03 0.  1.
    9900012    2    1    2    0    0 -0.44410953728E+02 -0.61371890632E+01  0.43721411049E+01  0.46142317427E+02  0.99999969537E+01 0.  0.
        -12    1    1    2    0    0  0.44410953728E+02  0.61371890632E+01 -0.43721411049E+01  0.45045682573E+02  0.00000000000E+00 0.  1.
         11    1    3    3    0    0 -0.25286262989E+01 -0.16447134200E+01 -0.95345376133E+00  0.31635593134E+01  0.51100000000E-03 0. -1.
        -11    1    3    3    0    0 -0.13764763609E+02 -0.10511618666E+01 -0.13644678094E+01  0.13872109830E+02  0.51100000000E-03 0.  1.
         12    1    3    3    0    0 -0.28117563820E+02 -0.34413137766E+01  0.66900626757E+01  0.29106648284E+02  0.00000000000E+00 0. -1.
</event>
<event>
 7    1  0.3708346E-009  0.4614232E+02  0.7816164E-02  0.1320468E+00
        -11   -1    0    0    0    0  0.00000000000E+00  0.00000000000E+00  0.45593999997E+02  0.45594000000E+02  0.51100000000E-03 0.  1.
         11   -1    0    0    0    0 -0.00000000000E+00 -0.00000000000E+00 -0.45593999997E+02  0.45594000000E+02  0.51100000000E-03 0. -1.
    9900012    2    1    2    0    0  0.37343175244E+01 -0.10438655891E+02 -0.43660083037E+02  0.46142317466E+02  0.99999973051E+01 0.  0.
        -12    1    1    2    0    0 -0.37343175244E+01  0.10438655891E+02  0.43660083037E+02  0.45045682534E+02  0.00000000000E+00 0.  1.
         11    1    3    3    0    0  0.23242124311E+00 -0.36284544624E+01 -0.15490797791E+02  0.15911772933E+02  0.51100000000E-03 0. -1.
        -11    1    3    3    0    0  0.19492867539E+01  0.15274756188E+01 -0.57434492285E+01  0.62546070953E+01  0.51100000000E-03 0.  1.
        -12    1    3    3    0    0  0.15526095273E+01 -0.83376770472E+01 -0.22425836018E+02  0.23975937437E+02  0.00000000000E+00 0.  1.
</event>
<event>
 7    1  0.3708346E-009  0.4614232E+02  0.7816164E-02  0.1320468E+00
        -11   -1    0    0    0    0  0.00000000000E+00  0.00000000000E+00  0.45593999997E+02  0.45594000000E+02  0.51100000000E-03 0. -1.
         11   -1    0    0    0    0 -0.00000000000E+00 -0.00000000000E+00 -0.45593999997E+02  0.45594000000E+02  0.51100000000E-03 0.  1.
    9900012    2    1    2    0    0 -0.42706562185E+02 -0.13068360732E+02  0.58720443919E+01  0.46142318617E+02  0.10000007807E+02 0.  0.
        -12    1    1    2    0    0  0.42706562185E+02  0.13068360732E+02 -0.58720443919E+01  0.45045681383E+02  0.00000000000E+00 0.  1.
         11    1    3    3    0    0 -0.11790013015E+02 -0.45556295205E+01 -0.14599714064E+01  0.12723587702E+02  0.51100000000E-03 0. -1.
        -11    1    3    3    0    0 -0.30556629502E+01  0.48402255337E+00 -0.44587683854E+00  0.31257255660E+01  0.51100000000E-03 0.  1.
         12    1    3    3    0    0 -0.27860886220E+02 -0.89967537645E+01  0.77778926368E+01  0.30293005350E+02  0.00000000000E+00 0. -1.
</event>
<event>
 7    1  0.3708346E-009  0.4614232E+02  0.7816164E-02  0.1320468E+00
        -11   -1    0    0    0    0  0.00000000000E+00  0.00000000000E+00  0.45593999997E+02  0.45594000000E+02  0.51100000000E-03 0.  1.
         11   -1    0    0    0    0 -0.00000000000E+00 -0.00000000000E+00 -0.45593999997E+02  0.45594000000E+02  0.51100000000E-03 0. -1.
    9900012    2    1    2    0    0  0.14367041455E+02 -0.30613550018E+01 -0.42583209780E+02  0.46142317302E+02  0.99999958121E+01 0.  0.
        -12    1    1    2    0    0 -0.14367041455E+02  0.30613550018E+01  0.42583209780E+02  0.45045682698E+02  0.00000000000E+00 0.  1.
         11    1    3    3    0    0  0.81636981868E+01 -0.18131321919E+01 -0.28650522135E+02  0.29846035504E+02  0.51100000000E-03 0. -1.
        -11    1    3    3    0    0  0.16857264939E+01 -0.30703654727E+01 -0.69444236234E+01  0.77777784534E+01  0.51100000000E-03 0.  1.
         12    1    3    3    0    0  0.45176167739E+01  0.18221426628E+01 -0.69882640208E+01  0.85185033442E+01  0.00000000000E+00 0. -1.
</event>
<event>
 7    1  0.3708346E-009  0.4614232E+02  0.7816164E-02  0.1320468E+00
        -11   -1    0    0    0    0  0.00000000000E+00  0.00000000000E+00  0.45593999997E+02  0.45594000000E+02  0.51100000000E-03 0.  1.
         11   -1    0    0    0    0 -0.00000000000E+00 -0.00000000000E+00 -0.45593999997E+02  0.45594000000E+02  0.51100000000E-03 0. -1.
    9900012    2    1    2    0    0  0.27105457394E+02  0.29647596214E+00 -0.35976657355E+02  0.46142316600E+02  0.99999894079E+01 0.  0.
        -12    1    1    2    0    0 -0.27105457394E+02 -0.29647596214E+00  0.35976657355E+02  0.45045683400E+02  0.00000000000E+00 0.  1.
         11    1    3    3    0    0  0.70684203985E+01 -0.13258166876E+00 -0.14489143330E+02  0.16121892554E+02  0.51100000000E-03 0. -1.
        -11    1    3    3    0    0  0.14286739099E+02  0.31017717645E+01 -0.14719451984E+02  0.20745943438E+02  0.51100000000E-03 0.  1.
        -12    1    3    3    0    0  0.57502978968E+01 -0.26727141336E+01 -0.67680620419E+01  0.92744806078E+01  0.00000000000E+00 0.  1.
</event>
<event>
 7    1  0.3708346E-009  0.4614232E+02  0.7816164E-02  0.1320468E+00
        -11   -1    0    0    0    0  0.00000000000E+00  0.00000000000E+00  0.45593999997E+02  0.45594000000E+02  0.51100000000E-03 0.  1.
         11   -1    0    0    0    0 -0.00000000000E+00 -0.00000000000E+00 -0.45593999997E+02  0.45594000000E+02  0.51100000000E-03 0. -1.
    9900012    2    1    2    0    0  0.48134750353E+01  0.26185901080E+02 -0.36335141327E+02  0.46142318159E+02  0.10000003625E+02 0.  0.
        -12    1    1    2    0    0 -0.48134750353E+01 -0.26185901080E+02  0.36335141327E+02  0.45045681841E+02  0.00000000000E+00 0.  1.
         11    1    3    3    0    0  0.62692958829E+00  0.18637196600E+01 -0.73386930683E+01  0.75975593378E+01  0.51100000000E-03 0. -1.
        -11    1    3    3    0    0  0.26198360421E+01  0.12788489340E+02 -0.19774284355E+02  0.23694542041E+02  0.51100000000E-03 0.  1.
        -12    1    3    3    0    0  0.15667094050E+01  0.11533692080E+02 -0.92221639032E+01  0.14850216780E+02  0.00000000000E+00 0.  1.
</event>
<event>
 7    1  0.3708346E-009  0.4614232E+02  0.7816164E-02  0.1320468E+00
        -11   -1    0    0    0    0  0.00000000000E+00  0.00000000000E+00  0.45593999997E+02  0.45594000000E+02  0.51100000000E-03 0. -1.
         11   -1    0    0    0    0 -0.00000000000E+00 -0.00000000000E+00 -0.45593999997E+02  0.45594000000E+02  0.51100000000E-03 0.  1.
    9900012    2    1    2    0    0 -0.36352333608E+01  0.33998498304E+02  0.29325768933E+02  0.46142317276E+02  0.99999955795E+01 0.  0.
        -12    1    1    2    0    0  0.36352333608E+01 -0.33998498304E+02 -0.29325768933E+02  0.45045682724E+02  0.00000000000E+00 0.  1.
         11    1    3    3    0    0 -0.42362647589E+01  0.64515807683E+01  0.71619788162E+01  0.10529139297E+02  0.51100000000E-03 0. -1.
        -11    1    3    3    0    0 -0.65474242184E+00  0.24108898337E+02  0.18173234519E+02  0.30198246966E+02  0.51100000000E-03 0.  1.
        -12    1    3    3    0    0  0.12557738199E+01  0.34380191987E+01  0.39905555976E+01  0.54149310130E+01  0.00000000000E+00 0.  1.
</event>
<event>
 7    1  0.3708346E-009  0.4614232E+02  0.7816164E-02  0.1320468E+00
        -11   -1    0    0    0    0  0.00000000000E+00  0.00000000000E+00  0.45593999997E+02  0.45594000000E+02  0.51100000000E-03 0.  1.
         11   -1    0    0    0    0 -0.00000000000E+00 -0.00000000000E+00 -0.45593999997E+02  0.45594000000E+02  0.51100000000E-03 0. -1.
    9900012    2    1    2    0    0  0.44430474521E+02 -0.66516171866E+01  0.32866987453E+01  0.46142318009E+02  0.10000002261E+02 0.  0.
        -12    1    1    2    0    0 -0.44430474521E+02  0.66516171866E+01 -0.32866987453E+01  0.45045681991E+02  0.00000000000E+00 0.  1.
         11    1    3    3    0    0  0.13978718617E+02 -0.45197805920E+01  0.22676964244E+01  0.14865242618E+02  0.51100000000E-03 0. -1.
        -11    1    3    3    0    0  0.57735646014E+01  0.11165843740E+01 -0.19824026087E+01  0.62057013492E+01  0.51100000000E-03 0.  1.
        -12    1    3    3    0    0  0.24678191303E+02 -0.32484209686E+01  0.30014049296E+01  0.25071374041E+02  0.00000000000E+00 0.  1.
</event>
<event>
 7    1  0.3708346E-009  0.4614232E+02  0.7816164E-02  0.1320468E+00
        -11   -1    0    0    0    0  0.00000000000E+00  0.00000000000E+00  0.45593999997E+02  0.45594000000E+02  0.51100000000E-03 0.  1.
         11   -1    0    0    0    0 -0.00000000000E+00 -0.00000000000E+00 -0.45593999997E+02  0.45594000000E+02  0.51100000000E-03 0. -1.
    9900012    2    1    2    0    0 -0.24582539569E+02 -0.37294784104E+02 -0.58233448598E+01  0.46142317428E+02  0.99999969579E+01 0.  0.
        -12    1    1    2    0    0  0.24582539569E+02  0.37294784104E+02  0.58233448598E+01  0.45045682572E+02  0.00000000000E+00 0.  1.
         11    1    3    3    0    0 -0.13380817463E+02 -0.12248222852E+02 -0.34279289184E+01  0.18461200826E+02  0.51100000000E-03 0. -1.
        -11    1    3    3    0    0 -0.37294760666E+01 -0.85074639555E+01 -0.21316741818E+01  0.95304758414E+01  0.51100000000E-03 0.  1.
         12    1    3    3    0    0 -0.74722460391E+01 -0.16539097297E+02 -0.26374175961E+00  0.18150640760E+02  0.00000000000E+00 0. -1.
</event>
<event>
 7    1  0.3708346E-009  0.4614232E+02  0.7816164E-02  0.1320468E+00
        -11   -1    0    0    0    0  0.00000000000E+00  0.00000000000E+00  0.45593999997E+02  0.45594000000E+02  0.51100000000E-03 0.  1.
         11   -1    0    0    0    0 -0.00000000000E+00 -0.00000000000E+00 -0.45593999997E+02  0.45594000000E+02  0.51100000000E-03 0. -1.
    9900012    2    1    2    0    0 -0.44392385015E+02  0.12311402689E+01 -0.75441331640E+01  0.46142317644E+02  0.99999989355E+01 0.  0.
        -12    1    1    2    0    0  0.44392385015E+02 -0.12311402689E+01  0.75441331640E+01  0.45045682356E+02  0.00000000000E+00 0.  1.
         11    1    3    3    0    0 -0.33173815050E+01  0.66868710376E+00 -0.27498123401E+01  0.43604622071E+01  0.51100000000E-03 0. -1.
        -11    1    3    3    0    0 -0.11990664826E+02 -0.24486059453E+01 -0.71643475524E+00  0.12259077985E+02  0.51100000000E-03 0.  1.
         12    1    3    3    0    0 -0.29084338684E+02  0.30110591104E+01 -0.40778860686E+01  0.29522777452E+02  0.00000000000E+00 0. -1.
</event>
<event>
 7    1  0.3708346E-009  0.4614232E+02  0.7816164E-02  0.1320468E+00
        -11   -1    0    0    0    0  0.00000000000E+00  0.00000000000E+00  0.45593999997E+02  0.45594000000E+02  0.51100000000E-03 0.  1.
         11   -1    0    0    0    0 -0.00000000000E+00 -0.00000000000E+00 -0.45593999997E+02  0.45594000000E+02  0.51100000000E-03 0. -1.
    9900012    2    1    2    0    0 -0.26236848878E+02 -0.51168749928E+01 -0.36256845413E+02  0.46142317765E+02  0.10000000035E+02 0.  0.
        -12    1    1    2    0    0  0.26236848878E+02  0.51168749928E+01  0.36256845413E+02  0.45045682235E+02  0.00000000000E+00 0.  1.
         11    1    3    3    0    0 -0.81853813546E+01 -0.19955443049E+01 -0.12404685263E+02  0.14995295320E+02  0.51100000000E-03 0. -1.
        -11    1    3    3    0    0 -0.11106991999E+02 -0.56300374636E+01 -0.17007305170E+02  0.21078686451E+02  0.51100000000E-03 0.  1.
        -12    1    3    3    0    0 -0.69444755236E+01  0.25087067758E+01 -0.68448549803E+01  0.10068335994E+02  0.00000000000E+00 0.  1.
</event>
<event>
 7    1  0.3708346E-009  0.4614232E+02  0.7816164E-02  0.1320468E+00
        -11   -1    0    0    0    0  0.00000000000E+00  0.00000000000E+00  0.45593999997E+02  0.45594000000E+02  0.51100000000E-03 0. -1.
         11   -1    0    0    0    0 -0.00000000000E+00 -0.00000000000E+00 -0.45593999997E+02  0.45594000000E+02  0.51100000000E-03 0.  1.
    9900012    2    1    2    0    0 -0.29572255262E+02  0.33403721542E+02  0.62278851535E+01  0.46142318214E+02  0.10000004128E+02 0.  0.
        -12    1    1    2    0    0  0.29572255262E+02 -0.33403721542E+02 -0.62278851535E+01  0.45045681786E+02  0.00000000000E+00 0.  1.
         11    1    3    3    0    0 -0.13853892553E+02  0.10544847685E+02  0.54853200176E+01  0.18254119741E+02  0.51100000000E-03 0. -1.
        -11    1    3    3    0    0 -0.13414862860E+02  0.18664609813E+02  0.15406387312E+01  0.23036921951E+02  0.51100000000E-03 0.  1.
         12    1    3    3    0    0 -0.23034998487E+01  0.41942640448E+01 -0.79807359527E+00  0.48512765220E+01  0.00000000000E+00 0. -1.
</event>
<event>
 7    1  0.3708346E-009  0.4614232E+02  0.7816164E-02  0.1320468E+00
        -11   -1    0    0    0    0  0.00000000000E+00  0.00000000000E+00  0.45593999997E+02  0.45594000000E+02  0.51100000000E-03 0.  1.
         11   -1    0    0    0    0 -0.00000000000E+00 -0.00000000000E+00 -0.45593999997E+02  0.45594000000E+02  0.51100000000E-03 0. -1.
    9900012    2    1    2    0    0 -0.13673526601E+02  0.36192227836E+01 -0.42767386380E+02  0.46142318287E+02  0.10000004793E+02 0.  0.
        -12    1    1    2    0    0  0.13673526601E+02 -0.36192227836E+01  0.42767386380E+02  0.45045681713E+02  0.00000000000E+00 0.  1.
         11    1    3    3    0    0 -0.60114988363E+01  0.62205999813E+00 -0.12090095448E+02  0.13516489378E+02  0.51100000000E-03 0. -1.
        -11    1    3    3    0    0 -0.51556196501E+01 -0.16751035085E+01 -0.11249068821E+02  0.12487110768E+02  0.51100000000E-03 0.  1.
        -12    1    3    3    0    0 -0.25064081146E+01  0.46722662939E+01 -0.19428222111E+02  0.20138718141E+02  0.00000000000E+00 0.  1.
</event>
<event>
 7    1  0.3708346E-009  0.4614232E+02  0.7816164E-02  0.1320468E+00
        -11   -1    0    0    0    0  0.00000000000E+00  0.00000000000E+00  0.45593999997E+02  0.45594000000E+02  0.51100000000E-03 0.  1.
         11   -1    0    0    0    0 -0.00000000000E+00 -0.00000000000E+00 -0.45593999997E+02  0.45594000000E+02  0.51100000000E-03 0. -1.
    9900012    2    1    2    0    0  0.37560119115E+02  0.22254358745E+02  0.11094792805E+02  0.46142318093E+02  0.10000003025E+02 0.  0.
        -12    1    1    2    0    0 -0.37560119115E+02 -0.22254358745E+02 -0.11094792805E+02  0.45045681907E+02  0.00000000000E+00 0.  1.
         11    1    3    3    0    0  0.13846681934E+02  0.91167115434E+01  0.57798797960E+01  0.17557107981E+02  0.51100000000E-03 0. -1.
        -11    1    3    3    0    0  0.20877277953E+02  0.10591948884E+02  0.69761637371E+01  0.24427791072E+02  0.51100000000E-03 0.  1.
        -12    1    3    3    0    0  0.28361592285E+01  0.25456983175E+01 -0.16612507283E+01  0.41574190402E+01  0.00000000000E+00 0.  1.
</event>
<event>
 7    1  0.3708346E-009  0.4614232E+02  0.7816164E-02  0.1320468E+00
        -11   -1    0    0    0    0  0.00000000000E+00  0.00000000000E+00  0.45593999997E+02  0.45594000000E+02  0.51100000000E-03 0. -1.
         11   -1    0    0    0    0 -0.00000000000E+00 -0.00000000000E+00 -0.45593999997E+02  0.45594000000E+02  0.51100000000E-03 0.  1.
    9900012    2    1    2    0    0 -0.20517701533E+02 -0.13132100999E+01  0.40080080581E+02  0.46142318117E+02  0.10000003242E+02 0.  0.
        -12    1    1    2    0    0  0.20517701533E+02  0.13132100999E+01 -0.40080080581E+02  0.45045681883E+02  0.00000000000E+00 0.  1.
         11    1    3    3    0    0  0.38282355102E+00 -0.12337778888E+01  0.30431879686E+01  0.33060180010E+01  0.51100000000E-03 0. -1.
        -11    1    3    3    0    0 -0.36012851875E+01  0.14858021107E+01  0.96357393520E+01  0.10393475648E+02  0.51100000000E-03 0.  1.
         12    1    3    3    0    0 -0.17299239896E+02 -0.15652343219E+01  0.27401153260E+02  0.32442824468E+02  0.00000000000E+00 0. -1.
</event>
<event>
 7    1  0.3708346E-009  0.4614232E+02  0.7816164E-02  0.1320468E+00
        -11   -1    0    0    0    0  0.00000000000E+00  0.00000000000E+00  0.45593999997E+02  0.45594000000E+02  0.51100000000E-03 0.  1.
         11   -1    0    0    0    0 -0.00000000000E+00 -0.00000000000E+00 -0.45593999997E+02  0.45594000000E+02  0.51100000000E-03 0. -1.
    9900012    2    1    2    0    0  0.26105675732E+02 -0.74890708448E+00 -0.36702129251E+02  0.46142318089E+02  0.10000002989E+02 0.  0.
        -12    1    1    2    0    0 -0.26105675732E+02  0.74890708448E+00  0.36702129251E+02  0.45045681911E+02  0.00000000000E+00 0.  1.
         11    1    3    3    0    0  0.29574473241E+01  0.62814329367E+00 -0.13820806404E+01  0.33243353967E+01  0.51100000000E-03 0. -1.
        -11    1    3    3    0    0  0.47017329275E+01 -0.30500550413E+01 -0.68110056998E+01  0.88203700138E+01  0.51100000000E-03 0.  1.
         12    1    3    3    0    0  0.18446495481E+02  0.16730046632E+01 -0.28509042911E+02  0.33997612678E+02  0.00000000000E+00 0. -1.
</event>
<event>
 7    1  0.3708346E-009  0.4614232E+02  0.7816164E-02  0.1320468E+00
        -11   -1    0    0    0    0  0.00000000000E+00  0.00000000000E+00  0.45593999997E+02  0.45594000000E+02  0.51100000000E-03 0.  1.
         11   -1    0    0    0    0 -0.00000000000E+00 -0.00000000000E+00 -0.45593999997E+02  0.45594000000E+02  0.51100000000E-03 0. -1.
    9900012    2    1    2    0    0  0.24538554712E+02  0.59608356224E+01 -0.37302026356E+02  0.46142318754E+02  0.10000009051E+02 0.  0.
        -12    1    1    2    0    0 -0.24538554712E+02 -0.59608356224E+01  0.37302026356E+02  0.45045681246E+02  0.00000000000E+00 0.  1.
         11    1    3    3    0    0  0.59518914916E+01  0.32787047689E+01 -0.11131768771E+02  0.13041901453E+02  0.51100000000E-03 0. -1.
        -11    1    3    3    0    0  0.93816077439E+01 -0.19818841425E+01 -0.15722036247E+02  0.18415342859E+02  0.51100000000E-03 0.  1.
         12    1    3    3    0    0  0.92050554761E+01  0.46640149960E+01 -0.10448221339E+02  0.14685074441E+02  0.00000000000E+00 0. -1.
</event>
<event>
 7    1  0.3708346E-009  0.4614232E+02  0.7816164E-02  0.1320468E+00
        -11   -1    0    0    0    0  0.00000000000E+00  0.00000000000E+00  0.45593999997E+02  0.45594000000E+02  0.51100000000E-03 0.  1.
         11   -1    0    0    0    0 -0.00000000000E+00 -0.00000000000E+00 -0.45593999997E+02  0.45594000000E+02  0.51100000000E-03 0. -1.
    9900012    2    1    2    0    0 -0.13517477017E+02 -0.42353190001E+02  0.72524923990E+01  0.46142317253E+02  0.99999953632E+01 0.  0.
        -12    1    1    2    0    0  0.13517477017E+02  0.42353190001E+02 -0.72524923990E+01  0.45045682747E+02  0.00000000000E+00 0.  1.
         11    1    3    3    0    0 -0.77109261213E+01 -0.30782972277E+02  0.55383368343E+01  0.32213707315E+02  0.51100000000E-03 0. -1.
        -11    1    3    3    0    0 -0.58478150848E+01 -0.76644242132E+01  0.24658695828E+01  0.99509222109E+01  0.51100000000E-03 0.  1.
         12    1    3    3    0    0  0.41264188793E-01 -0.39057935110E+01 -0.75171401818E+00  0.39776877264E+01  0.00000000000E+00 0. -1.
</event>
<event>
 7    1  0.3708346E-009  0.4614232E+02  0.7816164E-02  0.1320468E+00
        -11   -1    0    0    0    0  0.00000000000E+00  0.00000000000E+00  0.45593999997E+02  0.45594000000E+02  0.51100000000E-03 0.  1.
         11   -1    0    0    0    0 -0.00000000000E+00 -0.00000000000E+00 -0.45593999997E+02  0.45594000000E+02  0.51100000000E-03 0. -1.
    9900012    2    1    2    0    0 -0.73547007920E+01 -0.91306442903E+01 -0.43493140338E+02  0.46142317129E+02  0.99999942356E+01 0.  0.
        -12    1    1    2    0    0  0.73547007920E+01  0.91306442903E+01  0.43493140338E+02  0.45045682871E+02  0.00000000000E+00 0.  1.
         11    1    3    3    0    0 -0.59123982824E+01 -0.90742962773E+01 -0.31439496031E+02  0.33252687370E+02  0.51100000000E-03 0. -1.
        -11    1    3    3    0    0 -0.16920351865E+01 -0.15546322448E+00 -0.13174551380E+01  0.21500791121E+01  0.51100000000E-03 0.  1.
        -12    1    3    3    0    0  0.24973267696E+00  0.99115211431E-01 -0.10736189168E+02  0.10739550647E+02  0.00000000000E+00 0.  1.
</event>
<event>
 7    1  0.3708346E-009  0.4614232E+02  0.7816164E-02  0.1320468E+00
        -11   -1    0    0    0    0  0.00000000000E+00  0.00000000000E+00  0.45593999997E+02  0.45594000000E+02  0.51100000000E-03 0. -1.
         11   -1    0    0    0    0 -0.00000000000E+00 -0.00000000000E+00 -0.45593999997E+02  0.45594000000E+02  0.51100000000E-03 0.  1.
    9900012    2    1    2    0    0 -0.38112007232E+02 -0.21915703661E+02 -0.98127451366E+01  0.46142321746E+02  0.10000036341E+02 0.  0.
        -12    1    1    2    0    0  0.38112007232E+02  0.21915703661E+02  0.98127451366E+01  0.45045678254E+02  0.00000000000E+00 0.  1.
         11    1    3    3    0    0 -0.47063221038E+01 -0.31807214815E+01 -0.10759766003E+01  0.57813651323E+01  0.51100000000E-03 0. -1.
        -11    1    3    3    0    0 -0.30045365909E+02 -0.12963713789E+02 -0.70707432137E+01  0.33478012152E+02  0.51100000000E-03 0.  1.
        -12    1    3    3    0    0 -0.33603192198E+01 -0.57712683907E+01 -0.16660253226E+01  0.68829444623E+01  0.00000000000E+00 0.  1.
</event>
<event>
 7    1  0.3708346E-009  0.4614232E+02  0.7816164E-02  0.1320468E+00
        -11   -1    0    0    0    0  0.00000000000E+00  0.00000000000E+00  0.45593999997E+02  0.45594000000E+02  0.51100000000E-03 0.  1.
         11   -1    0    0    0    0 -0.00000000000E+00 -0.00000000000E+00 -0.45593999997E+02  0.45594000000E+02  0.51100000000E-03 0. -1.
    9900012    2    1    2    0    0 -0.19171115778E+02 -0.21844925421E+01 -0.40703929319E+02  0.46142317079E+02  0.99999937793E+01 0.  0.
        -12    1    1    2    0    0  0.19171115778E+02  0.21844925421E+01  0.40703929319E+02  0.45045682921E+02  0.00000000000E+00 0.  1.
         11    1    3    3    0    0 -0.11670866819E+01 -0.71955495170E+00 -0.26458212957E+01  0.29799700068E+01  0.51100000000E-03 0. -1.
        -11    1    3    3    0    0 -0.16832745089E+02 -0.26305729406E+01 -0.26617701422E+02  0.31603215825E+02  0.51100000000E-03 0.  1.
        -12    1    3    3    0    0 -0.11712840075E+01  0.11656353502E+01 -0.11440406601E+02  0.11559131247E+02  0.00000000000E+00 0.  1.
</event>
<event>
 7    1  0.3708346E-009  0.4614232E+02  0.7816164E-02  0.1320468E+00
        -11   -1    0    0    0    0  0.00000000000E+00  0.00000000000E+00  0.45593999997E+02  0.45594000000E+02  0.51100000000E-03 0.  1.
         11   -1    0    0    0    0 -0.00000000000E+00 -0.00000000000E+00 -0.45593999997E+02  0.45594000000E+02  0.51100000000E-03 0. -1.
    9900012    2    1    2    0    0  0.40039513276E+02 -0.64216488252E+01  0.19614110981E+02  0.46142317115E+02  0.99999941084E+01 0.  0.
        -12    1    1    2    0    0 -0.40039513276E+02  0.64216488252E+01 -0.19614110981E+02  0.45045682885E+02  0.00000000000E+00 0.  1.
         11    1    3    3    0    0  0.10826469668E+02  0.19336668230E+01  0.65010045944E+01  0.12775545931E+02  0.51100000000E-03 0. -1.
        -11    1    3    3    0    0  0.26876925261E+02 -0.88452521825E+01  0.12070847272E+02  0.30762200048E+02  0.51100000000E-03 0.  1.
        -12    1    3    3    0    0  0.23361183469E+01  0.48993653428E+00  0.10422591152E+01  0.26045711358E+01  0.00000000000E+00 0.  1.
</event>
<event>
 7    1  0.3708346E-009  0.4614232E+02  0.7816164E-02  0.1320468E+00
        -11   -1    0    0    0    0  0.00000000000E+00  0.00000000000E+00  0.45593999997E+02  0.45594000000E+02  0.51100000000E-03 0.  1.
         11   -1    0    0    0    0 -0.00000000000E+00 -0.00000000000E+00 -0.45593999997E+02  0.45594000000E+02  0.51100000000E-03 0. -1.
    9900012    2    1    2    0    0 -0.19036880302E+02 -0.39887861772E+02 -0.86988017747E+01  0.46142317847E+02  0.10000000781E+02 0.  0.
        -12    1    1    2    0    0  0.19036880302E+02  0.39887861772E+02  0.86988017747E+01  0.45045682153E+02  0.00000000000E+00 0.  1.
         11    1    3    3    0    0 -0.12181390494E+02 -0.20038325717E+02 -0.67765243612E+01  0.24409876169E+02  0.51100000000E-03 0. -1.
        -11    1    3    3    0    0  0.72379543703E+00 -0.39882413272E+01 -0.67393591245E+00  0.41090313450E+01  0.51100000000E-03 0.  1.
         12    1    3    3    0    0 -0.75792852451E+01 -0.15861294728E+02 -0.12483415011E+01  0.17623410333E+02  0.00000000000E+00 0. -1.
</event>
<event>
 7    1  0.3708346E-009  0.4614232E+02  0.7816164E-02  0.1320468E+00
        -11   -1    0    0    0    0  0.00000000000E+00  0.00000000000E+00  0.45593999997E+02  0.45594000000E+02  0.51100000000E-03 0.  1.
         11   -1    0    0    0    0 -0.00000000000E+00 -0.00000000000E+00 -0.45593999997E+02  0.45594000000E+02  0.51100000000E-03 0. -1.
    9900012    2    1    2    0    0  0.37616325206E+02  0.24682676025E+02  0.22116210070E+01  0.46142315576E+02  0.99999800704E+01 0.  0.
        -12    1    1    2    0    0 -0.37616325206E+02 -0.24682676025E+02 -0.22116210070E+01  0.45045684424E+02  0.00000000000E+00 0.  1.
         11    1    3    3    0    0  0.10837491490E+02  0.73759000426E+01 -0.66474752143E+00  0.13126195670E+02  0.51100000000E-03 0. -1.
        -11    1    3    3    0    0  0.61508388532E+01  0.79574167373E+01 -0.72557788113E+00  0.10083638394E+02  0.51100000000E-03 0.  1.
        -12    1    3    3    0    0  0.20627994863E+02  0.93493592452E+01  0.36019464095E+01  0.22932481512E+02  0.00000000000E+00 0.  1.
</event>
<event>
 7    1  0.3708346E-009  0.4614232E+02  0.7816164E-02  0.1320468E+00
        -11   -1    0    0    0    0  0.00000000000E+00  0.00000000000E+00  0.45593999997E+02  0.45594000000E+02  0.51100000000E-03 0.  1.
         11   -1    0    0    0    0 -0.00000000000E+00 -0.00000000000E+00 -0.45593999997E+02  0.45594000000E+02  0.51100000000E-03 0. -1.
    9900012    2    1    2    0    0  0.12644944080E+02 -0.30925026668E+02 -0.30213598574E+02  0.46142318476E+02  0.10000006517E+02 0.  0.
        -12    1    1    2    0    0 -0.12644944080E+02  0.30925026668E+02  0.30213598574E+02  0.45045681524E+02  0.00000000000E+00 0.  1.
         11    1    3    3    0    0 -0.81304224207E+00 -0.73946900929E+00 -0.22839794240E+00  0.11225052268E+01  0.51100000000E-03 0.  1.
        -11    1    3    3    0    0  0.95534492642E+01 -0.19570542696E+02 -0.23247518847E+02  0.31854696154E+02  0.51100000000E-03 0. -1.
         12    1    3    3    0    0  0.39045370579E+01 -0.10615014963E+02 -0.67376817846E+01  0.13165117095E+02  0.00000000000E+00 0. -1.
</event>
<event>
 7    1  0.3708346E-009  0.4614232E+02  0.7816164E-02  0.1320468E+00
        -11   -1    0    0    0    0  0.00000000000E+00  0.00000000000E+00  0.45593999997E+02  0.45594000000E+02  0.51100000000E-03 0.  1.
         11   -1    0    0    0    0 -0.00000000000E+00 -0.00000000000E+00 -0.45593999997E+02  0.45594000000E+02  0.51100000000E-03 0. -1.
    9900012    2    1    2    0    0 -0.16660262705E+01 -0.28053100438E+02 -0.35204563780E+02  0.46142318757E+02  0.10000009083E+02 0.  0.
        -12    1    1    2    0    0  0.16660262705E+01  0.28053100438E+02  0.35204563780E+02  0.45045681243E+02  0.00000000000E+00 0.  1.
         11    1    3    3    0    0  0.80684708802E+00 -0.79710893354E+01 -0.12483340978E+02  0.14833174632E+02  0.51100000000E-03 0. -1.
        -11    1    3    3    0    0 -0.35783954961E+01 -0.11074478388E+02 -0.83937383588E+01  0.14349349455E+02  0.51100000000E-03 0.  1.
        -12    1    3    3    0    0  0.11055221376E+01 -0.90075327145E+01 -0.14327484443E+02  0.16959794670E+02  0.00000000000E+00 0.  1.
</event>
<event>
 7    1  0.3708346E-009  0.4614232E+02  0.7816164E-02  0.1320468E+00
        -11   -1    0    0    0    0  0.00000000000E+00  0.00000000000E+00  0.45593999997E+02  0.45594000000E+02  0.51100000000E-03 0.  1.
         11   -1    0    0    0    0 -0.00000000000E+00 -0.00000000000E+00 -0.45593999997E+02  0.45594000000E+02  0.51100000000E-03 0. -1.
    9900012    2    1    2    0    0  0.15153837125E+02 -0.10389087359E+02 -0.41128357143E+02  0.46142315666E+02  0.99999808988E+01 0.  0.
        -12    1    1    2    0    0 -0.15153837125E+02  0.10389087359E+02  0.41128357143E+02  0.45045684334E+02  0.00000000000E+00 0.  1.
         11    1    3    3    0    0  0.82071819861E+01 -0.44140130454E+01 -0.26612380138E+02  0.28196810532E+02  0.51100000000E-03 0. -1.
        -11    1    3    3    0    0 -0.64557505883E+00 -0.19793129288E+00 -0.13632257909E+00  0.68885997124E+00  0.51100000000E-03 0.  1.
        -12    1    3    3    0    0  0.75922301980E+01 -0.57771430209E+01 -0.14379654426E+02  0.17256645163E+02  0.00000000000E+00 0.  1.
</event>
<event>
 7    1  0.3708346E-009  0.4614232E+02  0.7816164E-02  0.1320468E+00
        -11   -1    0    0    0    0  0.00000000000E+00  0.00000000000E+00  0.45593999997E+02  0.45594000000E+02  0.51100000000E-03 0. -1.
         11   -1    0    0    0    0 -0.00000000000E+00 -0.00000000000E+00 -0.45593999997E+02  0.45594000000E+02  0.51100000000E-03 0.  1.
    9900012    2    1    2    0    0  0.26326159703E+02 -0.24711227130E+02  0.26933288336E+02  0.46142318170E+02  0.10000003725E+02 0.  0.
        -12    1    1    2    0    0 -0.26326159703E+02  0.24711227130E+02 -0.26933288336E+02  0.45045681830E+02  0.00000000000E+00 0.  1.
         11    1    3    3    0    0  0.13258847899E+02 -0.10371147793E+02  0.12556063754E+02  0.21000297413E+02  0.51100000000E-03 0. -1.
        -11    1    3    3    0    0  0.57597261623E+01 -0.16742245598E+01  0.39380091353E+01  0.71753320168E+01  0.51100000000E-03 0.  1.
        -12    1    3    3    0    0  0.73075856414E+01 -0.12665854777E+02  0.10439215446E+02  0.17966688740E+02  0.00000000000E+00 0.  1.
</event>
<event>
 7    1  0.3708346E-009  0.4614232E+02  0.7816164E-02  0.1320468E+00
        -11   -1    0    0    0    0  0.00000000000E+00  0.00000000000E+00  0.45593999997E+02  0.45594000000E+02  0.51100000000E-03 0. -1.
         11   -1    0    0    0    0 -0.00000000000E+00 -0.00000000000E+00 -0.45593999997E+02  0.45594000000E+02  0.51100000000E-03 0.  1.
    9900012    2    1    2    0    0  0.60048110965E+01 -0.35228679676E+02  0.27422543347E+02  0.46142317503E+02  0.99999976445E+01 0.  0.
        -12    1    1    2    0    0 -0.60048110965E+01  0.35228679676E+02 -0.27422543347E+02  0.45045682497E+02  0.00000000000E+00 0.  1.
         11    1    3    3    0    0  0.21511476359E+01 -0.22136698873E+02  0.15342775333E+02  0.27019652631E+02  0.51100000000E-03 0. -1.
        -11    1    3    3    0    0  0.24063807807E+01 -0.64474128581E+01  0.23906290452E+01  0.72852528108E+01  0.51100000000E-03 0.  1.
         12    1    3    3    0    0  0.14472826799E+01 -0.66445679448E+01  0.96891389693E+01  0.11837412061E+02  0.00000000000E+00 0. -1.
</event>
<event>
 7    1  0.3708346E-009  0.4614232E+02  0.7816164E-02  0.1320468E+00
        -11   -1    0    0    0    0  0.00000000000E+00  0.00000000000E+00  0.45593999997E+02  0.45594000000E+02  0.51100000000E-03 0.  1.
         11   -1    0    0    0    0 -0.00000000000E+00 -0.00000000000E+00 -0.45593999997E+02  0.45594000000E+02  0.51100000000E-03 0. -1.
    9900012    2    1    2    0    0  0.42955084441E+02  0.84385144126E+00 -0.13537434688E+02  0.46142317604E+02  0.99999985667E+01 0.  0.
        -12    1    1    2    0    0 -0.42955084441E+02 -0.84385144126E+00  0.13537434688E+02  0.45045682396E+02  0.00000000000E+00 0.  1.
         11    1    3    3    0    0  0.43282919475E+01 -0.26605673769E-01 -0.12496540654E+01  0.45051586641E+01  0.51100000000E-03 0. -1.
        -11    1    3    3    0    0  0.30671370063E+02  0.27670787811E+01 -0.13000935910E+02  0.33427742989E+02  0.51100000000E-03 0.  1.
        -12    1    3    3    0    0  0.79554224305E+01 -0.18966216661E+01  0.71315528746E+00  0.82094159509E+01  0.00000000000E+00 0.  1.
</event>
<event>
 7    1  0.3708346E-009  0.4614232E+02  0.7816164E-02  0.1320468E+00
        -11   -1    0    0    0    0  0.00000000000E+00  0.00000000000E+00  0.45593999997E+02  0.45594000000E+02  0.51100000000E-03 0. -1.
         11   -1    0    0    0    0 -0.00000000000E+00 -0.00000000000E+00 -0.45593999997E+02  0.45594000000E+02  0.51100000000E-03 0.  1.
    9900012    2    1    2    0    0  0.18147543783E+02 -0.19080156350E+02  0.36547609523E+02  0.46142317926E+02  0.10000001500E+02 0.  0.
        -12    1    1    2    0    0 -0.18147543783E+02  0.19080156350E+02 -0.36547609523E+02  0.45045682074E+02  0.00000000000E+00 0.  1.
         11    1    3    3    0    0  0.16111145279E+02 -0.14423715710E+02  0.32605539518E+02  0.39124593092E+02  0.51100000000E-03 0. -1.
        -11    1    3    3    0    0 -0.16901256382E+00 -0.11768722679E+01  0.22879452299E+01  0.25784272761E+01  0.51100000000E-03 0.  1.
         12    1    3    3    0    0  0.22054110675E+01 -0.34795683725E+01  0.16541247755E+01  0.44392975579E+01  0.00000000000E+00 0. -1.
</event>
<event>
 7    1  0.3708346E-009  0.4614232E+02  0.7816164E-02  0.1320468E+00
        -11   -1    0    0    0    0  0.00000000000E+00  0.00000000000E+00  0.45593999997E+02  0.45594000000E+02  0.51100000000E-03 0.  1.
         11   -1    0    0    0    0 -0.00000000000E+00 -0.00000000000E+00 -0.45593999997E+02  0.45594000000E+02  0.51100000000E-03 0. -1.
    9900012    2    1    2    0    0  0.32507712061E+02 -0.14019743378E+02 -0.27853347887E+02  0.46142317229E+02  0.99999951442E+01 0.  0.
        -12    1    1    2    0    0 -0.32507712061E+02  0.14019743378E+02  0.27853347887E+02  0.45045682771E+02  0.00000000000E+00 0.  1.
         11    1    3    3    0    0  0.15489016111E+02 -0.78196356589E+01 -0.11623788252E+02  0.20884654067E+02  0.51100000000E-03 0. -1.
        -11    1    3    3    0    0  0.13755625256E+02 -0.70416057670E+01 -0.15335922039E+02  0.21771356021E+02  0.51100000000E-03 0.  1.
         12    1    3    3    0    0  0.32630706940E+01  0.84149804828E+00 -0.89363759595E+00  0.34863071397E+01  0.00000000000E+00 0. -1.
</event>
<event>
 7    1  0.3708346E-009  0.4614232E+02  0.7816164E-02  0.1320468E+00
        -11   -1    0    0    0    0  0.00000000000E+00  0.00000000000E+00  0.45593999997E+02  0.45594000000E+02  0.51100000000E-03 0.  1.
         11   -1    0    0    0    0 -0.00000000000E+00 -0.00000000000E+00 -0.45593999997E+02  0.45594000000E+02  0.51100000000E-03 0. -1.
    9900012    2    1    2    0    0 -0.38369456794E+02  0.23595393493E+02  0.39455527784E+00  0.46142317825E+02  0.10000000579E+02 0.  0.
        -12    1    1    2    0    0  0.38369456794E+02 -0.23595393493E+02 -0.39455527784E+00  0.45045682175E+02  0.00000000000E+00 0.  1.
         11    1    3    3    0    0 -0.15507886921E+02  0.93481741859E+01  0.24225855899E+01  0.18268876226E+02  0.51100000000E-03 0. -1.
        -11    1    3    3    0    0 -0.14888220374E+02  0.94172748574E+01 -0.45917584889E+01  0.18205175581E+02  0.51100000000E-03 0.  1.
        -12    1    3    3    0    0 -0.79733494994E+01  0.48299444494E+01  0.25637281769E+01  0.96682660177E+01  0.00000000000E+00 0.  1.
</event>
<event>
 7    1  0.3708346E-009  0.4614232E+02  0.7816164E-02  0.1320468E+00
        -11   -1    0    0    0    0  0.00000000000E+00  0.00000000000E+00  0.45593999997E+02  0.45594000000E+02  0.51100000000E-03 0.  1.
         11   -1    0    0    0    0 -0.00000000000E+00 -0.00000000000E+00 -0.45593999997E+02  0.45594000000E+02  0.51100000000E-03 0. -1.
    9900012    2    1    2    0    0  0.23503242667E+02  0.16326209892E+02 -0.34787438168E+02  0.46142318746E+02  0.10000008982E+02 0.  0.
        -12    1    1    2    0    0 -0.23503242667E+02 -0.16326209892E+02  0.34787438168E+02  0.45045681254E+02  0.00000000000E+00 0.  1.
         11    1    3    3    0    0  0.50490567140E+01  0.56431085983E+01 -0.66165919386E+01  0.10055691796E+02  0.51100000000E-03 0. -1.
        -11    1    3    3    0    0  0.10852616458E+02  0.75897880571E+01 -0.11643886329E+02  0.17634178627E+02  0.51100000000E-03 0.  1.
        -12    1    3    3    0    0  0.76015694953E+01  0.30933132362E+01 -0.16526959900E+02  0.18452448323E+02  0.00000000000E+00 0.  1.
</event>
<event>
 7    1  0.3708346E-009  0.4614232E+02  0.7816164E-02  0.1320468E+00
        -11   -1    0    0    0    0  0.00000000000E+00  0.00000000000E+00  0.45593999997E+02  0.45594000000E+02  0.51100000000E-03 0. -1.
         11   -1    0    0    0    0 -0.00000000000E+00 -0.00000000000E+00 -0.45593999997E+02  0.45594000000E+02  0.51100000000E-03 0.  1.
    9900012    2    1    2    0    0  0.20171736000E+02  0.38343077718E+02 -0.12329759452E+02  0.46142317518E+02  0.99999977812E+01 0.  0.
        -12    1    1    2    0    0 -0.20171736000E+02 -0.38343077718E+02  0.12329759452E+02  0.45045682482E+02  0.00000000000E+00 0.  1.
         11    1    3    3    0    0  0.10888142500E+01 -0.23424322821E+00 -0.72326026099E-01  0.11160724332E+01  0.51100000000E-03 0. -1.
        -11    1    3    3    0    0  0.10293872345E+02  0.23500121421E+02 -0.50685077422E+01  0.26151659329E+02  0.51100000000E-03 0.  1.
         12    1    3    3    0    0  0.87890494045E+01  0.15077199526E+02 -0.71889256838E+01  0.18874585756E+02  0.00000000000E+00 0. -1.
</event>
<event>
 7    1  0.3708346E-009  0.4614232E+02  0.7816164E-02  0.1320468E+00
        -11   -1    0    0    0    0  0.00000000000E+00  0.00000000000E+00  0.45593999997E+02  0.45594000000E+02  0.51100000000E-03 0.  1.
         11   -1    0    0    0    0 -0.00000000000E+00 -0.00000000000E+00 -0.45593999997E+02  0.45594000000E+02  0.51100000000E-03 0. -1.
    9900012    2    1    2    0    0  0.54482554152E+01  0.43683959796E+02 -0.95468176957E+01  0.46142316981E+02  0.99999928878E+01 0.  0.
        -12    1    1    2    0    0 -0.54482554152E+01 -0.43683959796E+02  0.95468176957E+01  0.45045683019E+02  0.00000000000E+00 0.  1.
         11    1    3    3    0    0  0.45738112552E+00  0.29377971280E+01 -0.25575548712E+01  0.39218537249E+01  0.51100000000E-03 0. -1.
        -11    1    3    3    0    0  0.12435146996E+01  0.91062362761E+01  0.13418381767E+01  0.92881859304E+01  0.51100000000E-03 0.  1.
        -12    1    3    3    0    0  0.37473595901E+01  0.31639926392E+02 -0.83311010012E+01  0.32932277326E+02  0.00000000000E+00 0.  1.
</event>
<event>
 7    1  0.3708346E-009  0.4614232E+02  0.7816164E-02  0.1320468E+00
        -11   -1    0    0    0    0  0.00000000000E+00  0.00000000000E+00  0.45593999997E+02  0.45594000000E+02  0.51100000000E-03 0.  1.
         11   -1    0    0    0    0 -0.00000000000E+00 -0.00000000000E+00 -0.45593999997E+02  0.45594000000E+02  0.51100000000E-03 0. -1.
    9900012    2    1    2    0    0 -0.12670025636E+02  0.27989434705E+02 -0.32942000551E+02  0.46142318686E+02  0.10000008438E+02 0.  0.
        -12    1    1    2    0    0  0.12670025636E+02 -0.27989434705E+02  0.32942000551E+02  0.45045681314E+02  0.00000000000E+00 0.  1.
         11    1    3    3    0    0 -0.17604102197E+01  0.21347415003E+01 -0.39671932030E+00  0.27952731342E+01  0.51100000000E-03 0. -1.
        -11    1    3    3    0    0 -0.11081918242E+02  0.20833993978E+02 -0.26389271504E+02  0.35401382286E+02  0.51100000000E-03 0.  1.
         12    1    3    3    0    0  0.17230282536E+00  0.50206992267E+01 -0.61560097269E+01  0.79456632666E+01  0.00000000000E+00 0. -1.
</event>
<event>
 7    1  0.3708346E-009  0.4614232E+02  0.7816164E-02  0.1320468E+00
        -11   -1    0    0    0    0  0.00000000000E+00  0.00000000000E+00  0.45593999997E+02  0.45594000000E+02  0.51100000000E-03 0.  1.
         11   -1    0    0    0    0 -0.00000000000E+00 -0.00000000000E+00 -0.45593999997E+02  0.45594000000E+02  0.51100000000E-03 0. -1.
    9900012    2    1    2    0    0  0.29470997157E+02  0.30694317133E+02 -0.14779469506E+02  0.46142317670E+02  0.99999991697E+01 0.  0.
        -12    1    1    2    0    0 -0.29470997157E+02 -0.30694317133E+02  0.14779469506E+02  0.45045682330E+02  0.00000000000E+00 0.  1.
         11    1    3    3    0    0  0.58409810038E+01  0.62400008825E+01 -0.10858914307E+01  0.86159056726E+01  0.51100000000E-03 0. -1.
        -11    1    3    3    0    0  0.16913753950E+02  0.16847792907E+02 -0.55356534502E+01  0.24506461554E+02  0.51100000000E-03 0.  1.
        -12    1    3    3    0    0  0.67162622028E+01  0.76065233442E+01 -0.81579246250E+01  0.13019950443E+02  0.00000000000E+00 0.  1.
</event>
<event>
 7    1  0.3708346E-009  0.4614232E+02  0.7816164E-02  0.1320468E+00
        -11   -1    0    0    0    0  0.00000000000E+00  0.00000000000E+00  0.45593999997E+02  0.45594000000E+02  0.51100000000E-03 0. -1.
         11   -1    0    0    0    0 -0.00000000000E+00 -0.00000000000E+00 -0.45593999997E+02  0.45594000000E+02  0.51100000000E-03 0.  1.
    9900012    2    1    2    0    0  0.26931303544E+02 -0.52372813728E+00  0.36104627560E+02  0.46142317265E+02  0.99999954781E+01 0.  0.
        -12    1    1    2    0    0 -0.26931303544E+02  0.52372813728E+00 -0.36104627560E+02  0.45045682735E+02  0.00000000000E+00 0.  1.
         11    1    3    3    0    0  0.11408296831E+02 -0.61662155920E+00  0.99725966766E+01  0.15165162164E+02  0.51100000000E-03 0. -1.
        -11    1    3    3    0    0  0.11590941103E+02  0.96861517540E+00  0.23334255271E+02  0.26072506598E+02  0.51100000000E-03 0.  1.
        -12    1    3    3    0    0  0.39320656105E+01 -0.87572175347E+00  0.27977756132E+01  0.49046485029E+01  0.00000000000E+00 0.  1.
</event>
<event>
 7    1  0.3708346E-009  0.4614232E+02  0.7816164E-02  0.1320468E+00
        -11   -1    0    0    0    0  0.00000000000E+00  0.00000000000E+00  0.45593999997E+02  0.45594000000E+02  0.51100000000E-03 0.  1.
         11   -1    0    0    0    0 -0.00000000000E+00 -0.00000000000E+00 -0.45593999997E+02  0.45594000000E+02  0.51100000000E-03 0. -1.
    9900012    2    1    2    0    0 -0.29845926831E+01  0.35176639286E+02 -0.27978736679E+02  0.46142318175E+02  0.10000003772E+02 0.  0.
        -12    1    1    2    0    0  0.29845926831E+01 -0.35176639286E+02  0.27978736679E+02  0.45045681825E+02  0.00000000000E+00 0.  1.
         11    1    3    3    0    0  0.30454806427E+01  0.80099615186E+01 -0.77809360163E+01  0.11574860752E+02  0.51100000000E-03 0. -1.
        -11    1    3    3    0    0 -0.70756749821E+00  0.53649869675E+00 -0.78912413755E+00  0.11879393005E+01  0.51100000000E-03 0.  1.
         12    1    3    3    0    0 -0.53225058276E+01  0.26630179071E+02 -0.19408676525E+02  0.33379518122E+02  0.00000000000E+00 0. -1.
</event>
<event>
 7    1  0.3708346E-009  0.4614232E+02  0.7816164E-02  0.1320468E+00
        -11   -1    0    0    0    0  0.00000000000E+00  0.00000000000E+00  0.45593999997E+02  0.45594000000E+02  0.51100000000E-03 0.  1.
         11   -1    0    0    0    0 -0.00000000000E+00 -0.00000000000E+00 -0.45593999997E+02  0.45594000000E+02  0.51100000000E-03 0. -1.
    9900012    2    1    2    0    0  0.35711053826E+02 -0.73374743675E+01 -0.26457430333E+02  0.46142317462E+02  0.99999972743E+01 0.  0.
        -12    1    1    2    0    0 -0.35711053826E+02  0.73374743675E+01  0.26457430333E+02  0.45045682538E+02  0.00000000000E+00 0.  1.
         11    1    3    3    0    0  0.12843543332E+01  0.66420679589E+00 -0.11563617942E+01  0.18514614717E+01  0.51100000000E-03 0. -1.
        -11    1    3    3    0    0  0.31982584376E+02 -0.82034185601E+01 -0.20403176816E+02  0.38813289011E+02  0.51100000000E-03 0.  1.
        -12    1    3    3    0    0  0.24441151172E+01  0.20173739673E+00 -0.48978917229E+01  0.54775669793E+01  0.00000000000E+00 0.  1.
</event>
<event>
 7    1  0.3708346E-009  0.4614232E+02  0.7816164E-02  0.1320468E+00
        -11   -1    0    0    0    0  0.00000000000E+00  0.00000000000E+00  0.45593999997E+02  0.45594000000E+02  0.51100000000E-03 0.  1.
         11   -1    0    0    0    0 -0.00000000000E+00 -0.00000000000E+00 -0.45593999997E+02  0.45594000000E+02  0.51100000000E-03 0. -1.
    9900012    2    1    2    0    0  0.10165825883E+02 -0.26376218616E+01 -0.43804251188E+02  0.46142317775E+02  0.10000000125E+02 0.  0.
        -12    1    1    2    0    0 -0.10165825883E+02  0.26376218616E+01  0.43804251188E+02  0.45045682225E+02  0.00000000000E+00 0.  1.
         11    1    3    3    0    0  0.30910447465E+01  0.18413106310E+01 -0.70060369594E+01  0.78758832268E+01  0.51100000000E-03 0. -1.
        -11    1    3    3    0    0 -0.10546941188E+01  0.17110161825E+00 -0.26518436700E+01  0.28590086673E+01  0.51100000000E-03 0.  1.
         12    1    3    3    0    0  0.81294752555E+01 -0.46500341109E+01 -0.34146370559E+02  0.35407425881E+02  0.00000000000E+00 0. -1.
</event>
<event>
 7    1  0.3708346E-009  0.4614232E+02  0.7816164E-02  0.1320468E+00
        -11   -1    0    0    0    0  0.00000000000E+00  0.00000000000E+00  0.45593999997E+02  0.45594000000E+02  0.51100000000E-03 0.  1.
         11   -1    0    0    0    0 -0.00000000000E+00 -0.00000000000E+00 -0.45593999997E+02  0.45594000000E+02  0.51100000000E-03 0. -1.
    9900012    2    1    2    0    0 -0.55420861261E+01 -0.23607988657E+02 -0.37961317459E+02  0.46142317962E+02  0.10000001830E+02 0.  0.
        -12    1    1    2    0    0  0.55420861261E+01  0.23607988657E+02  0.37961317459E+02  0.45045682038E+02  0.00000000000E+00 0.  1.
         11    1    3    3    0    0 -0.15751549290E+01 -0.32143349750E+01 -0.53130149297E+01  0.64063398510E+01  0.51100000000E-03 0. -1.
        -11    1    3    3    0    0 -0.44766922185E+01 -0.63310561149E+01 -0.17037699205E+02  0.18719140985E+02  0.51100000000E-03 0.  1.
        -12    1    3    3    0    0  0.50976102145E+00 -0.14062597567E+02 -0.15610603324E+02  0.21016837126E+02  0.00000000000E+00 0.  1.
</event>
<event>
 7    1  0.3708346E-009  0.4614232E+02  0.7816164E-02  0.1320468E+00
        -11   -1    0    0    0    0  0.00000000000E+00  0.00000000000E+00  0.45593999997E+02  0.45594000000E+02  0.51100000000E-03 0.  1.
         11   -1    0    0    0    0 -0.00000000000E+00 -0.00000000000E+00 -0.45593999997E+02  0.45594000000E+02  0.51100000000E-03 0. -1.
    9900012    2    1    2    0    0 -0.24852798555E+02 -0.19748467665E+02 -0.31960131203E+02  0.46142316992E+02  0.99999929911E+01 0.  0.
        -12    1    1    2    0    0  0.24852798555E+02  0.19748467665E+02  0.31960131203E+02  0.45045683008E+02  0.00000000000E+00 0.  1.
         11    1    3    3    0    0 -0.14158078183E+02 -0.97968842955E+01 -0.15824991818E+02  0.23385048343E+02  0.51100000000E-03 0. -1.
        -11    1    3    3    0    0 -0.26634407441E+01 -0.26970230836E+01 -0.62077661034E+00  0.38409912747E+01  0.51100000000E-03 0.  1.
         12    1    3    3    0    0 -0.80312796280E+01 -0.72545602854E+01 -0.15514362775E+02  0.18916277374E+02  0.00000000000E+00 0. -1.
</event>
<event>
 7    1  0.3708346E-009  0.4614231E+02  0.7816164E-02  0.1320468E+00
        -11   -1    0    0    0    0  0.00000000000E+00  0.00000000000E+00  0.45593999997E+02  0.45594000000E+02  0.51100000000E-03 0. -1.
         11   -1    0    0    0    0 -0.00000000000E+00 -0.00000000000E+00 -0.45593999997E+02  0.45594000000E+02  0.51100000000E-03 0.  1.
    9900012    2    1    2    0    0  0.44817971997E+02 -0.17807770882E+01 -0.41583640324E+01  0.46142314608E+02  0.99999712517E+01 0.  0.
        -12    1    1    2    0    0 -0.44817971997E+02  0.17807770882E+01  0.41583640324E+01  0.45045685392E+02  0.00000000000E+00 0.  1.
         11    1    3    3    0    0  0.18192102467E+02 -0.31326236759E+01 -0.28104931480E+01  0.18672567988E+02  0.51100000000E-03 0.  1.
        -11    1    3    3    0    0  0.20645719520E+02  0.15227433845E+01  0.16700574478E+01  0.20769053277E+02  0.51100000000E-03 0. -1.
         12    1    3    3    0    0  0.59801500105E+01 -0.17089679678E+00 -0.30179283321E+01  0.67006933433E+01  0.00000000000E+00 0. -1.
</event>
<event>
 7    1  0.3708346E-009  0.4614232E+02  0.7816164E-02  0.1320468E+00
        -11   -1    0    0    0    0  0.00000000000E+00  0.00000000000E+00  0.45593999997E+02  0.45594000000E+02  0.51100000000E-03 0.  1.
         11   -1    0    0    0    0 -0.00000000000E+00 -0.00000000000E+00 -0.45593999997E+02  0.45594000000E+02  0.51100000000E-03 0. -1.
    9900012    2    1    2    0    0 -0.24337090430E+02  0.37103883142E+02 -0.77537968928E+01  0.46142317842E+02  0.10000000736E+02 0.  0.
        -12    1    1    2    0    0  0.24337090430E+02 -0.37103883142E+02  0.77537968928E+01  0.45045682158E+02  0.00000000000E+00 0.  1.
         11    1    3    3    0    0 -0.24224290973E+01  0.24418394464E+01 -0.22636730887E+01  0.41176399462E+01  0.51100000000E-03 0. -1.
        -11    1    3    3    0    0 -0.13827592587E+02  0.20681357436E+02  0.26283739397E+00  0.24879508554E+02  0.51100000000E-03 0.  1.
        -12    1    3    3    0    0 -0.80870687461E+01  0.13980686260E+02 -0.57529611981E+01  0.17145169342E+02  0.00000000000E+00 0.  1.
</event>
<event>
 7    1  0.3708346E-009  0.4614232E+02  0.7816164E-02  0.1320468E+00
        -11   -1    0    0    0    0  0.00000000000E+00  0.00000000000E+00  0.45593999997E+02  0.45594000000E+02  0.51100000000E-03 0.  1.
         11   -1    0    0    0    0 -0.00000000000E+00 -0.00000000000E+00 -0.45593999997E+02  0.45594000000E+02  0.51100000000E-03 0. -1.
    9900012    2    1    2    0    0  0.35655526428E+02  0.25518052148E+02  0.10325988116E+02  0.46142316735E+02  0.99999906421E+01 0.  0.
        -12    1    1    2    0    0 -0.35655526428E+02 -0.25518052148E+02 -0.10325988116E+02  0.45045683265E+02  0.00000000000E+00 0.  1.
         11    1    3    3    0    0  0.77686187198E+01  0.10628080677E+02  0.19462671073E+01  0.13307723006E+02  0.51100000000E-03 0.  1.
        -11    1    3    3    0    0  0.35721244495E+01  0.29412062369E+01  0.17149621188E+01  0.49347606366E+01  0.51100000000E-03 0. -1.
         12    1    3    3    0    0  0.24314783259E+02  0.11948765234E+02  0.66647588894E+01  0.27899833092E+02  0.00000000000E+00 0. -1.
</event>
<event>
 7    1  0.3708346E-009  0.4614231E+02  0.7816164E-02  0.1320468E+00
        -11   -1    0    0    0    0  0.00000000000E+00  0.00000000000E+00  0.45593999997E+02  0.45594000000E+02  0.51100000000E-03 0.  1.
         11   -1    0    0    0    0 -0.00000000000E+00 -0.00000000000E+00 -0.45593999997E+02  0.45594000000E+02  0.51100000000E-03 0. -1.
    9900012    2    1    2    0    0  0.18907813314E+02  0.37098330167E+02 -0.17184947205E+02  0.46142313015E+02  0.99999567228E+01 0.  0.
        -12    1    1    2    0    0 -0.18907813314E+02 -0.37098330167E+02  0.17184947205E+02  0.45045686985E+02  0.00000000000E+00 0.  1.
         11    1    3    3    0    0  0.83253800440E+01  0.18902924240E+02 -0.78411593383E+01  0.22093353701E+02  0.51100000000E-03 0. -1.
        -11    1    3    3    0    0  0.17109450075E+01  0.78093724361E+01 -0.10353430991E+01  0.80613625559E+01  0.51100000000E-03 0.  1.
        -12    1    3    3    0    0  0.88714882629E+01  0.10386033490E+02 -0.83084447672E+01  0.15987596758E+02  0.00000000000E+00 0.  1.
</event>
<event>
 7    1  0.3708346E-009  0.4614232E+02  0.7816164E-02  0.1320468E+00
        -11   -1    0    0    0    0  0.00000000000E+00  0.00000000000E+00  0.45593999997E+02  0.45594000000E+02  0.51100000000E-03 0.  1.
         11   -1    0    0    0    0 -0.00000000000E+00 -0.00000000000E+00 -0.45593999997E+02  0.45594000000E+02  0.51100000000E-03 0. -1.
    9900012    2    1    2    0    0 -0.12853552753E+02 -0.15649106325E+02 -0.40236862595E+02  0.46142318091E+02  0.10000003010E+02 0.  0.
        -12    1    1    2    0    0  0.12853552753E+02  0.15649106325E+02  0.40236862595E+02  0.45045681909E+02  0.00000000000E+00 0.  1.
         11    1    3    3    0    0 -0.31964158762E+01 -0.23952796579E+01 -0.89508281171E+01  0.98016204444E+01  0.51100000000E-03 0. -1.
        -11    1    3    3    0    0 -0.60166337696E+01 -0.11715174802E+02 -0.28808399678E+02  0.31676001876E+02  0.51100000000E-03 0.  1.
        -12    1    3    3    0    0 -0.36405031071E+01 -0.15386518647E+01 -0.24776347998E+01  0.46646957708E+01  0.00000000000E+00 0.  1.
</event>
<event>
 7    1  0.3708346E-009  0.4614232E+02  0.7816164E-02  0.1320468E+00
        -11   -1    0    0    0    0  0.00000000000E+00  0.00000000000E+00  0.45593999997E+02  0.45594000000E+02  0.51100000000E-03 0.  1.
         11   -1    0    0    0    0 -0.00000000000E+00 -0.00000000000E+00 -0.45593999997E+02  0.45594000000E+02  0.51100000000E-03 0. -1.
    9900012    2    1    2    0    0 -0.14967556938E+02 -0.17715420409E+02 -0.38616701116E+02  0.46142317787E+02  0.10000000237E+02 0.  0.
        -12    1    1    2    0    0  0.14967556938E+02  0.17715420409E+02  0.38616701116E+02  0.45045682213E+02  0.00000000000E+00 0.  1.
         11    1    3    3    0    0 -0.76777174396E+01 -0.72756619622E+01 -0.24892670243E+02  0.27046767536E+02  0.51100000000E-03 0. -1.
        -11    1    3    3    0    0 -0.20928557338E+01 -0.62807118151E+01 -0.69569048634E+01  0.96034322805E+01  0.51100000000E-03 0.  1.
         12    1    3    3    0    0 -0.51969837649E+01 -0.41590466318E+01 -0.67671260096E+01  0.94921179706E+01  0.00000000000E+00 0. -1.
</event>
<event>
 7    1  0.3708346E-009  0.4614232E+02  0.7816164E-02  0.1320468E+00
        -11   -1    0    0    0    0  0.00000000000E+00  0.00000000000E+00  0.45593999997E+02  0.45594000000E+02  0.51100000000E-03 0.  1.
         11   -1    0    0    0    0 -0.00000000000E+00 -0.00000000000E+00 -0.45593999997E+02  0.45594000000E+02  0.51100000000E-03 0. -1.
    9900012    2    1    2    0    0 -0.25714717846E+02 -0.26116963561E+01 -0.36892352170E+02  0.46142319626E+02  0.10000017002E+02 0.  0.
        -12    1    1    2    0    0  0.25714717846E+02  0.26116963561E+01  0.36892352170E+02  0.45045680374E+02  0.00000000000E+00 0.  1.
         11    1    3    3    0    0 -0.17742780007E+02 -0.54299345389E+01 -0.23065506669E+02  0.29602500395E+02  0.51100000000E-03 0. -1.
        -11    1    3    3    0    0 -0.23883935399E+01  0.17593416969E+01 -0.25496213410E+01  0.39115567428E+01  0.51100000000E-03 0.  1.
        -12    1    3    3    0    0 -0.55835442985E+01  0.10588964859E+01 -0.11277224161E+02  0.12628262488E+02  0.00000000000E+00 0.  1.
</event>
<event>
 7    1  0.3708346E-009  0.4614232E+02  0.7816164E-02  0.1320468E+00
        -11   -1    0    0    0    0  0.00000000000E+00  0.00000000000E+00  0.45593999997E+02  0.45594000000E+02  0.51100000000E-03 0.  1.
         11   -1    0    0    0    0 -0.00000000000E+00 -0.00000000000E+00 -0.45593999997E+02  0.45594000000E+02  0.51100000000E-03 0. -1.
    9900012    2    1    2    0    0  0.21406202061E+02  0.38564510017E+02  0.91469423658E+01  0.46142317919E+02  0.10000001438E+02 0.  0.
        -12    1    1    2    0    0 -0.21406202061E+02 -0.38564510017E+02 -0.91469423658E+01  0.45045682081E+02  0.00000000000E+00 0.  1.
         11    1    3    3    0    0  0.12534912838E+02  0.16069384064E+02  0.72341632709E+01  0.21625962696E+02  0.51100000000E-03 0. -1.
        -11    1    3    3    0    0  0.17825856753E+01  0.83182936458E+01 -0.29939560608E+00  0.85124179207E+01  0.51100000000E-03 0.  1.
         12    1    3    3    0    0  0.70887035485E+01  0.14176832307E+02  0.22121747010E+01  0.16003937302E+02  0.00000000000E+00 0. -1.
</event>
<event>
 7    1  0.3708346E-009  0.4614232E+02  0.7816164E-02  0.1320468E+00
        -11   -1    0    0    0    0  0.00000000000E+00  0.00000000000E+00  0.45593999997E+02  0.45594000000E+02  0.51100000000E-03 0.  1.
         11   -1    0    0    0    0 -0.00000000000E+00 -0.00000000000E+00 -0.45593999997E+02  0.45594000000E+02  0.51100000000E-03 0. -1.
    9900012    2    1    2    0    0  0.62321078251E+01  0.42305418339E+01 -0.44411448796E+02  0.46142318339E+02  0.10000005269E+02 0.  0.
        -12    1    1    2    0    0 -0.62321078251E+01 -0.42305418339E+01  0.44411448796E+02  0.45045681661E+02  0.00000000000E+00 0.  1.
         11    1    3    3    0    0  0.29485675744E+01 -0.13663805783E+01 -0.13037345445E+02  0.13436272666E+02  0.51100000000E-03 0. -1.
        -11    1    3    3    0    0  0.17191658435E+01  0.68379224870E+01 -0.26860332930E+02  0.27770311494E+02  0.51100000000E-03 0.  1.
        -12    1    3    3    0    0  0.15643744072E+01 -0.12410000748E+01 -0.45137704213E+01  0.49357341792E+01  0.00000000000E+00 0.  1.
</event>
<event>
 7    1  0.3708346E-009  0.4614232E+02  0.7816164E-02  0.1320468E+00
        -11   -1    0    0    0    0  0.00000000000E+00  0.00000000000E+00  0.45593999997E+02  0.45594000000E+02  0.51100000000E-03 0.  1.
         11   -1    0    0    0    0 -0.00000000000E+00 -0.00000000000E+00 -0.45593999997E+02  0.45594000000E+02  0.51100000000E-03 0. -1.
    9900012    2    1    2    0    0  0.24806204877E+02 -0.25358928720E+02 -0.27761308474E+02  0.46142319692E+02  0.10000017610E+02 0.  0.
        -12    1    1    2    0    0 -0.24806204877E+02  0.25358928720E+02  0.27761308474E+02  0.45045680308E+02  0.00000000000E+00 0.  1.
         11    1    3    3    0    0  0.10435162894E+02 -0.63841423569E+01 -0.94397666746E+01  0.15451831392E+02  0.51100000000E-03 0. -1.
        -11    1    3    3    0    0  0.12779223298E+01 -0.39996656787E+01 -0.10054415637E+01  0.43175599615E+01  0.51100000000E-03 0.  1.
        -12    1    3    3    0    0  0.13093119653E+02 -0.14975120685E+02 -0.17316100235E+02  0.26372928338E+02  0.00000000000E+00 0.  1.
</event>
<event>
 7    1  0.3708346E-009  0.4614231E+02  0.7816164E-02  0.1320468E+00
        -11   -1    0    0    0    0  0.00000000000E+00  0.00000000000E+00  0.45593999997E+02  0.45594000000E+02  0.51100000000E-03 0.  1.
         11   -1    0    0    0    0 -0.00000000000E+00 -0.00000000000E+00 -0.45593999997E+02  0.45594000000E+02  0.51100000000E-03 0. -1.
    9900012    2    1    2    0    0 -0.27296797919E+02  0.34142674223E+02 -0.10875495701E+02  0.46142314452E+02  0.99999698288E+01 0.  0.
        -12    1    1    2    0    0  0.27296797919E+02 -0.34142674223E+02  0.10875495701E+02  0.45045685548E+02  0.00000000000E+00 0.  1.
         11    1    3    3    0    0 -0.19125621398E+02  0.24897274783E+02 -0.83280977347E+01  0.32481085228E+02  0.51100000000E-03 0. -1.
        -11    1    3    3    0    0 -0.38578046779E+01  0.33570291094E+01  0.14811767485E+01  0.53241136535E+01  0.51100000000E-03 0.  1.
        -12    1    3    3    0    0 -0.43133718431E+01  0.58883703308E+01 -0.40285747145E+01  0.83371155708E+01  0.00000000000E+00 0.  1.
</event>
<event>
 7    1  0.3708346E-009  0.4614231E+02  0.7816164E-02  0.1320468E+00
        -11   -1    0    0    0    0  0.00000000000E+00  0.00000000000E+00  0.45593999997E+02  0.45594000000E+02  0.51100000000E-03 0.  1.
         11   -1    0    0    0    0 -0.00000000000E+00 -0.00000000000E+00 -0.45593999997E+02  0.45594000000E+02  0.51100000000E-03 0. -1.
    9900012    2    1    2    0    0 -0.42200448908E+02 -0.45010462828E+01  0.15098910567E+02  0.46142307576E+02  0.99999071217E+01 0.  0.
        -12    1    1    2    0    0  0.42200448908E+02  0.45010462828E+01 -0.15098910567E+02  0.45045692424E+02  0.00000000000E+00 0.  1.
         11    1    3    3    0    0 -0.30734665984E+02 -0.38764648547E+01  0.12246119287E+02  0.33310870760E+02  0.51100000000E-03 0. -1.
        -11    1    3    3    0    0 -0.14202637846E+01  0.16800440529E+01  0.62388995317E+00  0.22866867237E+01  0.51100000000E-03 0.  1.
        -12    1    3    3    0    0 -0.10045519139E+02 -0.23046254809E+01  0.22289013264E+01  0.10544750092E+02  0.00000000000E+00 0.  1.
</event>
<event>
 7    1  0.3708346E-009  0.4614232E+02  0.7816164E-02  0.1320468E+00
        -11   -1    0    0    0    0  0.00000000000E+00  0.00000000000E+00  0.45593999997E+02  0.45594000000E+02  0.51100000000E-03 0.  1.
         11   -1    0    0    0    0 -0.00000000000E+00 -0.00000000000E+00 -0.45593999997E+02  0.45594000000E+02  0.51100000000E-03 0. -1.
    9900012    2    1    2    0    0  0.29276548693E+02  0.31042910766E+02 -0.14433813153E+02  0.46142316807E+02  0.99999912992E+01 0.  0.
        -12    1    1    2    0    0 -0.29276548693E+02 -0.31042910766E+02  0.14433813153E+02  0.45045683193E+02  0.00000000000E+00 0.  1.
         11    1    3    3    0    0  0.86301890994E+01  0.74499545383E+01 -0.59777763869E+01  0.12873064799E+02  0.51100000000E-03 0. -1.
        -11    1    3    3    0    0  0.37186514117E+01  0.74235112849E+01 -0.47582605038E+01  0.95696359075E+01  0.51100000000E-03 0.  1.
        -12    1    3    3    0    0  0.16927708182E+02  0.16169444943E+02 -0.36977762623E+01  0.23699616101E+02  0.00000000000E+00 0.  1.
</event>
<event>
 7    1  0.3708346E-009  0.4614232E+02  0.7816164E-02  0.1320468E+00
        -11   -1    0    0    0    0  0.00000000000E+00  0.00000000000E+00  0.45593999997E+02  0.45594000000E+02  0.51100000000E-03 0. -1.
         11   -1    0    0    0    0 -0.00000000000E+00 -0.00000000000E+00 -0.45593999997E+02  0.45594000000E+02  0.51100000000E-03 0.  1.
    9900012    2    1    2    0    0  0.19103546469E+02 -0.16481559869E+02  0.37316567297E+02  0.46142317651E+02  0.99999989985E+01 0.  0.
        -12    1    1    2    0    0 -0.19103546469E+02  0.16481559869E+02 -0.37316567297E+02  0.45045682349E+02  0.00000000000E+00 0.  1.
         11    1    3    3    0    0  0.15675821161E+02 -0.11179137778E+02  0.24532474180E+02  0.31185682294E+02  0.51100000000E-03 0. -1.
        -11    1    3    3    0    0 -0.97197451287E+00 -0.66983958767E+00  0.97898884472E+00  0.15335706525E+01  0.51100000000E-03 0.  1.
        -12    1    3    3    0    0  0.43996998207E+01 -0.46325825036E+01  0.11805104273E+02  0.13423064705E+02  0.00000000000E+00 0.  1.
</event>
<event>
 7    1  0.3708346E-009  0.4614232E+02  0.7816164E-02  0.1320468E+00
        -11   -1    0    0    0    0  0.00000000000E+00  0.00000000000E+00  0.45593999997E+02  0.45594000000E+02  0.51100000000E-03 0.  1.
         11   -1    0    0    0    0 -0.00000000000E+00 -0.00000000000E+00 -0.45593999997E+02  0.45594000000E+02  0.51100000000E-03 0. -1.
    9900012    2    1    2    0    0  0.15908519465E+02 -0.27110465303E+02 -0.32265383040E+02  0.46142320260E+02  0.10000022784E+02 0.  0.
        -12    1    1    2    0    0 -0.15908519465E+02  0.27110465303E+02  0.32265383040E+02  0.45045679740E+02  0.00000000000E+00 0.  1.
         11    1    3    3    0    0  0.12300406793E+02 -0.13375488424E+02 -0.19337437881E+02  0.26535640221E+02  0.51100000000E-03 0. -1.
        -11    1    3    3    0    0  0.26298900490E+01 -0.37375700390E+01 -0.28982602355E+01  0.54116230578E+01  0.51100000000E-03 0.  1.
         12    1    3    3    0    0  0.97822262255E+00 -0.99974068401E+01 -0.10029684924E+02  0.14195056981E+02  0.00000000000E+00 0. -1.
</event>
<event>
 7    1  0.3708346E-009  0.4614232E+02  0.7816164E-02  0.1320468E+00
        -11   -1    0    0    0    0  0.00000000000E+00  0.00000000000E+00  0.45593999997E+02  0.45594000000E+02  0.51100000000E-03 0. -1.
         11   -1    0    0    0    0 -0.00000000000E+00 -0.00000000000E+00 -0.45593999997E+02  0.45594000000E+02  0.51100000000E-03 0.  1.
    9900012    2    1    2    0    0 -0.24029222776E+02  0.27765927734E+02  0.26091440811E+02  0.46142316814E+02  0.99999913596E+01 0.  0.
        -12    1    1    2    0    0  0.24029222776E+02 -0.27765927734E+02 -0.26091440811E+02  0.45045683186E+02  0.00000000000E+00 0.  1.
         11    1    3    3    0    0 -0.12173112196E+02  0.12550568662E+02  0.98008085585E+01  0.20043883929E+02  0.51100000000E-03 0. -1.
        -11    1    3    3    0    0  0.24530797724E+00  0.31745044690E+01  0.37303098102E+01  0.49043721483E+01  0.51100000000E-03 0.  1.
        -12    1    3    3    0    0 -0.12101418557E+02  0.12040854603E+02  0.12560322442E+02  0.21194060737E+02  0.00000000000E+00 0.  1.
</event>
<event>
 7    1  0.3708346E-009  0.4614232E+02  0.7816164E-02  0.1320468E+00
        -11   -1    0    0    0    0  0.00000000000E+00  0.00000000000E+00  0.45593999997E+02  0.45594000000E+02  0.51100000000E-03 0.  1.
         11   -1    0    0    0    0 -0.00000000000E+00 -0.00000000000E+00 -0.45593999997E+02  0.45594000000E+02  0.51100000000E-03 0. -1.
    9900012    2    1    2    0    0 -0.32076404888E+02  0.25481336611E+02 -0.18732836762E+02  0.46142318307E+02  0.10000004977E+02 0.  0.
        -12    1    1    2    0    0  0.32076404888E+02 -0.25481336611E+02  0.18732836762E+02  0.45045681693E+02  0.00000000000E+00 0.  1.
         11    1    3    3    0    0 -0.21234694501E+02  0.16121576499E+02 -0.10900790750E+02  0.28803553923E+02  0.51100000000E-03 0. -1.
        -11    1    3    3    0    0 -0.10400717746E+02  0.74125777737E+01 -0.46694565819E+01  0.13598715524E+02  0.51100000000E-03 0.  1.
        -12    1    3    3    0    0 -0.44099264161E+00  0.19471823387E+01 -0.31625894302E+01  0.37400488599E+01  0.00000000000E+00 0.  1.
</event>
<event>
 7    1  0.3708346E-009  0.4614232E+02  0.7816164E-02  0.1320468E+00
        -11   -1    0    0    0    0  0.00000000000E+00  0.00000000000E+00  0.45593999997E+02  0.45594000000E+02  0.51100000000E-03 0.  1.
         11   -1    0    0    0    0 -0.00000000000E+00 -0.00000000000E+00 -0.45593999997E+02  0.45594000000E+02  0.51100000000E-03 0. -1.
    9900012    2    1    2    0    0 -0.33894847343E+02 -0.27436249067E+02 -0.11291813853E+02  0.46142317639E+02  0.99999988892E+01 0.  0.
        -12    1    1    2    0    0  0.33894847343E+02  0.27436249067E+02  0.11291813853E+02  0.45045682361E+02  0.00000000000E+00 0.  1.
         11    1    3    3    0    0 -0.16325111716E+02 -0.10937194090E+02 -0.88870052447E+01  0.21566417171E+02  0.51100000000E-03 0. -1.
        -11    1    3    3    0    0 -0.40183079305E+01 -0.19569416969E+01  0.45971269446E+00  0.44930786163E+01  0.51100000000E-03 0.  1.
         12    1    3    3    0    0 -0.13551427696E+02 -0.14542113280E+02 -0.28645213030E+01  0.20082821852E+02  0.00000000000E+00 0. -1.
</event>
<event>
 7    1  0.3708346E-009  0.4614232E+02  0.7816164E-02  0.1320468E+00
        -11   -1    0    0    0    0  0.00000000000E+00  0.00000000000E+00  0.45593999997E+02  0.45594000000E+02  0.51100000000E-03 0. -1.
         11   -1    0    0    0    0 -0.00000000000E+00 -0.00000000000E+00 -0.45593999997E+02  0.45594000000E+02  0.51100000000E-03 0.  1.
    9900012    2    1    2    0    0 -0.14622409407E+02  0.17575241044E+02  0.38812486639E+02  0.46142322363E+02  0.10000041968E+02 0.  0.
        -12    1    1    2    0    0  0.14622409407E+02 -0.17575241044E+02 -0.38812486639E+02  0.45045677637E+02  0.00000000000E+00 0.  1.
         11    1    3    3    0    0 -0.11660491406E+02  0.14299278853E+02  0.31070326941E+02  0.36135877629E+02  0.51100000000E-03 0. -1.
        -11    1    3    3    0    0 -0.77846037862E+00 -0.11023889023E+01  0.24647123485E+01  0.28099944974E+01  0.51100000000E-03 0.  1.
         12    1    3    3    0    0 -0.21834576219E+01  0.43783510934E+01  0.52774473498E+01  0.71964502370E+01  0.00000000000E+00 0. -1.
</event>
<event>
 7    1  0.3708346E-009  0.4614232E+02  0.7816164E-02  0.1320468E+00
        -11   -1    0    0    0    0  0.00000000000E+00  0.00000000000E+00  0.45593999997E+02  0.45594000000E+02  0.51100000000E-03 0.  1.
         11   -1    0    0    0    0 -0.00000000000E+00 -0.00000000000E+00 -0.45593999997E+02  0.45594000000E+02  0.51100000000E-03 0. -1.
    9900012    2    1    2    0    0 -0.86170066028E+01 -0.13721999659E+02 -0.42030550352E+02  0.46142320515E+02  0.10000025108E+02 0.  0.
        -12    1    1    2    0    0  0.86170066028E+01  0.13721999659E+02  0.42030550352E+02  0.45045679485E+02  0.00000000000E+00 0.  1.
         11    1    3    3    0    0 -0.13972637209E+01 -0.39670648554E+01 -0.37786567474E+01  0.56540424962E+01  0.51100000000E-03 0.  1.
        -11    1    3    3    0    0 -0.60788815184E+01 -0.10311487219E+02 -0.35326752330E+02  0.37299584443E+02  0.51100000000E-03 0. -1.
        -12    1    3    3    0    0 -0.11408613635E+01  0.55655241547E+00 -0.29251412744E+01  0.31886935753E+01  0.00000000000E+00 0.  1.
</event>
<event>
 7    1  0.3708346E-009  0.4614232E+02  0.7816164E-02  0.1320468E+00
        -11   -1    0    0    0    0  0.00000000000E+00  0.00000000000E+00  0.45593999997E+02  0.45594000000E+02  0.51100000000E-03 0.  1.
         11   -1    0    0    0    0 -0.00000000000E+00 -0.00000000000E+00 -0.45593999997E+02  0.45594000000E+02  0.51100000000E-03 0. -1.
    9900012    2    1    2    0    0 -0.13124819097E+02 -0.37474870687E+02 -0.21271734733E+02  0.46142317544E+02  0.99999980181E+01 0.  0.
        -12    1    1    2    0    0  0.13124819097E+02  0.37474870687E+02  0.21271734733E+02  0.45045682456E+02  0.00000000000E+00 0.  1.
         11    1    3    3    0    0  0.46698423903E+00 -0.44352841804E+00 -0.80045600893E+00  0.10273859160E+01  0.51100000000E-03 0. -1.
        -11    1    3    3    0    0 -0.96066356272E+01 -0.15176767477E+02 -0.83405781438E+01  0.19803710843E+02  0.51100000000E-03 0.  1.
        -12    1    3    3    0    0 -0.39851677091E+01 -0.21854574793E+02 -0.12130700581E+02  0.25311220785E+02  0.00000000000E+00 0.  1.
</event>
<event>
 7    1  0.3708346E-009  0.4614232E+02  0.7816164E-02  0.1320468E+00
        -11   -1    0    0    0    0  0.00000000000E+00  0.00000000000E+00  0.45593999997E+02  0.45594000000E+02  0.51100000000E-03 0.  1.
         11   -1    0    0    0    0 -0.00000000000E+00 -0.00000000000E+00 -0.45593999997E+02  0.45594000000E+02  0.51100000000E-03 0. -1.
    9900012    2    1    2    0    0 -0.34596732419E+02 -0.28435159941E+02  0.48601785187E+01  0.46142317075E+02  0.99999937468E+01 0.  0.
        -12    1    1    2    0    0  0.34596732419E+02  0.28435159941E+02 -0.48601785187E+01  0.45045682925E+02  0.00000000000E+00 0.  1.
         11    1    3    3    0    0 -0.13247738731E+02 -0.66221035905E+01  0.50517213368E+00  0.14819245480E+02  0.51100000000E-03 0. -1.
        -11    1    3    3    0    0 -0.19202162156E+02 -0.21527314453E+02  0.38917347898E+01  0.29108313228E+02  0.51100000000E-03 0.  1.
        -12    1    3    3    0    0 -0.21468315313E+01 -0.28574189756E+00  0.46327159523E+00  0.22147583675E+01  0.00000000000E+00 0.  1.
</event>
<event>
 7    1  0.3708346E-009  0.4614232E+02  0.7816164E-02  0.1320468E+00
        -11   -1    0    0    0    0  0.00000000000E+00  0.00000000000E+00  0.45593999997E+02  0.45594000000E+02  0.51100000000E-03 0. -1.
         11   -1    0    0    0    0 -0.00000000000E+00 -0.00000000000E+00 -0.45593999997E+02  0.45594000000E+02  0.51100000000E-03 0.  1.
    9900012    2    1    2    0    0  0.19106882722E+02  0.18272723176E+02  0.36471195093E+02  0.46142318174E+02  0.10000003766E+02 0.  0.
        -12    1    1    2    0    0 -0.19106882722E+02 -0.18272723176E+02 -0.36471195093E+02  0.45045681826E+02  0.00000000000E+00 0.  1.
         11    1    3    3    0    0  0.62002539263E+01  0.62404669614E+01  0.14754946218E+02  0.17178329802E+02  0.51100000000E-03 0. -1.
        -11    1    3    3    0    0  0.13234923151E+02  0.10544252478E+02  0.16912711546E+02  0.23924553564E+02  0.51100000000E-03 0.  1.
         12    1    3    3    0    0 -0.32829435568E+00  0.14880037369E+01  0.48035373292E+01  0.50394348074E+01  0.00000000000E+00 0. -1.
</event>
<event>
 7    1  0.3708346E-009  0.4614232E+02  0.7816164E-02  0.1320468E+00
        -11   -1    0    0    0    0  0.00000000000E+00  0.00000000000E+00  0.45593999997E+02  0.45594000000E+02  0.51100000000E-03 0.  1.
         11   -1    0    0    0    0 -0.00000000000E+00 -0.00000000000E+00 -0.45593999997E+02  0.45594000000E+02  0.51100000000E-03 0. -1.
    9900012    2    1    2    0    0  0.31603818723E+01 -0.13114742903E+02 -0.42978239131E+02  0.46142317257E+02  0.99999953986E+01 0.  0.
        -12    1    1    2    0    0 -0.31603818723E+01  0.13114742903E+02  0.42978239131E+02  0.45045682743E+02  0.00000000000E+00 0.  1.
         11    1    3    3    0    0  0.18546645244E+01 -0.68950722554E+01 -0.16455378972E+02  0.17937706076E+02  0.51100000000E-03 0. -1.
        -11    1    3    3    0    0 -0.28929859570E+01 -0.20778177326E+01 -0.77993740617E+01  0.85742014376E+01  0.51100000000E-03 0.  1.
        -12    1    3    3    0    0  0.41987033049E+01 -0.41418529153E+01 -0.18723486098E+02  0.19630409743E+02  0.00000000000E+00 0.  1.
</event>
<event>
 7    1  0.3708346E-009  0.4614232E+02  0.7816164E-02  0.1320468E+00
        -11   -1    0    0    0    0  0.00000000000E+00  0.00000000000E+00  0.45593999997E+02  0.45594000000E+02  0.51100000000E-03 0. -1.
         11   -1    0    0    0    0 -0.00000000000E+00 -0.00000000000E+00 -0.45593999997E+02  0.45594000000E+02  0.51100000000E-03 0.  1.
    9900012    2    1    2    0    0 -0.20605987923E+01 -0.32152142569E+02  0.31481855269E+02  0.46142317073E+02  0.99999937274E+01 0.  0.
        -12    1    1    2    0    0  0.20605987923E+01  0.32152142569E+02 -0.31481855269E+02  0.45045682927E+02  0.00000000000E+00 0.  1.
         11    1    3    3    0    0 -0.26525634004E+01 -0.89876125516E+01  0.13410035149E+02  0.16359777349E+02  0.51100000000E-03 0. -1.
        -11    1    3    3    0    0 -0.79726739492E+00 -0.16729956873E+01  0.33666816442E+00  0.18835858310E+01  0.51100000000E-03 0.  1.
         12    1    3    3    0    0  0.13892320030E+01 -0.21491534330E+02  0.17735151956E+02  0.27898953893E+02  0.00000000000E+00 0. -1.
</event>
<event>
 7    1  0.3708346E-009  0.4614232E+02  0.7816164E-02  0.1320468E+00
        -11   -1    0    0    0    0  0.00000000000E+00  0.00000000000E+00  0.45593999997E+02  0.45594000000E+02  0.51100000000E-03 0. -1.
         11   -1    0    0    0    0 -0.00000000000E+00 -0.00000000000E+00 -0.45593999997E+02  0.45594000000E+02  0.51100000000E-03 0.  1.
    9900012    2    1    2    0    0  0.42755732607E+02 -0.46298565729E+00  0.14172031240E+02  0.46142317677E+02  0.99999992370E+01 0.  0.
        -12    1    1    2    0    0 -0.42755732607E+02  0.46298565729E+00 -0.14172031240E+02  0.45045682323E+02  0.00000000000E+00 0.  1.
         11    1    3    3    0    0  0.17701442468E+02 -0.37506796747E+01  0.71518078084E+01  0.19456541796E+02  0.51100000000E-03 0. -1.
        -11    1    3    3    0    0  0.13234998506E+02  0.40850610706E+01  0.29662997971E+01  0.14165163047E+02  0.51100000000E-03 0.  1.
        -12    1    3    3    0    0  0.11819291633E+02 -0.79736705319E+00  0.40539236342E+01  0.12520612835E+02  0.00000000000E+00 0.  1.
</event>
<event>
 7    1  0.3708346E-009  0.4614232E+02  0.7816164E-02  0.1320468E+00
        -11   -1    0    0    0    0  0.00000000000E+00  0.00000000000E+00  0.45593999997E+02  0.45594000000E+02  0.51100000000E-03 0.  1.
         11   -1    0    0    0    0 -0.00000000000E+00 -0.00000000000E+00 -0.45593999997E+02  0.45594000000E+02  0.51100000000E-03 0. -1.
    9900012    2    1    2    0    0 -0.30583271712E+02 -0.65827774256E+01 -0.32410556326E+02  0.46142316205E+02  0.99999858088E+01 0.  0.
        -12    1    1    2    0    0  0.30583271712E+02  0.65827774256E+01  0.32410556326E+02  0.45045683795E+02  0.00000000000E+00 0.  1.
         11    1    3    3    0    0 -0.51088648416E+01 -0.17088569943E+01 -0.78258786315E+01  0.95007930623E+01  0.51100000000E-03 0. -1.
        -11    1    3    3    0    0 -0.13263207065E+02 -0.17110925107E+01 -0.72768256068E+01  0.15224739420E+02  0.51100000000E-03 0.  1.
        -12    1    3    3    0    0 -0.12211199804E+02 -0.31628279206E+01 -0.17307852088E+02  0.21416783722E+02  0.00000000000E+00 0.  1.
</event>
<event>
 7    1  0.3708346E-009  0.4614232E+02  0.7816164E-02  0.1320468E+00
        -11   -1    0    0    0    0  0.00000000000E+00  0.00000000000E+00  0.45593999997E+02  0.45594000000E+02  0.51100000000E-03 0.  1.
         11   -1    0    0    0    0 -0.00000000000E+00 -0.00000000000E+00 -0.45593999997E+02  0.45594000000E+02  0.51100000000E-03 0. -1.
    9900012    2    1    2    0    0  0.25210246372E+02 -0.33266051013E+02 -0.16938912609E+02  0.46142318382E+02  0.10000005659E+02 0.  0.
        -12    1    1    2    0    0 -0.25210246372E+02  0.33266051013E+02  0.16938912609E+02  0.45045681618E+02  0.00000000000E+00 0.  1.
         11    1    3    3    0    0  0.21858952145E+01 -0.36731362707E+01 -0.36288443202E+01  0.56070116206E+01  0.51100000000E-03 0.  1.
        -11    1    3    3    0    0  0.45354115272E+01 -0.31006038423E+01 -0.43559889132E+01  0.70113009907E+01  0.51100000000E-03 0. -1.
        -12    1    3    3    0    0  0.18488939630E+02 -0.26492310900E+02 -0.89540793755E+01  0.33524005770E+02  0.00000000000E+00 0.  1.
</event>
<event>
 7    1  0.3708346E-009  0.4614232E+02  0.7816164E-02  0.1320468E+00
        -11   -1    0    0    0    0  0.00000000000E+00  0.00000000000E+00  0.45593999997E+02  0.45594000000E+02  0.51100000000E-03 0.  1.
         11   -1    0    0    0    0 -0.00000000000E+00 -0.00000000000E+00 -0.45593999997E+02  0.45594000000E+02  0.51100000000E-03 0. -1.
    9900012    2    1    2    0    0  0.23252212176E+02 -0.28936796471E+02 -0.25516855276E+02  0.46142318029E+02  0.10000002442E+02 0.  0.
        -12    1    1    2    0    0 -0.23252212176E+02  0.28936796471E+02  0.25516855276E+02  0.45045681971E+02  0.00000000000E+00 0.  1.
         11    1    3    3    0    0  0.24762192684E+01 -0.34815927113E+01 -0.31036066740E+01  0.52806746085E+01  0.51100000000E-03 0. -1.
        -11    1    3    3    0    0  0.11268253742E+02 -0.20434865302E+02 -0.14037619473E+02  0.27232554472E+02  0.51100000000E-03 0.  1.
        -12    1    3    3    0    0  0.95077391654E+01 -0.50203384568E+01 -0.83756291294E+01  0.13629088949E+02  0.00000000000E+00 0.  1.
</event>
<event>
 7    1  0.3708346E-009  0.4614232E+02  0.7816164E-02  0.1320468E+00
        -11   -1    0    0    0    0  0.00000000000E+00  0.00000000000E+00  0.45593999997E+02  0.45594000000E+02  0.51100000000E-03 0. -1.
         11   -1    0    0    0    0 -0.00000000000E+00 -0.00000000000E+00 -0.45593999997E+02  0.45594000000E+02  0.51100000000E-03 0.  1.
    9900012    2    1    2    0    0  0.38078481813E+02 -0.17160886860E+02  0.16871473469E+02  0.46142318387E+02  0.10000005709E+02 0.  0.
        -12    1    1    2    0    0 -0.38078481813E+02  0.17160886860E+02 -0.16871473469E+02  0.45045681613E+02  0.00000000000E+00 0.  1.
         11    1    3    3    0    0  0.47321418471E+01 -0.49933278529E+01  0.31644790234E+01  0.75723455586E+01  0.51100000000E-03 0. -1.
        -11    1    3    3    0    0  0.20076154502E+02 -0.69452522301E+01  0.48749443638E+01  0.21795724144E+02  0.51100000000E-03 0.  1.
        -12    1    3    3    0    0  0.13270185463E+02 -0.52223067765E+01  0.88320500817E+01  0.16774248685E+02  0.00000000000E+00 0.  1.
</event>
<event>
 7    1  0.3708346E-009  0.4614232E+02  0.7816164E-02  0.1320468E+00
        -11   -1    0    0    0    0  0.00000000000E+00  0.00000000000E+00  0.45593999997E+02  0.45594000000E+02  0.51100000000E-03 0.  1.
         11   -1    0    0    0    0 -0.00000000000E+00 -0.00000000000E+00 -0.45593999997E+02  0.45594000000E+02  0.51100000000E-03 0. -1.
    9900012    2    1    2    0    0 -0.30983839796E+02 -0.19874264760E+02 -0.25963987931E+02  0.46142318769E+02  0.10000009190E+02 0.  0.
        -12    1    1    2    0    0  0.30983839796E+02  0.19874264760E+02  0.25963987931E+02  0.45045681231E+02  0.00000000000E+00 0.  1.
         11    1    3    3    0    0 -0.45292129473E+01 -0.54198906482E+01 -0.86538152510E+01  0.11170385097E+02  0.51100000000E-03 0. -1.
        -11    1    3    3    0    0 -0.53830788503E+01 -0.29305453226E+01 -0.18222226615E+01  0.63942262617E+01  0.51100000000E-03 0.  1.
         12    1    3    3    0    0 -0.21071547999E+02 -0.11523828789E+02 -0.15487950019E+02  0.28577707410E+02  0.00000000000E+00 0. -1.
</event>
<event>
 7    1  0.3708346E-009  0.4614232E+02  0.7816164E-02  0.1320468E+00
        -11   -1    0    0    0    0  0.00000000000E+00  0.00000000000E+00  0.45593999997E+02  0.45594000000E+02  0.51100000000E-03 0. -1.
         11   -1    0    0    0    0 -0.00000000000E+00 -0.00000000000E+00 -0.45593999997E+02  0.45594000000E+02  0.51100000000E-03 0.  1.
    9900012    2    1    2    0    0  0.22173616283E+02  0.22744042016E+02  0.31939828506E+02  0.46142319282E+02  0.10000013871E+02 0.  0.
        -12    1    1    2    0    0 -0.22173616283E+02 -0.22744042016E+02 -0.31939828506E+02  0.45045680718E+02  0.00000000000E+00 0.  1.
         11    1    3    3    0    0  0.16835193150E+02  0.17710762265E+02  0.22553465565E+02  0.33252874126E+02  0.51100000000E-03 0. -1.
        -11    1    3    3    0    0  0.42291099569E+01  0.73237915542E+00  0.36479046908E+01  0.56328464518E+01  0.51100000000E-03 0.  1.
        -12    1    3    3    0    0  0.11093131759E+01  0.43009005962E+01  0.57384582509E+01  0.72565987044E+01  0.00000000000E+00 0.  1.
</event>
<event>
 7    1  0.3708346E-009  0.4614232E+02  0.7816164E-02  0.1320468E+00
        -11   -1    0    0    0    0  0.00000000000E+00  0.00000000000E+00  0.45593999997E+02  0.45594000000E+02  0.51100000000E-03 0. -1.
         11   -1    0    0    0    0 -0.00000000000E+00 -0.00000000000E+00 -0.45593999997E+02  0.45594000000E+02  0.51100000000E-03 0.  1.
    9900012    2    1    2    0    0  0.27333082428E+01  0.42961525186E+02 -0.13264611555E+02  0.46142317189E+02  0.99999947806E+01 0.  0.
        -12    1    1    2    0    0 -0.27333082428E+01 -0.42961525186E+02  0.13264611555E+02  0.45045682811E+02  0.00000000000E+00 0.  1.
         11    1    3    3    0    0  0.29827216783E+01  0.94867975489E+01 -0.24467494182E+01  0.10241217668E+02  0.51100000000E-03 0. -1.
        -11    1    3    3    0    0  0.94195910415E+00  0.18045668720E+01  0.74124581076E+00  0.21663781209E+01  0.51100000000E-03 0.  1.
        -12    1    3    3    0    0 -0.11913725397E+01  0.31670160765E+02 -0.11559107947E+02  0.33734721400E+02  0.00000000000E+00 0.  1.
</event>
<event>
 7    1  0.3708346E-009  0.4614232E+02  0.7816164E-02  0.1320468E+00
        -11   -1    0    0    0    0  0.00000000000E+00  0.00000000000E+00  0.45593999997E+02  0.45594000000E+02  0.51100000000E-03 0. -1.
         11   -1    0    0    0    0 -0.00000000000E+00 -0.00000000000E+00 -0.45593999997E+02  0.45594000000E+02  0.51100000000E-03 0.  1.
    9900012    2    1    2    0    0  0.38819190616E+00 -0.41907109326E+02  0.16515356575E+02  0.46142317545E+02  0.99999980281E+01 0.  0.
        -12    1    1    2    0    0 -0.38819190616E+00  0.41907109326E+02 -0.16515356575E+02  0.45045682455E+02  0.00000000000E+00 0.  1.
         11    1    3    3    0    0  0.20287115794E+00 -0.40508506801E+02  0.14101969214E+02  0.42893423924E+02  0.51100000000E-03 0. -1.
        -11    1    3    3    0    0  0.84238580684E+00 -0.11135685390E+01  0.19404716561E+01  0.23906231923E+01  0.51100000000E-03 0.  1.
         12    1    3    3    0    0 -0.65706505862E+00 -0.28503398652E+00  0.47291570465E+00  0.85827042850E+00  0.00000000000E+00 0. -1.
</event>
<event>
 7    1  0.3708346E-009  0.4614232E+02  0.7816164E-02  0.1320468E+00
        -11   -1    0    0    0    0  0.00000000000E+00  0.00000000000E+00  0.45593999997E+02  0.45594000000E+02  0.51100000000E-03 0. -1.
         11   -1    0    0    0    0 -0.00000000000E+00 -0.00000000000E+00 -0.45593999997E+02  0.45594000000E+02  0.51100000000E-03 0.  1.
    9900012    2    1    2    0    0  0.10503086038E+02  0.17320584462E+02  0.40234264048E+02  0.46142318010E+02  0.10000002272E+02 0.  0.
        -12    1    1    2    0    0 -0.10503086038E+02 -0.17320584462E+02 -0.40234264048E+02  0.45045681990E+02  0.00000000000E+00 0.  1.
         11    1    3    3    0    0  0.15702047058E+01  0.85274122504E+01  0.11728343890E+02  0.14585484331E+02  0.51100000000E-03 0. -1.
        -11    1    3    3    0    0  0.16649421172E+01  0.31274064359E+01  0.38357035305E+01  0.52216209269E+01  0.51100000000E-03 0.  1.
         12    1    3    3    0    0  0.72679392155E+01  0.56657657755E+01  0.24670216628E+02  0.26335212753E+02  0.00000000000E+00 0. -1.
</event>
<event>
 7    1  0.3708346E-009  0.4614231E+02  0.7816164E-02  0.1320468E+00
        -11   -1    0    0    0    0  0.00000000000E+00  0.00000000000E+00  0.45593999997E+02  0.45594000000E+02  0.51100000000E-03 0. -1.
         11   -1    0    0    0    0 -0.00000000000E+00 -0.00000000000E+00 -0.45593999997E+02  0.45594000000E+02  0.51100000000E-03 0.  1.
    9900012    2    1    2    0    0 -0.18870974334E+02 -0.50165488356E+01  0.40593532088E+02  0.46142308953E+02  0.99999196784E+01 0.  0.
        -12    1    1    2    0    0  0.18870974334E+02  0.50165488356E+01 -0.40593532088E+02  0.45045691047E+02  0.00000000000E+00 0.  1.
         11    1    3    3    0    0 -0.14353458168E+02 -0.23304943205E+01  0.30033137971E+02  0.33368283471E+02  0.51100000000E-03 0. -1.
        -11    1    3    3    0    0 -0.18345594942E+01 -0.35306173027E+01  0.40278480515E+01  0.56616629414E+01  0.51100000000E-03 0.  1.
        -12    1    3    3    0    0 -0.26829566713E+01  0.84456278760E+00  0.65325460656E+01  0.71123625401E+01  0.00000000000E+00 0.  1.
</event>
<event>
 7    1  0.3708346E-009  0.4614232E+02  0.7816164E-02  0.1320468E+00
        -11   -1    0    0    0    0  0.00000000000E+00  0.00000000000E+00  0.45593999997E+02  0.45594000000E+02  0.51100000000E-03 0. -1.
         11   -1    0    0    0    0 -0.00000000000E+00 -0.00000000000E+00 -0.45593999997E+02  0.45594000000E+02  0.51100000000E-03 0.  1.
    9900012    2    1    2    0    0 -0.37343684948E+02  0.24741086135E+02  0.47372243484E+01  0.46142318262E+02  0.10000004571E+02 0.  0.
        -12    1    1    2    0    0  0.37343684948E+02 -0.24741086135E+02 -0.47372243484E+01  0.45045681738E+02  0.00000000000E+00 0.  1.
         11    1    3    3    0    0 -0.94360601642E+01  0.73897742546E+01 -0.18423175300E+01  0.12126092903E+02  0.51100000000E-03 0. -1.
        -11    1    3    3    0    0 -0.25270002399E+01  0.57381242263E+00  0.19461746960E+01  0.32407695255E+01  0.51100000000E-03 0.  1.
         12    1    3    3    0    0 -0.25380624544E+02  0.16777499458E+02  0.46333671824E+01  0.30775455834E+02  0.00000000000E+00 0. -1.
</event>
<event>
 7    1  0.3708346E-009  0.4614232E+02  0.7816164E-02  0.1320468E+00
        -11   -1    0    0    0    0  0.00000000000E+00  0.00000000000E+00  0.45593999997E+02  0.45594000000E+02  0.51100000000E-03 0. -1.
         11   -1    0    0    0    0 -0.00000000000E+00 -0.00000000000E+00 -0.45593999997E+02  0.45594000000E+02  0.51100000000E-03 0.  1.
    9900012    2    1    2    0    0  0.14849963766E+02  0.77352591516E+01  0.41818151386E+02  0.46142318261E+02  0.10000004560E+02 0.  0.
        -12    1    1    2    0    0 -0.14849963766E+02 -0.77352591516E+01 -0.41818151386E+02  0.45045681739E+02  0.00000000000E+00 0.  1.
         11    1    3    3    0    0  0.84406835469E+01  0.22041533863E+01  0.26258928368E+02  0.27670105713E+02  0.51100000000E-03 0. -1.
        -11    1    3    3    0    0 -0.78110845601E+00  0.14529870556E+01  0.20082901002E+01  0.25989480933E+01  0.51100000000E-03 0.  1.
         12    1    3    3    0    0  0.71903886747E+01  0.40781187097E+01  0.13550932918E+02  0.15873264455E+02  0.00000000000E+00 0. -1.
</event>
<event>
 7    1  0.3708346E-009  0.4614232E+02  0.7816164E-02  0.1320468E+00
        -11   -1    0    0    0    0  0.00000000000E+00  0.00000000000E+00  0.45593999997E+02  0.45594000000E+02  0.51100000000E-03 0.  1.
         11   -1    0    0    0    0 -0.00000000000E+00 -0.00000000000E+00 -0.45593999997E+02  0.45594000000E+02  0.51100000000E-03 0. -1.
    9900012    2    1    2    0    0  0.36567422045E+01 -0.16017668882E+01 -0.44868430818E+02  0.46142317579E+02  0.99999983351E+01 0.  0.
        -12    1    1    2    0    0 -0.36567422045E+01  0.16017668882E+01  0.44868430818E+02  0.45045682421E+02  0.00000000000E+00 0.  1.
         11    1    3    3    0    0  0.18512738432E+01 -0.27218654750E+01 -0.14551538918E+02  0.14919217528E+02  0.51100000000E-03 0. -1.
        -11    1    3    3    0    0  0.23446634198E+01 -0.22342756257E+01 -0.77142183024E+01  0.83665165034E+01  0.51100000000E-03 0.  1.
        -12    1    3    3    0    0 -0.53919505852E+00  0.33543742124E+01 -0.22602673598E+02  0.22856583547E+02  0.00000000000E+00 0.  1.
</event>
<event>
 7    1  0.3708346E-009  0.4614232E+02  0.7816164E-02  0.1320468E+00
        -11   -1    0    0    0    0  0.00000000000E+00  0.00000000000E+00  0.45593999997E+02  0.45594000000E+02  0.51100000000E-03 0.  1.
         11   -1    0    0    0    0 -0.00000000000E+00 -0.00000000000E+00 -0.45593999997E+02  0.45594000000E+02  0.51100000000E-03 0. -1.
    9900012    2    1    2    0    0 -0.28457452329E+02 -0.19023247934E+02 -0.29281442074E+02  0.46142318687E+02  0.10000008439E+02 0.  0.
        -12    1    1    2    0    0  0.28457452329E+02  0.19023247934E+02  0.29281442074E+02  0.45045681313E+02  0.00000000000E+00 0.  1.
         11    1    3    3    0    0 -0.25639430218E+01 -0.13615379279E+01 -0.46349939159E+01  0.54690728840E+01  0.51100000000E-03 0. -1.
        -11    1    3    3    0    0 -0.22151715475E+02 -0.13489530679E+02 -0.16343015336E+02  0.30655506633E+02  0.51100000000E-03 0.  1.
        -12    1    3    3    0    0 -0.37417938328E+01 -0.41721793274E+01 -0.83034328228E+01  0.10017739170E+02  0.00000000000E+00 0.  1.
</event>
<event>
 7    1  0.3708346E-009  0.4614232E+02  0.7816164E-02  0.1320468E+00
        -11   -1    0    0    0    0  0.00000000000E+00  0.00000000000E+00  0.45593999997E+02  0.45594000000E+02  0.51100000000E-03 0.  1.
         11   -1    0    0    0    0 -0.00000000000E+00 -0.00000000000E+00 -0.45593999997E+02  0.45594000000E+02  0.51100000000E-03 0. -1.
    9900012    2    1    2    0    0 -0.14167573370E+02  0.14176214563E+02 -0.40341397535E+02  0.46142317081E+02  0.99999937963E+01 0.  0.
        -12    1    1    2    0    0  0.14167573370E+02 -0.14176214563E+02  0.40341397535E+02  0.45045682919E+02  0.00000000000E+00 0.  1.
         11    1    3    3    0    0 -0.15030013265E+00  0.36749720717E+01 -0.71587131341E+01  0.80483031662E+01  0.51100000000E-03 0. -1.
        -11    1    3    3    0    0 -0.14450267736E+02  0.10776838763E+02 -0.31077551030E+02  0.35927213497E+02  0.51100000000E-03 0.  1.
        -12    1    3    3    0    0  0.43299449784E+00 -0.27559627139E+00 -0.21051333715E+01  0.21668004181E+01  0.00000000000E+00 0.  1.
</event>
<event>
 7    1  0.3708346E-009  0.4614232E+02  0.7816164E-02  0.1320468E+00
        -11   -1    0    0    0    0  0.00000000000E+00  0.00000000000E+00  0.45593999997E+02  0.45594000000E+02  0.51100000000E-03 0. -1.
         11   -1    0    0    0    0 -0.00000000000E+00 -0.00000000000E+00 -0.45593999997E+02  0.45594000000E+02  0.51100000000E-03 0.  1.
    9900012    2    1    2    0    0 -0.66244020529E+01  0.93897184841E+01  0.43555298203E+02  0.46142317440E+02  0.99999970678E+01 0.  0.
        -12    1    1    2    0    0  0.66244020529E+01 -0.93897184841E+01 -0.43555298203E+02  0.45045682560E+02  0.00000000000E+00 0.  1.
         11    1    3    3    0    0 -0.85374885676E+00  0.25051210232E+01  0.30667884835E+01  0.40508900646E+01  0.51100000000E-03 0. -1.
        -11    1    3    3    0    0 -0.25495160608E+01  0.69649145453E+01  0.34529314202E+02  0.35316902558E+02  0.51100000000E-03 0.  1.
        -12    1    3    3    0    0 -0.32211371354E+01 -0.80317084428E-01  0.59591955179E+01  0.67745248172E+01  0.00000000000E+00 0.  1.
</event>
<event>
 7    1  0.3708346E-009  0.4614232E+02  0.7816164E-02  0.1320468E+00
        -11   -1    0    0    0    0  0.00000000000E+00  0.00000000000E+00  0.45593999997E+02  0.45594000000E+02  0.51100000000E-03 0.  1.
         11   -1    0    0    0    0 -0.00000000000E+00 -0.00000000000E+00 -0.45593999997E+02  0.45594000000E+02  0.51100000000E-03 0. -1.
    9900012    2    1    2    0    0 -0.21332147254E+02  0.17155087219E+02 -0.35773677749E+02  0.46142317147E+02  0.99999944030E+01 0.  0.
        -12    1    1    2    0    0  0.21332147254E+02 -0.17155087219E+02  0.35773677749E+02  0.45045682853E+02  0.00000000000E+00 0.  1.
         11    1    3    3    0    0 -0.44364403965E+01  0.52268354720E+00 -0.80644266850E+01  0.92190118506E+01  0.51100000000E-03 0. -1.
        -11    1    3    3    0    0 -0.28900036864E+01  0.24525829959E+01 -0.16957662699E+01  0.41524580868E+01  0.51100000000E-03 0.  1.
         12    1    3    3    0    0 -0.14005703171E+02  0.14179820676E+02 -0.26013484794E+02  0.32770847210E+02  0.00000000000E+00 0. -1.
</event>
<event>
 7    1  0.3708346E-009  0.4614232E+02  0.7816164E-02  0.1320468E+00
        -11   -1    0    0    0    0  0.00000000000E+00  0.00000000000E+00  0.45593999997E+02  0.45594000000E+02  0.51100000000E-03 0. -1.
         11   -1    0    0    0    0 -0.00000000000E+00 -0.00000000000E+00 -0.45593999997E+02  0.45594000000E+02  0.51100000000E-03 0.  1.
    9900012    2    1    2    0    0  0.21259752802E+02  0.36861066112E+02  0.14778302004E+02  0.46142317696E+02  0.99999994069E+01 0.  0.
        -12    1    1    2    0    0 -0.21259752802E+02 -0.36861066112E+02 -0.14778302004E+02  0.45045682304E+02  0.00000000000E+00 0.  1.
         11    1    3    3    0    0  0.52748055464E+01  0.12241287150E+02  0.14115071978E+01  0.13403918736E+02  0.51100000000E-03 0. -1.
        -11    1    3    3    0    0  0.11209469161E+02  0.17807885012E+02  0.67171931766E+01  0.22088314827E+02  0.51100000000E-03 0.  1.
        -12    1    3    3    0    0  0.47754780947E+01  0.68118939503E+01  0.66496016293E+01  0.10650084134E+02  0.00000000000E+00 0.  1.
</event>
<event>
 7    1  0.3708346E-009  0.4614232E+02  0.7816164E-02  0.1320468E+00
        -11   -1    0    0    0    0  0.00000000000E+00  0.00000000000E+00  0.45593999997E+02  0.45594000000E+02  0.51100000000E-03 0.  1.
         11   -1    0    0    0    0 -0.00000000000E+00 -0.00000000000E+00 -0.45593999997E+02  0.45594000000E+02  0.51100000000E-03 0. -1.
    9900012    2    1    2    0    0  0.36641149267E+02  0.14816673228E+02 -0.21610313930E+02  0.46142319926E+02  0.10000019744E+02 0.  0.
        -12    1    1    2    0    0 -0.36641149267E+02 -0.14816673228E+02  0.21610313930E+02  0.45045680074E+02  0.00000000000E+00 0.  1.
         11    1    3    3    0    0  0.29496935145E+02  0.10071163390E+02 -0.16720152607E+02  0.35370340943E+02  0.51100000000E-03 0. -1.
        -11    1    3    3    0    0  0.70754161218E+01  0.53787063309E+01 -0.48704389528E+01  0.10134750660E+02  0.51100000000E-03 0.  1.
         12    1    3    3    0    0  0.68797999708E-01 -0.63319649297E+00 -0.19722370626E-01  0.63722832280E+00  0.00000000000E+00 0. -1.
</event>
<event>
 7    1  0.3708346E-009  0.4614232E+02  0.7816164E-02  0.1320468E+00
        -11   -1    0    0    0    0  0.00000000000E+00  0.00000000000E+00  0.45593999997E+02  0.45594000000E+02  0.51100000000E-03 0. -1.
         11   -1    0    0    0    0 -0.00000000000E+00 -0.00000000000E+00 -0.45593999997E+02  0.45594000000E+02  0.51100000000E-03 0.  1.
    9900012    2    1    2    0    0 -0.23384199707E+02  0.61966189674E+01 -0.37998612455E+02  0.46142318397E+02  0.10000005796E+02 0.  0.
        -12    1    1    2    0    0  0.23384199707E+02 -0.61966189674E+01  0.37998612455E+02  0.45045681603E+02  0.00000000000E+00 0.  1.
         11    1    3    3    0    0 -0.52783328276E+01  0.56614755624E+01 -0.10954942277E+02  0.13413570126E+02  0.51100000000E-03 0. -1.
        -11    1    3    3    0    0 -0.82851816388E+01 -0.74476694103E+00 -0.99090305708E+01  0.12937843704E+02  0.51100000000E-03 0.  1.
         12    1    3    3    0    0 -0.98206852408E+01  0.12799103460E+01 -0.17134639608E+02  0.19790904567E+02  0.00000000000E+00 0. -1.
</event>
<event>
 7    1  0.3708346E-009  0.4614232E+02  0.7816164E-02  0.1320468E+00
        -11   -1    0    0    0    0  0.00000000000E+00  0.00000000000E+00  0.45593999997E+02  0.45594000000E+02  0.51100000000E-03 0. -1.
         11   -1    0    0    0    0 -0.00000000000E+00 -0.00000000000E+00 -0.45593999997E+02  0.45594000000E+02  0.51100000000E-03 0.  1.
    9900012    2    1    2    0    0  0.23273064284E+01  0.28423569009E+02  0.34868292435E+02  0.46142318212E+02  0.10000004114E+02 0.  0.
        -12    1    1    2    0    0 -0.23273064284E+01 -0.28423569009E+02 -0.34868292435E+02  0.45045681788E+02  0.00000000000E+00 0.  1.
         11    1    3    3    0    0  0.10168520534E+01  0.19375220559E+02  0.21491363682E+02  0.28953615888E+02  0.51100000000E-03 0.  1.
        -11    1    3    3    0    0  0.78344235985E+00  0.48940167107E+01  0.11647197568E+02  0.12657898441E+02  0.51100000000E-03 0. -1.
        -12    1    3    3    0    0  0.52701201522E+00  0.41543317388E+01  0.17297311857E+01  0.45308038840E+01  0.00000000000E+00 0.  1.
</event>
<event>
 7    1  0.3708346E-009  0.4614232E+02  0.7816164E-02  0.1320468E+00
        -11   -1    0    0    0    0  0.00000000000E+00  0.00000000000E+00  0.45593999997E+02  0.45594000000E+02  0.51100000000E-03 0.  1.
         11   -1    0    0    0    0 -0.00000000000E+00 -0.00000000000E+00 -0.45593999997E+02  0.45594000000E+02  0.51100000000E-03 0. -1.
    9900012    2    1    2    0    0  0.25834423274E+01 -0.35807753201E+02 -0.27207427355E+02  0.46142318000E+02  0.10000002175E+02 0.  0.
        -12    1    1    2    0    0 -0.25834423274E+01  0.35807753201E+02  0.27207427355E+02  0.45045682000E+02  0.00000000000E+00 0.  1.
         11    1    3    3    0    0  0.14658449904E+01 -0.21579419450E+02 -0.17729570645E+02  0.27967082809E+02  0.51100000000E-03 0. -1.
        -11    1    3    3    0    0  0.26235931251E+01 -0.25989096585E+01 -0.31293933503E+01  0.48405242796E+01  0.51100000000E-03 0.  1.
         12    1    3    3    0    0 -0.15059957882E+01 -0.11629424093E+02 -0.63484633603E+01  0.13334710911E+02  0.00000000000E+00 0. -1.
</event>
<event>
 7    1  0.3708346E-009  0.4614233E+02  0.7816164E-02  0.1320468E+00
        -11   -1    0    0    0    0  0.00000000000E+00  0.00000000000E+00  0.45593999997E+02  0.45594000000E+02  0.51100000000E-03 0. -1.
         11   -1    0    0    0    0 -0.00000000000E+00 -0.00000000000E+00 -0.45593999997E+02  0.45594000000E+02  0.51100000000E-03 0.  1.
    9900012    2    1    2    0    0  0.12516575742E+02 -0.32168717811E+02  0.28941694229E+02  0.46142326081E+02  0.10000075870E+02 0.  0.
        -12    1    1    2    0    0 -0.12516575742E+02  0.32168717811E+02 -0.28941694229E+02  0.45045673919E+02  0.00000000000E+00 0.  1.
         11    1    3    3    0    0  0.13242081370E+01 -0.11345798465E+02  0.75602498899E+01  0.13698103835E+02  0.51100000000E-03 0. -1.
        -11    1    3    3    0    0  0.47762802200E+01 -0.99554914570E+01  0.60638693719E+01  0.12597427313E+02  0.51100000000E-03 0.  1.
        -12    1    3    3    0    0  0.64160873847E+01 -0.10867427889E+02  0.15317574967E+02  0.19846794934E+02  0.00000000000E+00 0.  1.
</event>
<event>
 7    1  0.3708346E-009  0.4614232E+02  0.7816164E-02  0.1320468E+00
        -11   -1    0    0    0    0  0.00000000000E+00  0.00000000000E+00  0.45593999997E+02  0.45594000000E+02  0.51100000000E-03 0.  1.
         11   -1    0    0    0    0 -0.00000000000E+00 -0.00000000000E+00 -0.45593999997E+02  0.45594000000E+02  0.51100000000E-03 0. -1.
    9900012    2    1    2    0    0 -0.43782159699E+02 -0.60763698206E+01  0.86783485018E+01  0.46142317512E+02  0.99999977245E+01 0.  0.
        -12    1    1    2    0    0  0.43782159699E+02  0.60763698206E+01 -0.86783485018E+01  0.45045682488E+02  0.00000000000E+00 0.  1.
         11    1    3    3    0    0 -0.92242293076E+01 -0.98514498140E+00 -0.11351784024E+01  0.93458839721E+01  0.51100000000E-03 0. -1.
        -11    1    3    3    0    0 -0.12474099487E+02  0.75323511578E+00  0.49429325226E+01  0.13438865404E+02  0.51100000000E-03 0.  1.
        -12    1    3    3    0    0 -0.22083830905E+02 -0.58444599550E+01  0.48705943816E+01  0.23357568136E+02  0.00000000000E+00 0.  1.
</event>
<event>
 7    1  0.3708346E-009  0.4614232E+02  0.7816164E-02  0.1320468E+00
        -11   -1    0    0    0    0  0.00000000000E+00  0.00000000000E+00  0.45593999997E+02  0.45594000000E+02  0.51100000000E-03 0.  1.
         11   -1    0    0    0    0 -0.00000000000E+00 -0.00000000000E+00 -0.45593999997E+02  0.45594000000E+02  0.51100000000E-03 0. -1.
    9900012    2    1    2    0    0 -0.29062685182E+02 -0.40319912028E+01 -0.34179188128E+02  0.46142317364E+02  0.99999963753E+01 0.  0.
        -12    1    1    2    0    0  0.29062685182E+02  0.40319912028E+01  0.34179188128E+02  0.45045682636E+02  0.00000000000E+00 0.  1.
         11    1    3    3    0    0 -0.20008161176E+02 -0.17220728538E+00 -0.23769444335E+02  0.31069963844E+02  0.51100000000E-03 0. -1.
        -11    1    3    3    0    0 -0.90363260119E+01 -0.46100857307E+01 -0.95696113905E+01  0.13945807279E+02  0.51100000000E-03 0.  1.
         12    1    3    3    0    0 -0.18197994089E-01  0.75030181330E+00 -0.84013240319E+00  0.11265462409E+01  0.00000000000E+00 0. -1.
</event>
<event>
 7    1  0.3708346E-009  0.4614232E+02  0.7816164E-02  0.1320468E+00
        -11   -1    0    0    0    0  0.00000000000E+00  0.00000000000E+00  0.45593999997E+02  0.45594000000E+02  0.51100000000E-03 0.  1.
         11   -1    0    0    0    0 -0.00000000000E+00 -0.00000000000E+00 -0.45593999997E+02  0.45594000000E+02  0.51100000000E-03 0. -1.
    9900012    2    1    2    0    0  0.20634853317E+02  0.20054577433E+02 -0.34657325383E+02  0.46142318185E+02  0.10000003869E+02 0.  0.
        -12    1    1    2    0    0 -0.20634853317E+02 -0.20054577433E+02  0.34657325383E+02  0.45045681815E+02  0.00000000000E+00 0.  1.
         11    1    3    3    0    0  0.73200213718E+01  0.12507555886E+02 -0.19116152964E+02  0.23988517494E+02  0.51100000000E-03 0. -1.
        -11    1    3    3    0    0  0.39101572940E+01  0.31587325199E+00 -0.37149990653E+01  0.54028070751E+01  0.51100000000E-03 0.  1.
         12    1    3    3    0    0  0.94046746513E+01  0.72311482948E+01 -0.11826173354E+02  0.16750993617E+02  0.00000000000E+00 0. -1.
</event>
<event>
 7    1  0.3708346E-009  0.4614231E+02  0.7816164E-02  0.1320468E+00
        -11   -1    0    0    0    0  0.00000000000E+00  0.00000000000E+00  0.45593999997E+02  0.45594000000E+02  0.51100000000E-03 0.  1.
         11   -1    0    0    0    0 -0.00000000000E+00 -0.00000000000E+00 -0.45593999997E+02  0.45594000000E+02  0.51100000000E-03 0. -1.
    9900012    2    1    2    0    0 -0.27863758883E+02  0.86581216678E+01 -0.34318532043E+02  0.46142314618E+02  0.99999713408E+01 0.  0.
        -12    1    1    2    0    0  0.27863758883E+02 -0.86581216678E+01  0.34318532043E+02  0.45045685382E+02  0.00000000000E+00 0.  1.
         11    1    3    3    0    0 -0.91941424325E+01  0.30555969044E+00 -0.10710650411E+02  0.14118911228E+02  0.51100000000E-03 0. -1.
        -11    1    3    3    0    0 -0.55847365968E+01  0.20208765428E+00 -0.10024908728E+02  0.11477321880E+02  0.51100000000E-03 0.  1.
        -12    1    3    3    0    0 -0.13084879854E+02  0.81504743230E+01 -0.13582972905E+02  0.20546081510E+02  0.00000000000E+00 0.  1.
</event>
<event>
 7    1  0.3708346E-009  0.4614232E+02  0.7816164E-02  0.1320468E+00
        -11   -1    0    0    0    0  0.00000000000E+00  0.00000000000E+00  0.45593999997E+02  0.45594000000E+02  0.51100000000E-03 0. -1.
         11   -1    0    0    0    0 -0.00000000000E+00 -0.00000000000E+00 -0.45593999997E+02  0.45594000000E+02  0.51100000000E-03 0.  1.
    9900012    2    1    2    0    0  0.15035503163E+02 -0.26660006163E+02  0.33049830066E+02  0.46142317062E+02  0.99999936247E+01 0.  0.
        -12    1    1    2    0    0 -0.15035503163E+02  0.26660006163E+02 -0.33049830066E+02  0.45045682938E+02  0.00000000000E+00 0.  1.
         11    1    3    3    0    0  0.62827787578E+01 -0.20379133144E+02  0.22691718982E+02  0.31139950020E+02  0.51100000000E-03 0. -1.
        -11    1    3    3    0    0  0.57956882010E+01 -0.33782879903E+01  0.64859277062E+01  0.93311355118E+01  0.51100000000E-03 0.  1.
         12    1    3    3    0    0  0.29570362039E+01 -0.29025850294E+01  0.38721833770E+01  0.56712315302E+01  0.00000000000E+00 0. -1.
</event>
<event>
 7    1  0.3708346E-009  0.4614232E+02  0.7816164E-02  0.1320468E+00
        -11   -1    0    0    0    0  0.00000000000E+00  0.00000000000E+00  0.45593999997E+02  0.45594000000E+02  0.51100000000E-03 0.  1.
         11   -1    0    0    0    0 -0.00000000000E+00 -0.00000000000E+00 -0.45593999997E+02  0.45594000000E+02  0.51100000000E-03 0. -1.
    9900012    2    1    2    0    0  0.29146118875E+02 -0.13574678795E+02 -0.31549094923E+02  0.46142317184E+02  0.99999947386E+01 0.  0.
        -12    1    1    2    0    0 -0.29146118875E+02  0.13574678795E+02  0.31549094923E+02  0.45045682816E+02  0.00000000000E+00 0.  1.
         11    1    3    3    0    0  0.68938799157E+01 -0.70640843046E+01 -0.82011786392E+01  0.12833012066E+02  0.51100000000E-03 0. -1.
        -11    1    3    3    0    0  0.31291552097E+01  0.88488996848E+00 -0.33304703849E+01  0.46547476654E+01  0.51100000000E-03 0.  1.
         12    1    3    3    0    0  0.19123083750E+02 -0.73954844589E+01 -0.20017445899E+02  0.28654557453E+02  0.00000000000E+00 0. -1.
</event>
<event>
 7    1  0.3708346E-009  0.4614232E+02  0.7816164E-02  0.1320468E+00
        -11   -1    0    0    0    0  0.00000000000E+00  0.00000000000E+00  0.45593999997E+02  0.45594000000E+02  0.51100000000E-03 0. -1.
         11   -1    0    0    0    0 -0.00000000000E+00 -0.00000000000E+00 -0.45593999997E+02  0.45594000000E+02  0.51100000000E-03 0.  1.
    9900012    2    1    2    0    0 -0.28667225510E+02  0.12515211388E+02 -0.32414089911E+02  0.46142316974E+02  0.99999928208E+01 0.  0.
        -12    1    1    2    0    0  0.28667225510E+02 -0.12515211388E+02  0.32414089911E+02  0.45045683026E+02  0.00000000000E+00 0.  1.
         11    1    3    3    0    0 -0.89910011339E+01  0.69910780731E+01 -0.16494011895E+02  0.20044093960E+02  0.51100000000E-03 0. -1.
        -11    1    3    3    0    0 -0.31265152324E+01 -0.25626498471E+00 -0.20912161395E+01  0.37701398440E+01  0.51100000000E-03 0.  1.
         12    1    3    3    0    0 -0.16549709144E+02  0.57803983001E+01 -0.13828861877E+02  0.22328083170E+02  0.00000000000E+00 0. -1.
</event>
<event>
 7    1  0.3708346E-009  0.4614232E+02  0.7816164E-02  0.1320468E+00
        -11   -1    0    0    0    0  0.00000000000E+00  0.00000000000E+00  0.45593999997E+02  0.45594000000E+02  0.51100000000E-03 0. -1.
         11   -1    0    0    0    0 -0.00000000000E+00 -0.00000000000E+00 -0.45593999997E+02  0.45594000000E+02  0.51100000000E-03 0.  1.
    9900012    2    1    2    0    0  0.43007979196E+02  0.99852278346E+01  0.89287411386E+01  0.46142317990E+02  0.10000002087E+02 0.  0.
        -12    1    1    2    0    0 -0.43007979196E+02 -0.99852278346E+01 -0.89287411386E+01  0.45045682010E+02  0.00000000000E+00 0.  1.
         11    1    3    3    0    0  0.25465256108E+01 -0.84153419884E+00  0.59854008951E+00  0.27479488704E+01  0.51100000000E-03 0. -1.
        -11    1    3    3    0    0  0.19070722972E+02  0.87791270668E+01  0.25988188552E+01  0.21154654486E+02  0.51100000000E-03 0.  1.
         12    1    3    3    0    0  0.21390730613E+02  0.20476349666E+01  0.57313821939E+01  0.22239714633E+02  0.00000000000E+00 0. -1.
</event>
<event>
 7    1  0.3708346E-009  0.4614232E+02  0.7816164E-02  0.1320468E+00
        -11   -1    0    0    0    0  0.00000000000E+00  0.00000000000E+00  0.45593999997E+02  0.45594000000E+02  0.51100000000E-03 0.  1.
         11   -1    0    0    0    0 -0.00000000000E+00 -0.00000000000E+00 -0.45593999997E+02  0.45594000000E+02  0.51100000000E-03 0. -1.
    9900012    2    1    2    0    0 -0.19847237558E+02 -0.14626428824E+02 -0.37699712012E+02  0.46142317136E+02  0.99999943030E+01 0.  0.
        -12    1    1    2    0    0  0.19847237558E+02  0.14626428824E+02  0.37699712012E+02  0.45045682864E+02  0.00000000000E+00 0.  1.
         11    1    3    3    0    0 -0.53311146796E+01 -0.28650829882E+01 -0.12310831193E+02  0.13718092038E+02  0.51100000000E-03 0. -1.
        -11    1    3    3    0    0 -0.70328754856E+01 -0.92550575349E+01 -0.10949781279E+02  0.15969193402E+02  0.51100000000E-03 0.  1.
        -12    1    3    3    0    0 -0.74832473932E+01 -0.25062883006E+01 -0.14439099540E+02  0.16455031696E+02  0.00000000000E+00 0.  1.
</event>
<event>
 7    1  0.3708346E-009  0.4614232E+02  0.7816164E-02  0.1320468E+00
        -11   -1    0    0    0    0  0.00000000000E+00  0.00000000000E+00  0.45593999997E+02  0.45594000000E+02  0.51100000000E-03 0.  1.
         11   -1    0    0    0    0 -0.00000000000E+00 -0.00000000000E+00 -0.45593999997E+02  0.45594000000E+02  0.51100000000E-03 0. -1.
    9900012    2    1    2    0    0 -0.27253264067E+02 -0.22316350712E+02 -0.28077634441E+02  0.46142317996E+02  0.10000002142E+02 0.  0.
        -12    1    1    2    0    0  0.27253264067E+02  0.22316350712E+02  0.28077634441E+02  0.45045682004E+02  0.00000000000E+00 0.  1.
         11    1    3    3    0    0 -0.11392793232E+01 -0.37973554501E+01 -0.31116966313E+01  0.50398930522E+01  0.51100000000E-03 0. -1.
        -11    1    3    3    0    0 -0.69855273716E+01 -0.26860523261E+01 -0.34273139593E+01  0.82315825329E+01  0.51100000000E-03 0.  1.
         12    1    3    3    0    0 -0.19128457372E+02 -0.15832942935E+02 -0.21538623850E+02  0.32870842411E+02  0.00000000000E+00 0. -1.
</event>
<event>
 7    1  0.3708346E-009  0.4614232E+02  0.7816164E-02  0.1320468E+00
        -11   -1    0    0    0    0  0.00000000000E+00  0.00000000000E+00  0.45593999997E+02  0.45594000000E+02  0.51100000000E-03 0.  1.
         11   -1    0    0    0    0 -0.00000000000E+00 -0.00000000000E+00 -0.45593999997E+02  0.45594000000E+02  0.51100000000E-03 0. -1.
    9900012    2    1    2    0    0  0.31968532854E+02  0.13976286399E+01 -0.31704464162E+02  0.46142317560E+02  0.99999981694E+01 0.  0.
        -12    1    1    2    0    0 -0.31968532854E+02 -0.13976286399E+01  0.31704464162E+02  0.45045682440E+02  0.00000000000E+00 0.  1.
         11    1    3    3    0    0  0.23553103914E+01  0.24254795628E+01 -0.33167166309E+01  0.47361426942E+01  0.51100000000E-03 0. -1.
        -11    1    3    3    0    0  0.45316550316E+01  0.18510426559E+01 -0.47753533082E+01  0.68385857982E+01  0.51100000000E-03 0.  1.
         12    1    3    3    0    0  0.25081567431E+02 -0.28788935788E+01 -0.23612394223E+02  0.34567589068E+02  0.00000000000E+00 0. -1.
</event>
<event>
 7    1  0.3708346E-009  0.4614232E+02  0.7816164E-02  0.1320468E+00
        -11   -1    0    0    0    0  0.00000000000E+00  0.00000000000E+00  0.45593999997E+02  0.45594000000E+02  0.51100000000E-03 0. -1.
         11   -1    0    0    0    0 -0.00000000000E+00 -0.00000000000E+00 -0.45593999997E+02  0.45594000000E+02  0.51100000000E-03 0.  1.
    9900012    2    1    2    0    0  0.24727174936E+02 -0.23258786087E+02  0.29609275519E+02  0.46142317551E+02  0.99999980801E+01 0.  0.
        -12    1    1    2    0    0 -0.24727174936E+02  0.23258786087E+02 -0.29609275519E+02  0.45045682449E+02  0.00000000000E+00 0.  1.
         11    1    3    3    0    0  0.16786241031E+02 -0.13648924280E+02  0.17024259293E+02  0.27529918755E+02  0.51100000000E-03 0. -1.
        -11    1    3    3    0    0  0.73465186750E+01 -0.96030097424E+01  0.92462167652E+01  0.15221092519E+02  0.51100000000E-03 0.  1.
         12    1    3    3    0    0  0.59441523061E+00 -0.68520649869E-02  0.33387994610E+01  0.33913062760E+01  0.00000000000E+00 0. -1.
</event>
<event>
 7    1  0.3708346E-009  0.4614232E+02  0.7816164E-02  0.1320468E+00
        -11   -1    0    0    0    0  0.00000000000E+00  0.00000000000E+00  0.45593999997E+02  0.45594000000E+02  0.51100000000E-03 0.  1.
         11   -1    0    0    0    0 -0.00000000000E+00 -0.00000000000E+00 -0.45593999997E+02  0.45594000000E+02  0.51100000000E-03 0. -1.
    9900012    2    1    2    0    0  0.36228515214E+02  0.26748402975E+02 -0.10635335974E+01  0.46142317853E+02  0.10000000838E+02 0.  0.
        -12    1    1    2    0    0 -0.36228515214E+02 -0.26748402975E+02  0.10635335974E+01  0.45045682147E+02  0.00000000000E+00 0.  1.
         11    1    3    3    0    0  0.20370251054E+02  0.12036026325E+02  0.50015069357E-01  0.23660421794E+02  0.51100000000E-03 0. -1.
        -11    1    3    3    0    0  0.34134719318E+01  0.64950427165E+01 -0.17934894723E+01  0.75534081888E+01  0.51100000000E-03 0.  1.
        -12    1    3    3    0    0  0.12444792229E+02  0.82173339343E+01  0.67994080556E+00  0.14928487870E+02  0.00000000000E+00 0.  1.
</event>
<event>
 7    1  0.3708346E-009  0.4614232E+02  0.7816164E-02  0.1320468E+00
        -11   -1    0    0    0    0  0.00000000000E+00  0.00000000000E+00  0.45593999997E+02  0.45594000000E+02  0.51100000000E-03 0.  1.
         11   -1    0    0    0    0 -0.00000000000E+00 -0.00000000000E+00 -0.45593999997E+02  0.45594000000E+02  0.51100000000E-03 0. -1.
    9900012    2    1    2    0    0 -0.14626000551E+02  0.42592814243E+02  0.10226356957E+01  0.46142317621E+02  0.99999987224E+01 0.  0.
        -12    1    1    2    0    0  0.14626000551E+02 -0.42592814243E+02 -0.10226356957E+01  0.45045682379E+02  0.00000000000E+00 0.  1.
         11    1    3    3    0    0 -0.20447084510E+01  0.16902895852E+02  0.99116511907E+00  0.17054944426E+02  0.51100000000E-03 0. -1.
        -11    1    3    3    0    0 -0.61365834357E+01  0.96641376363E+01 -0.22419308003E+01  0.11665310390E+02  0.51100000000E-03 0.  1.
        -12    1    3    3    0    0 -0.64447086644E+01  0.16025780754E+02  0.22734013770E+01  0.17422062805E+02  0.00000000000E+00 0.  1.
</event>
<event>
 7    1  0.3708346E-009  0.4614231E+02  0.7816164E-02  0.1320468E+00
        -11   -1    0    0    0    0  0.00000000000E+00  0.00000000000E+00  0.45593999997E+02  0.45594000000E+02  0.51100000000E-03 0. -1.
         11   -1    0    0    0    0 -0.00000000000E+00 -0.00000000000E+00 -0.45593999997E+02  0.45594000000E+02  0.51100000000E-03 0.  1.
    9900012    2    1    2    0    0  0.41804884213E+02  0.51390909825E+01 -0.15970450216E+02  0.46142313411E+02  0.99999603289E+01 0.  0.
        -12    1    1    2    0    0 -0.41804884213E+02 -0.51390909825E+01  0.15970450216E+02  0.45045686589E+02  0.00000000000E+00 0.  1.
         11    1    3    3    0    0  0.16643415898E+02 -0.42175791525E+00 -0.33628529379E+01  0.16984991983E+02  0.51100000000E-03 0. -1.
        -11    1    3    3    0    0  0.13636890429E+02  0.34662217711E+00 -0.65064892936E+01  0.15113547919E+02  0.51100000000E-03 0.  1.
         12    1    3    3    0    0  0.11524577886E+02  0.52142267206E+01 -0.61011079843E+01  0.14043773509E+02  0.00000000000E+00 0. -1.
</event>
<event>
 7    1  0.3708346E-009  0.4614232E+02  0.7816164E-02  0.1320468E+00
        -11   -1    0    0    0    0  0.00000000000E+00  0.00000000000E+00  0.45593999997E+02  0.45594000000E+02  0.51100000000E-03 0. -1.
         11   -1    0    0    0    0 -0.00000000000E+00 -0.00000000000E+00 -0.45593999997E+02  0.45594000000E+02  0.51100000000E-03 0.  1.
    9900012    2    1    2    0    0  0.31327046984E+02 -0.20811244286E+02  0.24791565593E+02  0.46142317787E+02  0.10000000237E+02 0.  0.
        -12    1    1    2    0    0 -0.31327046984E+02  0.20811244286E+02 -0.24791565593E+02  0.45045682213E+02  0.00000000000E+00 0.  1.
         11    1    3    3    0    0  0.99190340057E+01 -0.97359031622E+01  0.69913009681E+01  0.15558063359E+02  0.51100000000E-03 0. -1.
        -11    1    3    3    0    0  0.14123191186E+02 -0.79634085374E+01  0.82998165848E+01  0.18214482162E+02  0.51100000000E-03 0.  1.
         12    1    3    3    0    0  0.72848217922E+01 -0.31119325863E+01  0.95004480399E+01  0.12369772267E+02  0.00000000000E+00 0. -1.
</event>
<event>
 7    1  0.3708346E-009  0.4614232E+02  0.7816164E-02  0.1320468E+00
        -11   -1    0    0    0    0  0.00000000000E+00  0.00000000000E+00  0.45593999997E+02  0.45594000000E+02  0.51100000000E-03 0. -1.
         11   -1    0    0    0    0 -0.00000000000E+00 -0.00000000000E+00 -0.45593999997E+02  0.45594000000E+02  0.51100000000E-03 0.  1.
    9900012    2    1    2    0    0  0.83667579677E+01 -0.38554963684E+02  0.21739953534E+02  0.46142318262E+02  0.10000004566E+02 0.  0.
        -12    1    1    2    0    0 -0.83667579677E+01  0.38554963684E+02 -0.21739953534E+02  0.45045681738E+02  0.00000000000E+00 0.  1.
         11    1    3    3    0    0  0.90584800922E-01 -0.86470565701E+01  0.64165135175E+01  0.10768074986E+02  0.51100000000E-03 0. -1.
        -11    1    3    3    0    0  0.12910659428E+01 -0.18401116567E+00  0.27109308871E+00  0.13319921552E+01  0.51100000000E-03 0.  1.
        -12    1    3    3    0    0  0.69851072240E+01 -0.29723895949E+02  0.15052346928E+02  0.34042251120E+02  0.00000000000E+00 0.  1.
</event>
<event>
 7    1  0.3708346E-009  0.4614232E+02  0.7816164E-02  0.1320468E+00
        -11   -1    0    0    0    0  0.00000000000E+00  0.00000000000E+00  0.45593999997E+02  0.45594000000E+02  0.51100000000E-03 0. -1.
         11   -1    0    0    0    0 -0.00000000000E+00 -0.00000000000E+00 -0.45593999997E+02  0.45594000000E+02  0.51100000000E-03 0.  1.
    9900012    2    1    2    0    0  0.13869185533E+02  0.40986502642E+02  0.12524604831E+02  0.46142318383E+02  0.10000005667E+02 0.  0.
        -12    1    1    2    0    0 -0.13869185533E+02 -0.40986502642E+02 -0.12524604831E+02  0.45045681617E+02  0.00000000000E+00 0.  1.
         11    1    3    3    0    0  0.89824821576E+00  0.11001543428E+02  0.14359182369E+01  0.11131157581E+02  0.51100000000E-03 0. -1.
        -11    1    3    3    0    0  0.69703132457E+00  0.31637214084E+01 -0.57930435277E+00  0.32909845960E+01  0.51100000000E-03 0.  1.
         12    1    3    3    0    0  0.12273905993E+02  0.26821237807E+02  0.11667990947E+02  0.31720176206E+02  0.00000000000E+00 0. -1.
</event>
<event>
 7    1  0.3708346E-009  0.4614232E+02  0.7816164E-02  0.1320468E+00
        -11   -1    0    0    0    0  0.00000000000E+00  0.00000000000E+00  0.45593999997E+02  0.45594000000E+02  0.51100000000E-03 0.  1.
         11   -1    0    0    0    0 -0.00000000000E+00 -0.00000000000E+00 -0.45593999997E+02  0.45594000000E+02  0.51100000000E-03 0. -1.
    9900012    2    1    2    0    0  0.70874072320E+00 -0.36795655224E+02 -0.25974816866E+02  0.46142315767E+02  0.99999818183E+01 0.  0.
        -12    1    1    2    0    0 -0.70874072320E+00  0.36795655224E+02  0.25974816866E+02  0.45045684233E+02  0.00000000000E+00 0.  1.
         11    1    3    3    0    0  0.90905552321E+00 -0.22859972389E+02 -0.20775116367E+02  0.30903238987E+02  0.51100000000E-03 0. -1.
        -11    1    3    3    0    0 -0.11059944259E+01 -0.59191413850E+01 -0.87298784629E+00  0.60845350231E+01  0.51100000000E-03 0.  1.
         12    1    3    3    0    0  0.90567962586E+00 -0.80165414498E+01 -0.43267126525E+01  0.91545417569E+01  0.00000000000E+00 0. -1.
</event>
<event>
 7    1  0.3708346E-009  0.4614232E+02  0.7816164E-02  0.1320468E+00
        -11   -1    0    0    0    0  0.00000000000E+00  0.00000000000E+00  0.45593999997E+02  0.45594000000E+02  0.51100000000E-03 0.  1.
         11   -1    0    0    0    0 -0.00000000000E+00 -0.00000000000E+00 -0.45593999997E+02  0.45594000000E+02  0.51100000000E-03 0. -1.
    9900012    2    1    2    0    0  0.24197274971E+02  0.58284262748E+01 -0.37545103434E+02  0.46142318068E+02  0.10000002800E+02 0.  0.
        -12    1    1    2    0    0 -0.24197274971E+02 -0.58284262748E+01  0.37545103434E+02  0.45045681932E+02  0.00000000000E+00 0.  1.
         11    1    3    3    0    0  0.16514870313E+02  0.49521992195E+01 -0.24114294163E+02  0.29643960630E+02  0.51100000000E-03 0. -1.
        -11    1    3    3    0    0  0.54441741937E+01  0.20366026397E+01 -0.12544876475E+02  0.13826087986E+02  0.51100000000E-03 0.  1.
         12    1    3    3    0    0  0.22382304641E+01 -0.11603755843E+01 -0.88593279531E+00  0.26722694522E+01  0.00000000000E+00 0. -1.
</event>
<event>
 7    1  0.3708346E-009  0.4614232E+02  0.7816164E-02  0.1320468E+00
        -11   -1    0    0    0    0  0.00000000000E+00  0.00000000000E+00  0.45593999997E+02  0.45594000000E+02  0.51100000000E-03 0. -1.
         11   -1    0    0    0    0 -0.00000000000E+00 -0.00000000000E+00 -0.45593999997E+02  0.45594000000E+02  0.51100000000E-03 0.  1.
    9900012    2    1    2    0    0 -0.31484400378E+01  0.36370437839E+02 -0.26389242684E+02  0.46142317047E+02  0.99999934885E+01 0.  0.
        -12    1    1    2    0    0  0.31484400378E+01 -0.36370437839E+02  0.26389242684E+02  0.45045682953E+02  0.00000000000E+00 0.  1.
         11    1    3    3    0    0 -0.73137615553E+00  0.26286792094E+02 -0.15362317732E+02  0.30455396172E+02  0.51100000000E-03 0. -1.
        -11    1    3    3    0    0 -0.10337811422E+01  0.88430413757E+01 -0.10477249876E+02  0.13749212685E+02  0.51100000000E-03 0.  1.
         12    1    3    3    0    0 -0.13832827401E+01  0.12406043690E+01 -0.54967507675E+00  0.19377081900E+01  0.00000000000E+00 0. -1.
</event>
<event>
 7    1  0.3708346E-009  0.4614232E+02  0.7816164E-02  0.1320468E+00
        -11   -1    0    0    0    0  0.00000000000E+00  0.00000000000E+00  0.45593999997E+02  0.45594000000E+02  0.51100000000E-03 0.  1.
         11   -1    0    0    0    0 -0.00000000000E+00 -0.00000000000E+00 -0.45593999997E+02  0.45594000000E+02  0.51100000000E-03 0. -1.
    9900012    2    1    2    0    0 -0.17634690825E+00 -0.10699330024E+02 -0.43756216292E+02  0.46142320680E+02  0.10000026618E+02 0.  0.
        -12    1    1    2    0    0  0.17634690825E+00  0.10699330024E+02  0.43756216292E+02  0.45045679320E+02  0.00000000000E+00 0.  1.
         11    1    3    3    0    0  0.22542002792E+01 -0.31602491688E+01 -0.15574545863E+02  0.16051014697E+02  0.51100000000E-03 0. -1.
        -11    1    3    3    0    0 -0.24991979461E+01 -0.71269215523E+01 -0.14031182478E+02  0.15934650394E+02  0.51100000000E-03 0.  1.
        -12    1    3    3    0    0  0.68650758650E-01 -0.41215930325E+00 -0.14150487952E+02  0.14156655590E+02  0.00000000000E+00 0.  1.
</event>
<event>
 7    1  0.3708346E-009  0.4614232E+02  0.7816164E-02  0.1320468E+00
        -11   -1    0    0    0    0  0.00000000000E+00  0.00000000000E+00  0.45593999997E+02  0.45594000000E+02  0.51100000000E-03 0.  1.
         11   -1    0    0    0    0 -0.00000000000E+00 -0.00000000000E+00 -0.45593999997E+02  0.45594000000E+02  0.51100000000E-03 0. -1.
    9900012    2    1    2    0    0 -0.26848564104E+02 -0.35091971062E+02  0.87647940021E+01  0.46142318282E+02  0.10000004754E+02 0.  0.
        -12    1    1    2    0    0  0.26848564104E+02  0.35091971062E+02 -0.87647940021E+01  0.45045681718E+02  0.00000000000E+00 0.  1.
         11    1    3    3    0    0 -0.53797396062E+01 -0.87046853695E+01  0.63235829241E-02  0.10232946099E+02  0.51100000000E-03 0. -1.
        -11    1    3    3    0    0 -0.37660919335E+00 -0.40965798702E+01  0.14610606248E+01  0.43656041423E+01  0.51100000000E-03 0.  1.
        -12    1    3    3    0    0 -0.21092215305E+02 -0.22290705823E+02  0.72974097944E+01  0.31543768041E+02  0.00000000000E+00 0.  1.
</event>
<event>
 7    1  0.3708346E-009  0.4614232E+02  0.7816164E-02  0.1320468E+00
        -11   -1    0    0    0    0  0.00000000000E+00  0.00000000000E+00  0.45593999997E+02  0.45594000000E+02  0.51100000000E-03 0.  1.
         11   -1    0    0    0    0 -0.00000000000E+00 -0.00000000000E+00 -0.45593999997E+02  0.45594000000E+02  0.51100000000E-03 0. -1.
    9900012    2    1    2    0    0  0.91420976923E+01  0.23635665540E+02 -0.37240984550E+02  0.46142316899E+02  0.99999921416E+01 0.  0.
        -12    1    1    2    0    0 -0.91420976923E+01 -0.23635665540E+02  0.37240984550E+02  0.45045683101E+02  0.00000000000E+00 0.  1.
         11    1    3    3    0    0  0.88698896997E+01  0.16997908656E+02 -0.26033153229E+02  0.32331546657E+02  0.51100000000E-03 0. -1.
        -11    1    3    3    0    0 -0.18547529548E+01  0.48169980450E+01 -0.82998765802E+01  0.97740232349E+01  0.51100000000E-03 0.  1.
        -12    1    3    3    0    0  0.21269609475E+01  0.18207588390E+01 -0.29079547413E+01  0.40367470071E+01  0.00000000000E+00 0.  1.
</event>
<event>
 7    1  0.3708346E-009  0.4614232E+02  0.7816164E-02  0.1320468E+00
        -11   -1    0    0    0    0  0.00000000000E+00  0.00000000000E+00  0.45593999997E+02  0.45594000000E+02  0.51100000000E-03 0. -1.
         11   -1    0    0    0    0 -0.00000000000E+00 -0.00000000000E+00 -0.45593999997E+02  0.45594000000E+02  0.51100000000E-03 0.  1.
    9900012    2    1    2    0    0  0.88290849906E+01 -0.41869434160E+02  0.14075198820E+02  0.46142317849E+02  0.10000000798E+02 0.  0.
        -12    1    1    2    0    0 -0.88290849906E+01  0.41869434160E+02 -0.14075198820E+02  0.45045682151E+02  0.00000000000E+00 0.  1.
         11    1    3    3    0    0  0.73955908337E+01 -0.39601072281E+02  0.14190053719E+02  0.42711793622E+02  0.51100000000E-03 0. -1.
        -11    1    3    3    0    0 -0.24236330054E-01 -0.19235943255E+01  0.43439203993E-01  0.19242374475E+01  0.51100000000E-03 0.  1.
         12    1    3    3    0    0  0.14577304870E+01 -0.34476755341E+00 -0.15829410261E+00  0.15062867793E+01  0.00000000000E+00 0. -1.
</event>
<event>
 7    1  0.3708346E-009  0.4614232E+02  0.7816164E-02  0.1320468E+00
        -11   -1    0    0    0    0  0.00000000000E+00  0.00000000000E+00  0.45593999997E+02  0.45594000000E+02  0.51100000000E-03 0.  1.
         11   -1    0    0    0    0 -0.00000000000E+00 -0.00000000000E+00 -0.45593999997E+02  0.45594000000E+02  0.51100000000E-03 0. -1.
    9900012    2    1    2    0    0  0.26968876138E+02  0.93671474843E+01 -0.34843216183E+02  0.46142318230E+02  0.10000004279E+02 0.  0.
        -12    1    1    2    0    0 -0.26968876138E+02 -0.93671474843E+01  0.34843216183E+02  0.45045681770E+02  0.00000000000E+00 0.  1.
         11    1    3    3    0    0  0.92052732964E+01  0.19870926332E+01 -0.12857620630E+02  0.15937503007E+02  0.51100000000E-03 0. -1.
        -11    1    3    3    0    0  0.83580752882E+01  0.38184128977E+01 -0.16138922587E+02  0.18571551419E+02  0.51100000000E-03 0.  1.
        -12    1    3    3    0    0  0.94055275532E+01  0.35616419534E+01 -0.58466729664E+01  0.11633263804E+02  0.00000000000E+00 0.  1.
</event>
<event>
 7    1  0.3708346E-009  0.4614232E+02  0.7816164E-02  0.1320468E+00
        -11   -1    0    0    0    0  0.00000000000E+00  0.00000000000E+00  0.45593999997E+02  0.45594000000E+02  0.51100000000E-03 0. -1.
         11   -1    0    0    0    0 -0.00000000000E+00 -0.00000000000E+00 -0.45593999997E+02  0.45594000000E+02  0.51100000000E-03 0.  1.
    9900012    2    1    2    0    0 -0.17921939622E+01 -0.30875491432E+02  0.32750659194E+02  0.46142316433E+02  0.99999878900E+01 0.  0.
        -12    1    1    2    0    0  0.17921939622E+01  0.30875491432E+02 -0.32750659194E+02  0.45045683567E+02  0.00000000000E+00 0.  1.
         11    1    3    3    0    0  0.10656853252E+01 -0.53815586921E+01  0.43309750530E+01  0.69895782663E+01  0.51100000000E-03 0. -1.
        -11    1    3    3    0    0 -0.50892077952E+01 -0.10983038317E+02  0.14872387402E+02  0.19175898257E+02  0.51100000000E-03 0.  1.
        -12    1    3    3    0    0  0.22313285078E+01 -0.14510894422E+02  0.13547296739E+02  0.19976839910E+02  0.00000000000E+00 0.  1.
</event>
<event>
 7    1  0.3708346E-009  0.4614232E+02  0.7816164E-02  0.1320468E+00
        -11   -1    0    0    0    0  0.00000000000E+00  0.00000000000E+00  0.45593999997E+02  0.45594000000E+02  0.51100000000E-03 0. -1.
         11   -1    0    0    0    0 -0.00000000000E+00 -0.00000000000E+00 -0.45593999997E+02  0.45594000000E+02  0.51100000000E-03 0.  1.
    9900012    2    1    2    0    0  0.44632464698E+02 -0.42118451951E+00 -0.60728186879E+01  0.46142318429E+02  0.10000006089E+02 0.  0.
        -12    1    1    2    0    0 -0.44632464698E+02  0.42118451951E+00  0.60728186879E+01  0.45045681571E+02  0.00000000000E+00 0.  1.
         11    1    3    3    0    0  0.87060754138E+01 -0.35990421417E+01 -0.10637796828E+01  0.94805316793E+01  0.51100000000E-03 0. -1.
        -11    1    3    3    0    0  0.34561590997E+02  0.25544433359E+01 -0.40755938337E+01  0.34894687537E+02  0.51100000000E-03 0.  1.
        -12    1    3    3    0    0  0.13647982873E+01  0.62341428623E+00 -0.93344517137E+00  0.17670992121E+01  0.00000000000E+00 0.  1.
</event>
<event>
 7    1  0.3708346E-009  0.4614232E+02  0.7816164E-02  0.1320468E+00
        -11   -1    0    0    0    0  0.00000000000E+00  0.00000000000E+00  0.45593999997E+02  0.45594000000E+02  0.51100000000E-03 0.  1.
         11   -1    0    0    0    0 -0.00000000000E+00 -0.00000000000E+00 -0.45593999997E+02  0.45594000000E+02  0.51100000000E-03 0. -1.
    9900012    2    1    2    0    0 -0.12991502604E+02 -0.23393799771E+02  0.36236231384E+02  0.46142317937E+02  0.10000001601E+02 0.  0.
        -12    1    1    2    0    0  0.12991502604E+02  0.23393799771E+02 -0.36236231384E+02  0.45045682063E+02  0.00000000000E+00 0.  1.
         11    1    3    3    0    0 -0.66677034524E+01 -0.88193907137E+01  0.13761110463E+02  0.17652424290E+02  0.51100000000E-03 0. -1.
        -11    1    3    3    0    0 -0.32780368558E+01 -0.25522495736E+01  0.21449267675E+01  0.46754908419E+01  0.51100000000E-03 0.  1.
        -12    1    3    3    0    0 -0.30457622959E+01 -0.12022159483E+02  0.20330194154E+02  0.23814402805E+02  0.00000000000E+00 0.  1.
</event>
<event>
 7    1  0.3708346E-009  0.4614232E+02  0.7816164E-02  0.1320468E+00
        -11   -1    0    0    0    0  0.00000000000E+00  0.00000000000E+00  0.45593999997E+02  0.45594000000E+02  0.51100000000E-03 0.  1.
         11   -1    0    0    0    0 -0.00000000000E+00 -0.00000000000E+00 -0.45593999997E+02  0.45594000000E+02  0.51100000000E-03 0. -1.
    9900012    2    1    2    0    0 -0.44077158299E+02 -0.74359621404E+00 -0.92609232130E+01  0.46142317434E+02  0.99999970191E+01 0.  0.
        -12    1    1    2    0    0  0.44077158299E+02  0.74359621404E+00  0.92609232130E+01  0.45045682566E+02  0.00000000000E+00 0.  1.
         11    1    3    3    0    0 -0.96031939152E+01 -0.10418969872E+01 -0.10168515174E+01  0.97129228338E+01  0.51100000000E-03 0. -1.
        -11    1    3    3    0    0 -0.24087088496E+02 -0.25559241752E+01 -0.84546403846E+01  0.25655438505E+02  0.51100000000E-03 0.  1.
        -12    1    3    3    0    0 -0.10386875888E+02  0.28542249483E+01  0.21056868902E+00  0.10773956096E+02  0.00000000000E+00 0.  1.
</event>
<event>
 7    1  0.3708346E-009  0.4614232E+02  0.7816164E-02  0.1320468E+00
        -11   -1    0    0    0    0  0.00000000000E+00  0.00000000000E+00  0.45593999997E+02  0.45594000000E+02  0.51100000000E-03 0.  1.
         11   -1    0    0    0    0 -0.00000000000E+00 -0.00000000000E+00 -0.45593999997E+02  0.45594000000E+02  0.51100000000E-03 0. -1.
    9900012    2    1    2    0    0 -0.73819099628E+01  0.21506296000E+02 -0.38885731912E+02  0.46142317536E+02  0.99999979434E+01 0.  0.
        -12    1    1    2    0    0  0.73819099628E+01 -0.21506296000E+02  0.38885731912E+02  0.45045682464E+02  0.00000000000E+00 0.  1.
         11    1    3    3    0    0  0.45785861311E+00 -0.56378263033E+00 -0.57739639410E+00  0.92783200036E+00  0.51100000000E-03 0.  1.
        -11    1    3    3    0    0 -0.33644232342E+01  0.16237737224E+02 -0.28223854482E+02  0.32734834900E+02  0.51100000000E-03 0. -1.
        -12    1    3    3    0    0 -0.44753453417E+01  0.58323414068E+01 -0.10084481036E+02  0.12479650636E+02  0.00000000000E+00 0.  1.
</event>
<event>
 7    1  0.3708346E-009  0.4614232E+02  0.7816164E-02  0.1320468E+00
        -11   -1    0    0    0    0  0.00000000000E+00  0.00000000000E+00  0.45593999997E+02  0.45594000000E+02  0.51100000000E-03 0.  1.
         11   -1    0    0    0    0 -0.00000000000E+00 -0.00000000000E+00 -0.45593999997E+02  0.45594000000E+02  0.51100000000E-03 0. -1.
    9900012    2    1    2    0    0 -0.44881654688E+02  0.32278372165E+01 -0.20812239446E+01  0.46142319255E+02  0.10000013623E+02 0.  0.
        -12    1    1    2    0    0  0.44881654688E+02 -0.32278372165E+01  0.20812239446E+01  0.45045680745E+02  0.00000000000E+00 0.  1.
         11    1    3    3    0    0 -0.23030868679E+02  0.36259325961E+01 -0.37880848736E+01  0.23620285489E+02  0.51100000000E-03 0. -1.
        -11    1    3    3    0    0 -0.34080617414E+01 -0.17287907105E+01  0.12673687712E+01  0.40261428212E+01  0.51100000000E-03 0.  1.
        -12    1    3    3    0    0 -0.18442724268E+02  0.13306953308E+01  0.43949215774E+00  0.18495890945E+02  0.00000000000E+00 0.  1.
</event>
<event>
 7    1  0.3708346E-009  0.4614232E+02  0.7816164E-02  0.1320468E+00
        -11   -1    0    0    0    0  0.00000000000E+00  0.00000000000E+00  0.45593999997E+02  0.45594000000E+02  0.51100000000E-03 0. -1.
         11   -1    0    0    0    0 -0.00000000000E+00 -0.00000000000E+00 -0.45593999997E+02  0.45594000000E+02  0.51100000000E-03 0.  1.
    9900012    2    1    2    0    0  0.26874120741E+02  0.29516607063E+02  0.20872590822E+02  0.46142317568E+02  0.99999982370E+01 0.  0.
        -12    1    1    2    0    0 -0.26874120741E+02 -0.29516607063E+02 -0.20872590822E+02  0.45045682432E+02  0.00000000000E+00 0.  1.
         11    1    3    3    0    0  0.60203027936E+01  0.79358649632E+01  0.67944610955E+01  0.12057640743E+02  0.51100000000E-03 0. -1.
        -11    1    3    3    0    0  0.16534681355E+02  0.19939183169E+02  0.95279645118E+01  0.27599797480E+02  0.51100000000E-03 0.  1.
        -12    1    3    3    0    0  0.43191365930E+01  0.16415589310E+01  0.45501652149E+01  0.64848793447E+01  0.00000000000E+00 0.  1.
</event>
<event>
 7    1  0.3708346E-009  0.4614232E+02  0.7816164E-02  0.1320468E+00
        -11   -1    0    0    0    0  0.00000000000E+00  0.00000000000E+00  0.45593999997E+02  0.45594000000E+02  0.51100000000E-03 0. -1.
         11   -1    0    0    0    0 -0.00000000000E+00 -0.00000000000E+00 -0.45593999997E+02  0.45594000000E+02  0.51100000000E-03 0.  1.
    9900012    2    1    2    0    0  0.42683355676E+02 -0.61846356939E+01  0.12999805801E+02  0.46142317396E+02  0.99999966702E+01 0.  0.
        -12    1    1    2    0    0 -0.42683355676E+02  0.61846356939E+01 -0.12999805801E+02  0.45045682604E+02  0.00000000000E+00 0.  1.
         11    1    3    3    0    0  0.26888618196E+02 -0.59881578197E+01  0.61969680471E+01  0.28235761647E+02  0.51100000000E-03 0. -1.
        -11    1    3    3    0    0  0.66275711557E+01 -0.21627858385E+01  0.43426960000E+01  0.82134859114E+01  0.51100000000E-03 0.  1.
         12    1    3    3    0    0  0.91671663238E+01  0.19663079643E+01  0.24601417540E+01  0.96930698371E+01  0.00000000000E+00 0. -1.
</event>
<event>
 7    1  0.3708346E-009  0.4614232E+02  0.7816164E-02  0.1320468E+00
        -11   -1    0    0    0    0  0.00000000000E+00  0.00000000000E+00  0.45593999997E+02  0.45594000000E+02  0.51100000000E-03 0.  1.
         11   -1    0    0    0    0 -0.00000000000E+00 -0.00000000000E+00 -0.45593999997E+02  0.45594000000E+02  0.51100000000E-03 0. -1.
    9900012    2    1    2    0    0 -0.12982669410E+02 -0.32460707062E+02 -0.28405391183E+02  0.46142318118E+02  0.10000003256E+02 0.  0.
        -12    1    1    2    0    0  0.12982669410E+02  0.32460707062E+02  0.28405391183E+02  0.45045681882E+02  0.00000000000E+00 0.  1.
         11    1    3    3    0    0 -0.10545570545E+02 -0.21142008876E+02 -0.14912902431E+02  0.27939009585E+02  0.51100000000E-03 0. -1.
        -11    1    3    3    0    0 -0.20238724627E+01 -0.18980237361E+01 -0.26981840106E+01  0.38702391481E+01  0.51100000000E-03 0.  1.
         12    1    3    3    0    0 -0.41322640245E+00 -0.94206744502E+01 -0.10794304741E+02  0.14333069385E+02  0.00000000000E+00 0. -1.
</event>
<event>
 7    1  0.3708346E-009  0.4614232E+02  0.7816164E-02  0.1320468E+00
        -11   -1    0    0    0    0  0.00000000000E+00  0.00000000000E+00  0.45593999997E+02  0.45594000000E+02  0.51100000000E-03 0.  1.
         11   -1    0    0    0    0 -0.00000000000E+00 -0.00000000000E+00 -0.45593999997E+02  0.45594000000E+02  0.51100000000E-03 0. -1.
    9900012    2    1    2    0    0  0.16664990184E+02 -0.12775568692E+02 -0.39851931688E+02  0.46142317494E+02  0.99999975609E+01 0.  0.
        -12    1    1    2    0    0 -0.16664990184E+02  0.12775568692E+02  0.39851931688E+02  0.45045682506E+02  0.00000000000E+00 0.  1.
         11    1    3    3    0    0  0.98190500470E+01 -0.99973380767E+01 -0.29557969667E+02  0.32711375445E+02  0.51100000000E-03 0. -1.
        -11    1    3    3    0    0  0.38213543310E+00 -0.20368271472E+01 -0.31260037403E+01  0.37505455553E+01  0.51100000000E-03 0.  1.
         12    1    3    3    0    0  0.64638047035E+01 -0.74140346769E+00 -0.71679582810E+01  0.96803964932E+01  0.00000000000E+00 0. -1.
</event>
<event>
 7    1  0.3708346E-009  0.4614232E+02  0.7816164E-02  0.1320468E+00
        -11   -1    0    0    0    0  0.00000000000E+00  0.00000000000E+00  0.45593999997E+02  0.45594000000E+02  0.51100000000E-03 0. -1.
         11   -1    0    0    0    0 -0.00000000000E+00 -0.00000000000E+00 -0.45593999997E+02  0.45594000000E+02  0.51100000000E-03 0.  1.
    9900012    2    1    2    0    0  0.39322565605E+02  0.21690886152E+02  0.35149363051E+01  0.46142317798E+02  0.10000000336E+02 0.  0.
        -12    1    1    2    0    0 -0.39322565605E+02 -0.21690886152E+02 -0.35149363051E+01  0.45045682202E+02  0.00000000000E+00 0.  1.
         11    1    3    3    0    0  0.46627639089E+01  0.29935585337E+01  0.36723302204E+00  0.55531630913E+01  0.51100000000E-03 0. -1.
        -11    1    3    3    0    0  0.30637579620E+02  0.12652852489E+02  0.34211585292E+01  0.33323569542E+02  0.51100000000E-03 0.  1.
        -12    1    3    3    0    0  0.40222220765E+01  0.60444751289E+01 -0.27345524613E+00  0.72655851649E+01  0.00000000000E+00 0.  1.
</event>
<event>
 7    1  0.3708346E-009  0.4614232E+02  0.7816164E-02  0.1320468E+00
        -11   -1    0    0    0    0  0.00000000000E+00  0.00000000000E+00  0.45593999997E+02  0.45594000000E+02  0.51100000000E-03 0. -1.
         11   -1    0    0    0    0 -0.00000000000E+00 -0.00000000000E+00 -0.45593999997E+02  0.45594000000E+02  0.51100000000E-03 0.  1.
    9900012    2    1    2    0    0 -0.34839670348E+02  0.26714837782E+02  0.10081089518E+02  0.46142317038E+02  0.99999934051E+01 0.  0.
        -12    1    1    2    0    0  0.34839670348E+02 -0.26714837782E+02 -0.10081089518E+02  0.45045682962E+02  0.00000000000E+00 0.  1.
         11    1    3    3    0    0 -0.15164287924E+02  0.12237335959E+02  0.84643319068E+01  0.21245068475E+02  0.51100000000E-03 0. -1.
        -11    1    3    3    0    0 -0.17121663359E+01 -0.66354269256E-01 -0.13115150424E+00  0.17184636828E+01  0.51100000000E-03 0.  1.
         12    1    3    3    0    0 -0.17963216088E+02  0.14543856092E+02  0.17479091156E+01  0.23178784880E+02  0.00000000000E+00 0. -1.
</event>
<event>
 7    1  0.3708346E-009  0.4614232E+02  0.7816164E-02  0.1320468E+00
        -11   -1    0    0    0    0  0.00000000000E+00  0.00000000000E+00  0.45593999997E+02  0.45594000000E+02  0.51100000000E-03 0.  1.
         11   -1    0    0    0    0 -0.00000000000E+00 -0.00000000000E+00 -0.45593999997E+02  0.45594000000E+02  0.51100000000E-03 0. -1.
    9900012    2    1    2    0    0  0.26168435889E+02  0.25396383959E+02 -0.26445222902E+02  0.46142321301E+02  0.10000032282E+02 0.  0.
        -12    1    1    2    0    0 -0.26168435889E+02 -0.25396383959E+02  0.26445222902E+02  0.45045678699E+02  0.00000000000E+00 0.  1.
         11    1    3    3    0    0  0.12557509711E+01  0.25998855537E+00  0.35874974217E+00  0.13316178840E+01  0.51100000000E-03 0. -1.
        -11    1    3    3    0    0  0.10618496774E+01 -0.20484489507E+00 -0.51935358631E+00  0.11996726959E+01  0.51100000000E-03 0.  1.
         12    1    3    3    0    0  0.23850835240E+02  0.25341240299E+02 -0.26284619058E+02  0.43611030721E+02  0.00000000000E+00 0. -1.
</event>
<event>
 7    1  0.3708346E-009  0.4614232E+02  0.7816164E-02  0.1320468E+00
        -11   -1    0    0    0    0  0.00000000000E+00  0.00000000000E+00  0.45593999997E+02  0.45594000000E+02  0.51100000000E-03 0.  1.
         11   -1    0    0    0    0 -0.00000000000E+00 -0.00000000000E+00 -0.45593999997E+02  0.45594000000E+02  0.51100000000E-03 0. -1.
    9900012    2    1    2    0    0  0.69086332155E+01  0.54228714574E+01 -0.44181180934E+02  0.46142317672E+02  0.99999991840E+01 0.  0.
        -12    1    1    2    0    0 -0.69086332155E+01 -0.54228714574E+01  0.44181180934E+02  0.45045682328E+02  0.00000000000E+00 0.  1.
         11    1    3    3    0    0  0.19333130069E+01 -0.19530026439E+01 -0.15691501461E+02  0.15930321305E+02  0.51100000000E-03 0. -1.
        -11    1    3    3    0    0  0.49904630732E+01  0.53919060522E+01 -0.26056425820E+02  0.27072397370E+02  0.51100000000E-03 0.  1.
         12    1    3    3    0    0 -0.15142864693E-01  0.19839680492E+01 -0.24332536523E+01  0.31395989972E+01  0.00000000000E+00 0. -1.
</event>
<event>
 7    1  0.3708346E-009  0.4614232E+02  0.7816164E-02  0.1320468E+00
        -11   -1    0    0    0    0  0.00000000000E+00  0.00000000000E+00  0.45593999997E+02  0.45594000000E+02  0.51100000000E-03 0.  1.
         11   -1    0    0    0    0 -0.00000000000E+00 -0.00000000000E+00 -0.45593999997E+02  0.45594000000E+02  0.51100000000E-03 0. -1.
    9900012    2    1    2    0    0  0.11473532711E+02  0.15873388555E+02 -0.40564850762E+02  0.46142317249E+02  0.99999953328E+01 0.  0.
        -12    1    1    2    0    0 -0.11473532711E+02 -0.15873388555E+02  0.40564850762E+02  0.45045682751E+02  0.00000000000E+00 0.  1.
         11    1    3    3    0    0 -0.73961134210E+00  0.29795101180E+01 -0.25322639116E+01  0.39795560380E+01  0.51100000000E-03 0. -1.
        -11    1    3    3    0    0  0.69671482381E+01  0.45071914963E+01 -0.16681611666E+02  0.18631481364E+02  0.51100000000E-03 0.  1.
         12    1    3    3    0    0  0.52459958152E+01  0.83866869409E+01 -0.21350975185E+02  0.23531279848E+02  0.00000000000E+00 0. -1.
</event>
<event>
 7    1  0.3708346E-009  0.4614232E+02  0.7816164E-02  0.1320468E+00
        -11   -1    0    0    0    0  0.00000000000E+00  0.00000000000E+00  0.45593999997E+02  0.45594000000E+02  0.51100000000E-03 0. -1.
         11   -1    0    0    0    0 -0.00000000000E+00 -0.00000000000E+00 -0.45593999997E+02  0.45594000000E+02  0.51100000000E-03 0.  1.
    9900012    2    1    2    0    0 -0.19361006267E+02  0.40521322701E+02  0.35053202637E+01  0.46142318440E+02  0.10000006187E+02 0.  0.
        -12    1    1    2    0    0  0.19361006267E+02 -0.40521322701E+02 -0.35053202637E+01  0.45045681560E+02  0.00000000000E+00 0.  1.
         11    1    3    3    0    0 -0.15509180478E+01  0.42178037222E+01  0.43355270747E+00  0.45147738860E+01  0.51100000000E-03 0. -1.
        -11    1    3    3    0    0 -0.13856657469E+02  0.17682793228E+02  0.11435396300E+01  0.22494350751E+02  0.51100000000E-03 0.  1.
        -12    1    3    3    0    0 -0.39534307511E+01  0.18620725750E+02  0.19282279262E+01  0.19133193803E+02  0.00000000000E+00 0.  1.
</event>
<event>
 7    1  0.3708346E-009  0.4614232E+02  0.7816164E-02  0.1320468E+00
        -11   -1    0    0    0    0  0.00000000000E+00  0.00000000000E+00  0.45593999997E+02  0.45594000000E+02  0.51100000000E-03 0. -1.
         11   -1    0    0    0    0 -0.00000000000E+00 -0.00000000000E+00 -0.45593999997E+02  0.45594000000E+02  0.51100000000E-03 0.  1.
    9900012    2    1    2    0    0  0.15867306752E+02 -0.36596543855E+02  0.20929285629E+02  0.46142318269E+02  0.10000004632E+02 0.  0.
        -12    1    1    2    0    0 -0.15867306752E+02  0.36596543855E+02 -0.20929285629E+02  0.45045681731E+02  0.00000000000E+00 0.  1.
         11    1    3    3    0    0  0.65726164993E+01 -0.96700106343E+01  0.10621966704E+02  0.15796663263E+02  0.51100000000E-03 0. -1.
        -11    1    3    3    0    0  0.50965663854E+01 -0.17398011359E+02  0.65282236702E+01  0.19268717984E+02  0.51100000000E-03 0.  1.
         12    1    3    3    0    0  0.41981238671E+01 -0.95285218614E+01  0.37790952546E+01  0.11076937023E+02  0.00000000000E+00 0. -1.
</event>
<event>
 7    1  0.3708346E-009  0.4614231E+02  0.7816164E-02  0.1320468E+00
        -11   -1    0    0    0    0  0.00000000000E+00  0.00000000000E+00  0.45593999997E+02  0.45594000000E+02  0.51100000000E-03 0.  1.
         11   -1    0    0    0    0 -0.00000000000E+00 -0.00000000000E+00 -0.45593999997E+02  0.45594000000E+02  0.51100000000E-03 0. -1.
    9900012    2    1    2    0    0  0.14744164708E+02 -0.40898633384E+02 -0.11790893695E+02  0.46142314527E+02  0.99999705106E+01 0.  0.
        -12    1    1    2    0    0 -0.14744164708E+02  0.40898633384E+02  0.11790893695E+02  0.45045685473E+02  0.00000000000E+00 0.  1.
         11    1    3    3    0    0  0.14250885047E+01 -0.90031329126E+01  0.98971575882E+00  0.91687958332E+01  0.51100000000E-03 0.  1.
        -11    1    3    3    0    0  0.11101303325E+02 -0.23558510634E+02 -0.89973344317E+01  0.27553482283E+02  0.51100000000E-03 0. -1.
        -12    1    3    3    0    0  0.22177728784E+01 -0.83369898376E+01 -0.37832750217E+01  0.94200364109E+01  0.00000000000E+00 0.  1.
</event>
<event>
 7    1  0.3708346E-009  0.4614232E+02  0.7816164E-02  0.1320468E+00
        -11   -1    0    0    0    0  0.00000000000E+00  0.00000000000E+00  0.45593999997E+02  0.45594000000E+02  0.51100000000E-03 0.  1.
         11   -1    0    0    0    0 -0.00000000000E+00 -0.00000000000E+00 -0.45593999997E+02  0.45594000000E+02  0.51100000000E-03 0. -1.
    9900012    2    1    2    0    0 -0.15805727520E+02 -0.13283662773E+02 -0.40035446928E+02  0.46142315081E+02  0.99999755588E+01 0.  0.
        -12    1    1    2    0    0  0.15805727520E+02  0.13283662773E+02  0.40035446928E+02  0.45045684919E+02  0.00000000000E+00 0.  1.
         11    1    3    3    0    0 -0.28980758408E+01 -0.19666995242E+01 -0.42752699575E+01  0.55267245334E+01  0.51100000000E-03 0. -1.
        -11    1    3    3    0    0 -0.88597072665E+01 -0.11505146376E+02 -0.31756583647E+02  0.34919098086E+02  0.51100000000E-03 0.  1.
        -12    1    3    3    0    0 -0.40479444130E+01  0.18818312685E+00 -0.40035933240E+01  0.56964924615E+01  0.00000000000E+00 0.  1.
</event>
<event>
 7    1  0.3708346E-009  0.4614232E+02  0.7816164E-02  0.1320468E+00
        -11   -1    0    0    0    0  0.00000000000E+00  0.00000000000E+00  0.45593999997E+02  0.45594000000E+02  0.51100000000E-03 0.  1.
         11   -1    0    0    0    0 -0.00000000000E+00 -0.00000000000E+00 -0.45593999997E+02  0.45594000000E+02  0.51100000000E-03 0. -1.
    9900012    2    1    2    0    0 -0.23319781237E+01 -0.40866095036E+02 -0.18805254343E+02  0.46142318338E+02  0.10000005262E+02 0.  0.
        -12    1    1    2    0    0  0.23319781237E+01  0.40866095036E+02  0.18805254343E+02  0.45045681662E+02  0.00000000000E+00 0.  1.
         11    1    3    3    0    0 -0.16737184058E+01 -0.26428041377E+01 -0.33866032056E+01  0.46102959282E+01  0.51100000000E-03 0. -1.
        -11    1    3    3    0    0  0.10624139040E+01 -0.66103536019E+01 -0.11001729886E+01  0.67849744960E+01  0.51100000000E-03 0.  1.
         12    1    3    3    0    0 -0.17206736219E+01 -0.31612937297E+02 -0.14318478148E+02  0.34747047914E+02  0.00000000000E+00 0. -1.
</event>
<event>
 7    1  0.3708346E-009  0.4614232E+02  0.7816164E-02  0.1320468E+00
        -11   -1    0    0    0    0  0.00000000000E+00  0.00000000000E+00  0.45593999997E+02  0.45594000000E+02  0.51100000000E-03 0.  1.
         11   -1    0    0    0    0 -0.00000000000E+00 -0.00000000000E+00 -0.45593999997E+02  0.45594000000E+02  0.51100000000E-03 0. -1.
    9900012    2    1    2    0    0  0.91693004821E+01 -0.21015062296E+02 -0.38773760798E+02  0.46142318286E+02  0.10000004787E+02 0.  0.
        -12    1    1    2    0    0 -0.91693004821E+01  0.21015062296E+02  0.38773760798E+02  0.45045681714E+02  0.00000000000E+00 0.  1.
         11    1    3    3    0    0  0.42225588767E+01 -0.64186906068E+01 -0.98163538193E+01  0.12465568384E+02  0.51100000000E-03 0. -1.
        -11    1    3    3    0    0  0.25053573032E+01 -0.14370311144E+02 -0.23014422893E+02  0.27247868155E+02  0.51100000000E-03 0.  1.
         12    1    3    3    0    0  0.24413843022E+01 -0.22606054506E+00 -0.59429840853E+01  0.64288817472E+01  0.00000000000E+00 0. -1.
</event>
<event>
 7    1  0.3708346E-009  0.4614232E+02  0.7816164E-02  0.1320468E+00
        -11   -1    0    0    0    0  0.00000000000E+00  0.00000000000E+00  0.45593999997E+02  0.45594000000E+02  0.51100000000E-03 0.  1.
         11   -1    0    0    0    0 -0.00000000000E+00 -0.00000000000E+00 -0.45593999997E+02  0.45594000000E+02  0.51100000000E-03 0. -1.
    9900012    2    1    2    0    0  0.91552094669E+01 -0.34344874243E+02 -0.27671740509E+02  0.46142317966E+02  0.10000001864E+02 0.  0.
        -12    1    1    2    0    0 -0.91552094669E+01  0.34344874243E+02  0.27671740509E+02  0.45045682034E+02  0.00000000000E+00 0.  1.
         11    1    3    3    0    0  0.17145678274E+01 -0.35491676617E+01 -0.55845700561E+01  0.68354778105E+01  0.51100000000E-03 0. -1.
        -11    1    3    3    0    0 -0.10251433020E+01 -0.78200884973E+01 -0.38543553883E+01  0.87784257481E+01  0.51100000000E-03 0.  1.
         12    1    3    3    0    0  0.84657849415E+01 -0.22975618084E+02 -0.18232815065E+02  0.30528414407E+02  0.00000000000E+00 0. -1.
</event>
<event>
 7    1  0.3708346E-009  0.4614232E+02  0.7816164E-02  0.1320468E+00
        -11   -1    0    0    0    0  0.00000000000E+00  0.00000000000E+00  0.45593999997E+02  0.45594000000E+02  0.51100000000E-03 0.  1.
         11   -1    0    0    0    0 -0.00000000000E+00 -0.00000000000E+00 -0.45593999997E+02  0.45594000000E+02  0.51100000000E-03 0. -1.
    9900012    2    1    2    0    0  0.42781282743E+02 -0.10307849081E+02 -0.96241200392E+01  0.46142316607E+02  0.99999894768E+01 0.  0.
        -12    1    1    2    0    0 -0.42781282743E+02  0.10307849081E+02  0.96241200392E+01  0.45045683393E+02  0.00000000000E+00 0.  1.
         11    1    3    3    0    0  0.16551738717E+02 -0.42551218258E+01 -0.43608609706E+00  0.17095504896E+02  0.51100000000E-03 0. -1.
        -11    1    3    3    0    0  0.13799390305E+02 -0.60243329526E+01 -0.40152492904E+01  0.15583259846E+02  0.51100000000E-03 0.  1.
         12    1    3    3    0    0  0.12430153721E+02 -0.28394303084E-01 -0.51727846517E+01  0.13463551865E+02  0.00000000000E+00 0. -1.
</event>
<event>
 7    1  0.3708346E-009  0.4614232E+02  0.7816164E-02  0.1320468E+00
        -11   -1    0    0    0    0  0.00000000000E+00  0.00000000000E+00  0.45593999997E+02  0.45594000000E+02  0.51100000000E-03 0.  1.
         11   -1    0    0    0    0 -0.00000000000E+00 -0.00000000000E+00 -0.45593999997E+02  0.45594000000E+02  0.51100000000E-03 0. -1.
    9900012    2    1    2    0    0 -0.22308780018E+02 -0.33166679665E+02 -0.20770248257E+02  0.46142317426E+02  0.99999969422E+01 0.  0.
        -12    1    1    2    0    0  0.22308780018E+02  0.33166679665E+02  0.20770248257E+02  0.45045682574E+02  0.00000000000E+00 0.  1.
         11    1    3    3    0    0 -0.12487814590E+02 -0.18141437926E+02 -0.13714501477E+02  0.25945034868E+02  0.51100000000E-03 0. -1.
        -11    1    3    3    0    0  0.31805065496E+00 -0.36911768007E+00 -0.14273719758E+01  0.15082423875E+01  0.51100000000E-03 0.  1.
        -12    1    3    3    0    0 -0.10139016083E+02 -0.14656124059E+02 -0.56283748049E+01  0.18689040171E+02  0.00000000000E+00 0.  1.
</event>
<event>
 7    1  0.3708346E-009  0.4614232E+02  0.7816164E-02  0.1320468E+00
        -11   -1    0    0    0    0  0.00000000000E+00  0.00000000000E+00  0.45593999997E+02  0.45594000000E+02  0.51100000000E-03 0.  1.
         11   -1    0    0    0    0 -0.00000000000E+00 -0.00000000000E+00 -0.45593999997E+02  0.45594000000E+02  0.51100000000E-03 0. -1.
    9900012    2    1    2    0    0 -0.38494124472E+02 -0.53855492013E+01 -0.22766460426E+02  0.46142317861E+02  0.10000000909E+02 0.  0.
        -12    1    1    2    0    0  0.38494124472E+02  0.53855492013E+01  0.22766460426E+02  0.45045682139E+02  0.00000000000E+00 0.  1.
         11    1    3    3    0    0 -0.21622382818E+02 -0.23641169202E+00 -0.13402186562E+02  0.25440163799E+02  0.51100000000E-03 0. -1.
        -11    1    3    3    0    0 -0.18232399782E+01 -0.13525197565E+01 -0.33730998373E+01  0.40658721676E+01  0.51100000000E-03 0.  1.
        -12    1    3    3    0    0 -0.15048501675E+02 -0.37966177527E+01 -0.59911740268E+01  0.16636281894E+02  0.00000000000E+00 0.  1.
</event>
<event>
 7    1  0.3708346E-009  0.4614232E+02  0.7816164E-02  0.1320468E+00
        -11   -1    0    0    0    0  0.00000000000E+00  0.00000000000E+00  0.45593999997E+02  0.45594000000E+02  0.51100000000E-03 0. -1.
         11   -1    0    0    0    0 -0.00000000000E+00 -0.00000000000E+00 -0.45593999997E+02  0.45594000000E+02  0.51100000000E-03 0.  1.
    9900012    2    1    2    0    0 -0.77498135817E+01 -0.38811289798E+02  0.21511326889E+02  0.46142323061E+02  0.10000048332E+02 0.  0.
        -12    1    1    2    0    0  0.77498135817E+01  0.38811289798E+02 -0.21511326889E+02  0.45045676939E+02  0.00000000000E+00 0.  1.
         11    1    3    3    0    0 -0.37121588818E+01 -0.15617786824E+02  0.96434040093E+01  0.18726735701E+02  0.51100000000E-03 0. -1.
        -11    1    3    3    0    0 -0.36651676803E+01 -0.20849236039E+02  0.12940428675E+02  0.24810860366E+02  0.51100000000E-03 0.  1.
        -12    1    3    3    0    0 -0.37248701969E+00 -0.23442669345E+01 -0.10725057947E+01  0.26047269953E+01  0.00000000000E+00 0.  1.
</event>
<event>
 7    1  0.3708346E-009  0.4614232E+02  0.7816164E-02  0.1320468E+00
        -11   -1    0    0    0    0  0.00000000000E+00  0.00000000000E+00  0.45593999997E+02  0.45594000000E+02  0.51100000000E-03 0.  1.
         11   -1    0    0    0    0 -0.00000000000E+00 -0.00000000000E+00 -0.45593999997E+02  0.45594000000E+02  0.51100000000E-03 0. -1.
    9900012    2    1    2    0    0  0.37372235603E+02 -0.62609926123E+01 -0.24356303455E+02  0.46142317183E+02  0.99999947300E+01 0.  0.
        -12    1    1    2    0    0 -0.37372235603E+02  0.62609926123E+01  0.24356303455E+02  0.45045682817E+02  0.00000000000E+00 0.  1.
         11    1    3    3    0    0  0.20284524859E+01  0.11702076416E+01 -0.17645195224E+01  0.29321553195E+01  0.51100000000E-03 0. -1.
        -11    1    3    3    0    0  0.23293687529E+02 -0.78800916057E+01 -0.13086879824E+02  0.27856025313E+02  0.51100000000E-03 0.  1.
        -12    1    3    3    0    0  0.12050095588E+02  0.44889135179E+00 -0.95049041085E+01  0.15354136551E+02  0.00000000000E+00 0.  1.
</event>
<event>
 7    1  0.3708346E-009  0.4614232E+02  0.7816164E-02  0.1320468E+00
        -11   -1    0    0    0    0  0.00000000000E+00  0.00000000000E+00  0.45593999997E+02  0.45594000000E+02  0.51100000000E-03 0. -1.
         11   -1    0    0    0    0 -0.00000000000E+00 -0.00000000000E+00 -0.45593999997E+02  0.45594000000E+02  0.51100000000E-03 0.  1.
    9900012    2    1    2    0    0 -0.31406398177E+02  0.22922373403E+02  0.22744591132E+02  0.46142317914E+02  0.10000001393E+02 0.  0.
        -12    1    1    2    0    0  0.31406398177E+02 -0.22922373403E+02 -0.22744591132E+02  0.45045682086E+02  0.00000000000E+00 0.  1.
         11    1    3    3    0    0 -0.16328882048E+02  0.10358301415E+02  0.62246178452E+01  0.20314346278E+02  0.51100000000E-03 0. -1.
        -11    1    3    3    0    0 -0.82717718638E+01  0.72238689670E+01  0.73111100548E+01  0.13193135454E+02  0.51100000000E-03 0.  1.
         12    1    3    3    0    0 -0.68057442650E+01  0.53402030209E+01  0.92088632316E+01  0.12634836181E+02  0.00000000000E+00 0. -1.
</event>
<event>
 7    1  0.3708346E-009  0.4614232E+02  0.7816164E-02  0.1320468E+00
        -11   -1    0    0    0    0  0.00000000000E+00  0.00000000000E+00  0.45593999997E+02  0.45594000000E+02  0.51100000000E-03 0. -1.
         11   -1    0    0    0    0 -0.00000000000E+00 -0.00000000000E+00 -0.45593999997E+02  0.45594000000E+02  0.51100000000E-03 0.  1.
    9900012    2    1    2    0    0  0.11479663945E+01  0.25465367003E+01  0.44958989874E+02  0.46142318226E+02  0.10000004239E+02 0.  0.
        -12    1    1    2    0    0 -0.11479663945E+01 -0.25465367003E+01 -0.44958989874E+02  0.45045681774E+02  0.00000000000E+00 0.  1.
         11    1    3    3    0    0 -0.28982604821E+01 -0.26175503808E+00  0.75717799587E+01  0.81117372693E+01  0.51100000000E-03 0. -1.
        -11    1    3    3    0    0  0.50591642978E+01  0.17347465017E+01  0.25705465649E+02  0.26255960339E+02  0.51100000000E-03 0.  1.
         12    1    3    3    0    0 -0.10129374212E+01  0.10735452367E+01  0.11681744266E+02  0.11774620618E+02  0.00000000000E+00 0. -1.
</event>
<event>
 7    1  0.3708346E-009  0.4614233E+02  0.7816164E-02  0.1320468E+00
        -11   -1    0    0    0    0  0.00000000000E+00  0.00000000000E+00  0.45593999997E+02  0.45594000000E+02  0.51100000000E-03 0.  1.
         11   -1    0    0    0    0 -0.00000000000E+00 -0.00000000000E+00 -0.45593999997E+02  0.45594000000E+02  0.51100000000E-03 0. -1.
    9900012    2    1    2    0    0  0.22133240509E+02 -0.14364280823E+02 -0.36508900781E+02  0.46142326121E+02  0.10000076231E+02 0.  0.
        -12    1    1    2    0    0 -0.22133240509E+02  0.14364280823E+02  0.36508900781E+02  0.45045673879E+02  0.00000000000E+00 0.  1.
         11    1    3    3    0    0  0.18784256172E+01 -0.24886367401E+01 -0.11406326770E+01  0.33200660819E+01  0.51100000000E-03 0.  1.
        -11    1    3    3    0    0  0.76878591111E+01 -0.60266360263E+01 -0.10426993228E+02  0.14287956731E+02  0.51100000000E-03 0. -1.
         12    1    3    3    0    0  0.12566955780E+02 -0.58490080568E+01 -0.24941274876E+02  0.28534303308E+02  0.00000000000E+00 0. -1.
</event>
<event>
 7    1  0.3708346E-009  0.4614232E+02  0.7816164E-02  0.1320468E+00
        -11   -1    0    0    0    0  0.00000000000E+00  0.00000000000E+00  0.45593999997E+02  0.45594000000E+02  0.51100000000E-03 0. -1.
         11   -1    0    0    0    0 -0.00000000000E+00 -0.00000000000E+00 -0.45593999997E+02  0.45594000000E+02  0.51100000000E-03 0.  1.
    9900012    2    1    2    0    0  0.42335487359E+02  0.44251946779E+01  0.14738983722E+02  0.46142317865E+02  0.10000000944E+02 0.  0.
        -12    1    1    2    0    0 -0.42335487359E+02 -0.44251946779E+01 -0.14738983722E+02  0.45045682135E+02  0.00000000000E+00 0.  1.
         11    1    3    3    0    0  0.27457731332E+02  0.62800718762E+01  0.77269762929E+01  0.29207404465E+02  0.51100000000E-03 0. -1.
        -11    1    3    3    0    0  0.46660263054E+01  0.10085843656E+00  0.56542935679E+00  0.47012428703E+01  0.51100000000E-03 0.  1.
         12    1    3    3    0    0  0.10211729722E+02 -0.19557356349E+01  0.64465780721E+01  0.12233670530E+02  0.00000000000E+00 0. -1.
</event>
<event>
 7    1  0.3708346E-009  0.4614232E+02  0.7816164E-02  0.1320468E+00
        -11   -1    0    0    0    0  0.00000000000E+00  0.00000000000E+00  0.45593999997E+02  0.45594000000E+02  0.51100000000E-03 0.  1.
         11   -1    0    0    0    0 -0.00000000000E+00 -0.00000000000E+00 -0.45593999997E+02  0.45594000000E+02  0.51100000000E-03 0. -1.
    9900012    2    1    2    0    0  0.38865958109E+02 -0.85377400414E+01 -0.21110604612E+02  0.46142319499E+02  0.10000015847E+02 0.  0.
        -12    1    1    2    0    0 -0.38865958109E+02  0.85377400414E+01  0.21110604612E+02  0.45045680501E+02  0.00000000000E+00 0.  1.
         11    1    3    3    0    0  0.10957573925E+02 -0.38370387485E+00 -0.79686048848E+01  0.13554125536E+02  0.51100000000E-03 0. -1.
        -11    1    3    3    0    0  0.95092415143E+01 -0.48326210354E+01 -0.20906703131E+01  0.10869719540E+02  0.51100000000E-03 0.  1.
        -12    1    3    3    0    0  0.18399142670E+02 -0.33214151311E+01 -0.11051329414E+02  0.21718474423E+02  0.00000000000E+00 0.  1.
</event>
<event>
 7    1  0.3708346E-009  0.4614232E+02  0.7816164E-02  0.1320468E+00
        -11   -1    0    0    0    0  0.00000000000E+00  0.00000000000E+00  0.45593999997E+02  0.45594000000E+02  0.51100000000E-03 0.  1.
         11   -1    0    0    0    0 -0.00000000000E+00 -0.00000000000E+00 -0.45593999997E+02  0.45594000000E+02  0.51100000000E-03 0. -1.
    9900012    2    1    2    0    0  0.34408002146E+02 -0.62818526038E+00 -0.29065584644E+02  0.46142318308E+02  0.10000004986E+02 0.  0.
        -12    1    1    2    0    0 -0.34408002146E+02  0.62818526038E+00  0.29065584644E+02  0.45045681692E+02  0.00000000000E+00 0.  1.
         11    1    3    3    0    0  0.26083079600E+02 -0.28858019082E+01 -0.22409716500E+02  0.34508698729E+02  0.51100000000E-03 0. -1.
        -11    1    3    3    0    0  0.25137845176E+01  0.37197105940E+00  0.76656249734E-01  0.25423122373E+01  0.51100000000E-03 0.  1.
         12    1    3    3    0    0  0.58111380282E+01  0.18856455884E+01 -0.67325243941E+01  0.90913073419E+01  0.00000000000E+00 0. -1.
</event>
<event>
 7    1  0.3708346E-009  0.4614232E+02  0.7816164E-02  0.1320468E+00
        -11   -1    0    0    0    0  0.00000000000E+00  0.00000000000E+00  0.45593999997E+02  0.45594000000E+02  0.51100000000E-03 0.  1.
         11   -1    0    0    0    0 -0.00000000000E+00 -0.00000000000E+00 -0.45593999997E+02  0.45594000000E+02  0.51100000000E-03 0. -1.
    9900012    2    1    2    0    0 -0.33289603927E+02 -0.13063572321E+02 -0.27390853646E+02  0.46142317466E+02  0.99999973125E+01 0.  0.
        -12    1    1    2    0    0  0.33289603927E+02  0.13063572321E+02  0.27390853646E+02  0.45045682534E+02  0.00000000000E+00 0.  1.
         11    1    3    3    0    0 -0.94606361031E+01 -0.36546168593E+01 -0.98120249170E+01  0.14111544674E+02  0.51100000000E-03 0. -1.
        -11    1    3    3    0    0 -0.15981048588E+02 -0.62490749569E+01 -0.71183629125E+01  0.18577296429E+02  0.51100000000E-03 0.  1.
        -12    1    3    3    0    0 -0.78479192362E+01 -0.31598805051E+01 -0.10460465817E+02  0.13453476363E+02  0.00000000000E+00 0.  1.
</event>
<event>
 7    1  0.3708346E-009  0.4614231E+02  0.7816164E-02  0.1320468E+00
        -11   -1    0    0    0    0  0.00000000000E+00  0.00000000000E+00  0.45593999997E+02  0.45594000000E+02  0.51100000000E-03 0.  1.
         11   -1    0    0    0    0 -0.00000000000E+00 -0.00000000000E+00 -0.45593999997E+02  0.45594000000E+02  0.51100000000E-03 0. -1.
    9900012    2    1    2    0    0 -0.88280844338E+01 -0.14338353817E+02 -0.41780262179E+02  0.46142314605E+02  0.99999712174E+01 0.  0.
        -12    1    1    2    0    0  0.88280844338E+01  0.14338353817E+02  0.41780262179E+02  0.45045685395E+02  0.00000000000E+00 0.  1.
         11    1    3    3    0    0 -0.21230387699E+01 -0.53408475049E+01 -0.71214237898E+01  0.91513180879E+01  0.51100000000E-03 0. -1.
        -11    1    3    3    0    0 -0.14998281834E+00 -0.54746121430E+01 -0.14043617044E+02  0.15073720606E+02  0.51100000000E-03 0.  1.
         12    1    3    3    0    0 -0.65550628455E+01 -0.35228941692E+01 -0.20615221345E+02  0.21917275911E+02  0.00000000000E+00 0. -1.
</event>
<event>
 7    1  0.3708346E-009  0.4614232E+02  0.7816164E-02  0.1320468E+00
        -11   -1    0    0    0    0  0.00000000000E+00  0.00000000000E+00  0.45593999997E+02  0.45594000000E+02  0.51100000000E-03 0.  1.
         11   -1    0    0    0    0 -0.00000000000E+00 -0.00000000000E+00 -0.45593999997E+02  0.45594000000E+02  0.51100000000E-03 0. -1.
    9900012    2    1    2    0    0  0.10498008643E+02  0.25295931173E+02 -0.35763405507E+02  0.46142317711E+02  0.99999995473E+01 0.  0.
        -12    1    1    2    0    0 -0.10498008643E+02 -0.25295931173E+02  0.35763405507E+02  0.45045682289E+02  0.00000000000E+00 0.  1.
         11    1    3    3    0    0  0.28253936239E+01  0.50447646134E+01 -0.73989972992E+01  0.93902960779E+01  0.51100000000E-03 0. -1.
        -11    1    3    3    0    0  0.55601943856E+01  0.20172016601E+02 -0.23603116082E+02  0.31542560207E+02  0.51100000000E-03 0.  1.
        -12    1    3    3    0    0  0.21124206338E+01  0.79149958424E-01 -0.47612921258E+01  0.52094614268E+01  0.00000000000E+00 0.  1.
</event>
<event>
 7    1  0.3708346E-009  0.4614233E+02  0.7816164E-02  0.1320468E+00
        -11   -1    0    0    0    0  0.00000000000E+00  0.00000000000E+00  0.45593999997E+02  0.45594000000E+02  0.51100000000E-03 0. -1.
         11   -1    0    0    0    0 -0.00000000000E+00 -0.00000000000E+00 -0.45593999997E+02  0.45594000000E+02  0.51100000000E-03 0.  1.
    9900012    2    1    2    0    0 -0.28149271428E+02 -0.28237411397E+02  0.20961377622E+02  0.46142331661E+02  0.10000126747E+02 0.  0.
        -12    1    1    2    0    0  0.28149271428E+02  0.28237411397E+02 -0.20961377622E+02  0.45045668339E+02  0.00000000000E+00 0.  1.
         11    1    3    3    0    0 -0.10498682733E+02 -0.71113478050E+01  0.96558736311E+01  0.15938303002E+02  0.51100000000E-03 0. -1.
        -11    1    3    3    0    0 -0.17096806480E+02 -0.21201275280E+02  0.11562854367E+02  0.29588755747E+02  0.51100000000E-03 0.  1.
        -12    1    3    3    0    0 -0.55378221496E+00  0.75211688101E-01 -0.25735037612E+00  0.61527291158E+00  0.00000000000E+00 0.  1.
</event>
<event>
 7    1  0.3708346E-009  0.4614231E+02  0.7816164E-02  0.1320468E+00
        -11   -1    0    0    0    0  0.00000000000E+00  0.00000000000E+00  0.45593999997E+02  0.45594000000E+02  0.51100000000E-03 0.  1.
         11   -1    0    0    0    0 -0.00000000000E+00 -0.00000000000E+00 -0.45593999997E+02  0.45594000000E+02  0.51100000000E-03 0. -1.
    9900012    2    1    2    0    0  0.48443590701E+01  0.10748489884E+01 -0.44771538277E+02  0.46142314803E+02  0.99999730252E+01 0.  0.
        -12    1    1    2    0    0 -0.48443590701E+01 -0.10748489884E+01  0.44771538277E+02  0.45045685197E+02  0.00000000000E+00 0.  1.
         11    1    3    3    0    0 -0.58045913053E+00  0.19033070045E+01 -0.72947839963E+01  0.75613083636E+01  0.51100000000E-03 0. -1.
        -11    1    3    3    0    0  0.37338044505E+01  0.23539284086E+01 -0.29494659980E+02  0.29823099138E+02  0.51100000000E-03 0.  1.
        -12    1    3    3    0    0  0.16910137501E+01 -0.31823864248E+01 -0.79820943013E+01  0.87579073010E+01  0.00000000000E+00 0.  1.
</event>
<event>
 7    1  0.3708346E-009  0.4614232E+02  0.7816164E-02  0.1320468E+00
        -11   -1    0    0    0    0  0.00000000000E+00  0.00000000000E+00  0.45593999997E+02  0.45594000000E+02  0.51100000000E-03 0.  1.
         11   -1    0    0    0    0 -0.00000000000E+00 -0.00000000000E+00 -0.45593999997E+02  0.45594000000E+02  0.51100000000E-03 0. -1.
    9900012    2    1    2    0    0  0.36703170067E+01  0.34801363902E+02 -0.28363839161E+02  0.46142317318E+02  0.99999959562E+01 0.  0.
        -12    1    1    2    0    0 -0.36703170067E+01 -0.34801363902E+02  0.28363839161E+02  0.45045682682E+02  0.00000000000E+00 0.  1.
         11    1    3    3    0    0  0.44013144448E+01  0.11727334437E+02 -0.98827997509E+01  0.15955302348E+02  0.51100000000E-03 0. -1.
        -11    1    3    3    0    0 -0.22631714559E+01  0.63827668473E+01 -0.77160348568E+01  0.10266394296E+02  0.51100000000E-03 0.  1.
         12    1    3    3    0    0  0.15321740178E+01  0.16691262618E+02 -0.10765004553E+02  0.19920620674E+02  0.00000000000E+00 0. -1.
</event>
<event>
 7    1  0.3708346E-009  0.4614232E+02  0.7816164E-02  0.1320468E+00
        -11   -1    0    0    0    0  0.00000000000E+00  0.00000000000E+00  0.45593999997E+02  0.45594000000E+02  0.51100000000E-03 0.  1.
         11   -1    0    0    0    0 -0.00000000000E+00 -0.00000000000E+00 -0.45593999997E+02  0.45594000000E+02  0.51100000000E-03 0. -1.
    9900012    2    1    2    0    0  0.40697314716E+02 -0.19598710510E+01 -0.19209397963E+02  0.46142317746E+02  0.99999998640E+01 0.  0.
        -12    1    1    2    0    0 -0.40697314716E+02  0.19598710510E+01  0.19209397963E+02  0.45045682254E+02  0.00000000000E+00 0.  1.
         11    1    3    3    0    0  0.78111592894E+01  0.16356452015E+01 -0.38753617718E+01  0.88717514502E+01  0.51100000000E-03 0. -1.
        -11    1    3    3    0    0  0.24758932641E+02 -0.35459338754E+01 -0.78295505926E+01  0.26208400472E+02  0.51100000000E-03 0.  1.
        -12    1    3    3    0    0  0.81272227853E+01 -0.49582377082E-01 -0.75044855984E+01  0.11062165824E+02  0.00000000000E+00 0.  1.
</event>
<event>
 7    1  0.3708346E-009  0.4614231E+02  0.7816164E-02  0.1320468E+00
        -11   -1    0    0    0    0  0.00000000000E+00  0.00000000000E+00  0.45593999997E+02  0.45594000000E+02  0.51100000000E-03 0. -1.
         11   -1    0    0    0    0 -0.00000000000E+00 -0.00000000000E+00 -0.45593999997E+02  0.45594000000E+02  0.51100000000E-03 0.  1.
    9900012    2    1    2    0    0 -0.12643738132E+02  0.39951190068E+02  0.16527314756E+02  0.46142313915E+02  0.99999649301E+01 0.  0.
        -12    1    1    2    0    0  0.12643738132E+02 -0.39951190068E+02 -0.16527314756E+02  0.45045686085E+02  0.00000000000E+00 0.  1.
         11    1    3    3    0    0 -0.26808841505E+01  0.62073430109E+01  0.46133871150E+01  0.81854497749E+01  0.51100000000E-03 0. -1.
        -11    1    3    3    0    0 -0.59592420396E+01  0.29652740910E+02  0.10861626367E+02  0.32136778569E+02  0.51100000000E-03 0.  1.
        -12    1    3    3    0    0 -0.40036119423E+01  0.40911061468E+01  0.10523012734E+01  0.58200855715E+01  0.00000000000E+00 0.  1.
</event>
<event>
 7    1  0.3708346E-009  0.4614232E+02  0.7816164E-02  0.1320468E+00
        -11   -1    0    0    0    0  0.00000000000E+00  0.00000000000E+00  0.45593999997E+02  0.45594000000E+02  0.51100000000E-03 0.  1.
         11   -1    0    0    0    0 -0.00000000000E+00 -0.00000000000E+00 -0.45593999997E+02  0.45594000000E+02  0.51100000000E-03 0. -1.
    9900012    2    1    2    0    0  0.41861072970E+02 -0.58325709375E+01 -0.15580278568E+02  0.46142318806E+02  0.10000009531E+02 0.  0.
        -12    1    1    2    0    0 -0.41861072970E+02  0.58325709375E+01  0.15580278568E+02  0.45045681194E+02  0.00000000000E+00 0.  1.
         11    1    3    3    0    0  0.26376227395E+02 -0.20536807174E+01 -0.93985080092E+01  0.28075878066E+02  0.51100000000E-03 0. -1.
        -11    1    3    3    0    0  0.98113209801E+01 -0.48430700707E+01 -0.25119151311E+01  0.11226177665E+02  0.51100000000E-03 0.  1.
         12    1    3    3    0    0  0.56735245946E+01  0.10641798506E+01 -0.36698554281E+01  0.68402630756E+01  0.00000000000E+00 0. -1.
</event>
<event>
 7    1  0.3708346E-009  0.4614232E+02  0.7816164E-02  0.1320468E+00
        -11   -1    0    0    0    0  0.00000000000E+00  0.00000000000E+00  0.45593999997E+02  0.45594000000E+02  0.51100000000E-03 0.  1.
         11   -1    0    0    0    0 -0.00000000000E+00 -0.00000000000E+00 -0.45593999997E+02  0.45594000000E+02  0.51100000000E-03 0. -1.
    9900012    2    1    2    0    0  0.20228246855E+01  0.35911045494E+02 -0.27118597790E+02  0.46142319250E+02  0.10000013575E+02 0.  0.
        -12    1    1    2    0    0 -0.20228246855E+01 -0.35911045494E+02  0.27118597790E+02  0.45045680750E+02  0.00000000000E+00 0.  1.
         11    1    3    3    0    0  0.17359076981E+01  0.26802289532E+02 -0.19025425842E+02  0.32914175190E+02  0.51100000000E-03 0. -1.
        -11    1    3    3    0    0 -0.14975194929E+01  0.84135445556E+01 -0.67247698780E+01  0.10874411561E+02  0.51100000000E-03 0.  1.
         12    1    3    3    0    0  0.17844364804E+01  0.69521140576E+00 -0.13684020696E+01  0.23537324987E+01  0.00000000000E+00 0. -1.
</event>
<event>
 7    1  0.3708346E-009  0.4614232E+02  0.7816164E-02  0.1320468E+00
        -11   -1    0    0    0    0  0.00000000000E+00  0.00000000000E+00  0.45593999997E+02  0.45594000000E+02  0.51100000000E-03 0. -1.
         11   -1    0    0    0    0 -0.00000000000E+00 -0.00000000000E+00 -0.45593999997E+02  0.45594000000E+02  0.51100000000E-03 0.  1.
    9900012    2    1    2    0    0 -0.42464277851E+01  0.18846833488E+02  0.40692483164E+02  0.46142317993E+02  0.10000002113E+02 0.  0.
        -12    1    1    2    0    0  0.42464277851E+01 -0.18846833488E+02 -0.40692483164E+02  0.45045682007E+02  0.00000000000E+00 0.  1.
         11    1    3    3    0    0  0.13091035406E+01  0.72437135415E+01  0.14000649550E+02  0.15817816728E+02  0.51100000000E-03 0. -1.
        -11    1    3    3    0    0 -0.12754244082E-01  0.26147000320E+01  0.11688919159E+02  0.11977798224E+02  0.51100000000E-03 0.  1.
         12    1    3    3    0    0 -0.55427770816E+01  0.89884199144E+01  0.15002914455E+02  0.18346703041E+02  0.00000000000E+00 0. -1.
</event>
<event>
 7    1  0.3708346E-009  0.4614232E+02  0.7816164E-02  0.1320468E+00
        -11   -1    0    0    0    0  0.00000000000E+00  0.00000000000E+00  0.45593999997E+02  0.45594000000E+02  0.51100000000E-03 0.  1.
         11   -1    0    0    0    0 -0.00000000000E+00 -0.00000000000E+00 -0.45593999997E+02  0.45594000000E+02  0.51100000000E-03 0. -1.
    9900012    2    1    2    0    0 -0.33170226950E+01 -0.44600519911E+02 -0.53762694183E+01  0.46142319976E+02  0.10000020201E+02 0.  0.
        -12    1    1    2    0    0  0.33170226950E+01  0.44600519911E+02  0.53762694183E+01  0.45045680024E+02  0.00000000000E+00 0.  1.
         11    1    3    3    0    0  0.13678374224E+01 -0.16514759263E+02  0.14618186848E+01  0.16635659496E+02  0.51100000000E-03 0. -1.
        -11    1    3    3    0    0 -0.92244023981E-01 -0.58228961097E+01 -0.20585100950E+00  0.58272637630E+01  0.51100000000E-03 0.  1.
         12    1    3    3    0    0 -0.45926160934E+01 -0.22262864538E+02 -0.66322370937E+01  0.23679396717E+02  0.00000000000E+00 0. -1.
</event>
<event>
 7    1  0.3708346E-009  0.4614232E+02  0.7816164E-02  0.1320468E+00
        -11   -1    0    0    0    0  0.00000000000E+00  0.00000000000E+00  0.45593999997E+02  0.45594000000E+02  0.51100000000E-03 0.  1.
         11   -1    0    0    0    0 -0.00000000000E+00 -0.00000000000E+00 -0.45593999997E+02  0.45594000000E+02  0.51100000000E-03 0. -1.
    9900012    2    1    2    0    0  0.64646205742E+01 -0.78193458142E+01 -0.43888267584E+02  0.46142317414E+02  0.99999968314E+01 0.  0.
        -12    1    1    2    0    0 -0.64646205742E+01  0.78193458142E+01  0.43888267584E+02  0.45045682586E+02  0.00000000000E+00 0.  1.
         11    1    3    3    0    0 -0.19131798557E+01 -0.12279241500E+01 -0.11845807071E+02  0.12061973317E+02  0.51100000000E-03 0. -1.
        -11    1    3    3    0    0  0.18363522306E+01  0.31746989226E+00 -0.31315682295E+01  0.36441317875E+01  0.51100000000E-03 0.  1.
         12    1    3    3    0    0  0.65414481993E+01 -0.69088915565E+01 -0.28910892284E+02  0.30436212309E+02  0.00000000000E+00 0. -1.
</event>
<event>
 7    1  0.3708346E-009  0.4614232E+02  0.7816164E-02  0.1320468E+00
        -11   -1    0    0    0    0  0.00000000000E+00  0.00000000000E+00  0.45593999997E+02  0.45594000000E+02  0.51100000000E-03 0.  1.
         11   -1    0    0    0    0 -0.00000000000E+00 -0.00000000000E+00 -0.45593999997E+02  0.45594000000E+02  0.51100000000E-03 0. -1.
    9900012    2    1    2    0    0 -0.19518091984E+02  0.23072012073E+01 -0.40531894714E+02  0.46142316731E+02  0.99999906055E+01 0.  0.
        -12    1    1    2    0    0  0.19518091984E+02 -0.23072012073E+01  0.40531894714E+02  0.45045683269E+02  0.00000000000E+00 0.  1.
         11    1    3    3    0    0 -0.66337967796E+01 -0.55766577127E+00 -0.17248771698E+02  0.18488871685E+02  0.51100000000E-03 0. -1.
        -11    1    3    3    0    0 -0.57879351316E+01  0.29022516883E+01 -0.16940261288E+02  0.18135482092E+02  0.51100000000E-03 0.  1.
        -12    1    3    3    0    0 -0.70963600723E+01 -0.37384709808E-01 -0.63428617278E+01  0.95179629538E+01  0.00000000000E+00 0.  1.
</event>
<event>
 7    1  0.3708346E-009  0.4614232E+02  0.7816164E-02  0.1320468E+00
        -11   -1    0    0    0    0  0.00000000000E+00  0.00000000000E+00  0.45593999997E+02  0.45594000000E+02  0.51100000000E-03 0.  1.
         11   -1    0    0    0    0 -0.00000000000E+00 -0.00000000000E+00 -0.45593999997E+02  0.45594000000E+02  0.51100000000E-03 0. -1.
    9900012    2    1    2    0    0 -0.22923720835E+02  0.16890627805E+02 -0.34904482679E+02  0.46142321011E+02  0.10000029631E+02 0.  0.
        -12    1    1    2    0    0  0.22923720835E+02 -0.16890627805E+02  0.34904482679E+02  0.45045678989E+02  0.00000000000E+00 0.  1.
         11    1    3    3    0    0 -0.43142646441E+01  0.51647249460E+01 -0.14949789795E+02  0.16394617360E+02  0.51100000000E-03 0. -1.
        -11    1    3    3    0    0 -0.12658341201E+02  0.87993693482E+01 -0.14433879721E+02  0.21118697568E+02  0.51100000000E-03 0.  1.
         12    1    3    3    0    0 -0.59511149899E+01  0.29265335105E+01 -0.55208131623E+01  0.86290060832E+01  0.00000000000E+00 0. -1.
</event>
<event>
 7    1  0.3708346E-009  0.4614232E+02  0.7816164E-02  0.1320468E+00
        -11   -1    0    0    0    0  0.00000000000E+00  0.00000000000E+00  0.45593999997E+02  0.45594000000E+02  0.51100000000E-03 0.  1.
         11   -1    0    0    0    0 -0.00000000000E+00 -0.00000000000E+00 -0.45593999997E+02  0.45594000000E+02  0.51100000000E-03 0. -1.
    9900012    2    1    2    0    0 -0.65431195126E+01  0.20701154844E+02 -0.39468510557E+02  0.46142317073E+02  0.99999937235E+01 0.  0.
        -12    1    1    2    0    0  0.65431195126E+01 -0.20701154844E+02  0.39468510557E+02  0.45045682927E+02  0.00000000000E+00 0.  1.
         11    1    3    3    0    0 -0.81430632195E+00  0.28806540096E+01 -0.19867328954E+01  0.35928220340E+01  0.51100000000E-03 0. -1.
        -11    1    3    3    0    0 -0.18686345148E+01  0.95417593192E+01 -0.26718263207E+02  0.28432420842E+02  0.51100000000E-03 0.  1.
         12    1    3    3    0    0 -0.38601786758E+01  0.82787415151E+01 -0.10763514454E+02  0.14117074197E+02  0.00000000000E+00 0. -1.
</event>
<event>
 7    1  0.3708346E-009  0.4614232E+02  0.7816164E-02  0.1320468E+00
        -11   -1    0    0    0    0  0.00000000000E+00  0.00000000000E+00  0.45593999997E+02  0.45594000000E+02  0.51100000000E-03 0.  1.
         11   -1    0    0    0    0 -0.00000000000E+00 -0.00000000000E+00 -0.45593999997E+02  0.45594000000E+02  0.51100000000E-03 0. -1.
    9900012    2    1    2    0    0  0.32382622095E+02  0.17147115614E+02 -0.26200299756E+02  0.46142317688E+02  0.99999993374E+01 0.  0.
        -12    1    1    2    0    0 -0.32382622095E+02 -0.17147115614E+02  0.26200299756E+02  0.45045682312E+02  0.00000000000E+00 0.  1.
         11    1    3    3    0    0  0.16757173338E+02  0.12692771926E+02 -0.16047441612E+02  0.26446733257E+02  0.51100000000E-03 0. -1.
        -11    1    3    3    0    0  0.15154253123E+02  0.51570856856E+01 -0.94035299388E+01  0.18565378963E+02  0.51100000000E-03 0.  1.
        -12    1    3    3    0    0  0.47119563415E+00 -0.70274199740E+00 -0.74932820534E+00  0.11302054680E+01  0.00000000000E+00 0.  1.
</event>
<event>
 7    1  0.3708346E-009  0.4614232E+02  0.7816164E-02  0.1320468E+00
        -11   -1    0    0    0    0  0.00000000000E+00  0.00000000000E+00  0.45593999997E+02  0.45594000000E+02  0.51100000000E-03 0.  1.
         11   -1    0    0    0    0 -0.00000000000E+00 -0.00000000000E+00 -0.45593999997E+02  0.45594000000E+02  0.51100000000E-03 0. -1.
    9900012    2    1    2    0    0 -0.37252197547E+02 -0.56273756486E+01 -0.24692509710E+02  0.46142316360E+02  0.99999872263E+01 0.  0.
        -12    1    1    2    0    0  0.37252197547E+02  0.56273756486E+01  0.24692509710E+02  0.45045683640E+02  0.00000000000E+00 0.  1.
         11    1    3    3    0    0 -0.16839492233E+02 -0.31755058951E+01 -0.12338932035E+02  0.21116381802E+02  0.51100000000E-03 0. -1.
        -11    1    3    3    0    0 -0.12934701294E+02 -0.13293610773E+01 -0.36688769272E+01  0.13510527621E+02  0.51100000000E-03 0.  1.
        -12    1    3    3    0    0 -0.74780040197E+01 -0.11225086762E+01 -0.86847007485E+01  0.11515406938E+02  0.00000000000E+00 0.  1.
</event>
<event>
 7    1  0.3708346E-009  0.4614230E+02  0.7816164E-02  0.1320468E+00
        -11   -1    0    0    0    0  0.00000000000E+00  0.00000000000E+00  0.45593999997E+02  0.45594000000E+02  0.51100000000E-03 0. -1.
         11   -1    0    0    0    0 -0.00000000000E+00 -0.00000000000E+00 -0.45593999997E+02  0.45594000000E+02  0.51100000000E-03 0.  1.
    9900012    2    1    2    0    0  0.22389368667E+02 -0.33534507497E+02  0.20081526476E+02  0.46142304002E+02  0.99998745301E+01 0.  0.
        -12    1    1    2    0    0 -0.22389368667E+02  0.33534507497E+02 -0.20081526476E+02  0.45045695998E+02  0.00000000000E+00 0.  1.
         11    1    3    3    0    0  0.91270327767E+01 -0.87266560117E+01  0.80950935751E+01  0.14999593085E+02  0.51100000000E-03 0. -1.
        -11    1    3    3    0    0  0.41442974467E+01 -0.98070059473E+01  0.75022043343E+01  0.13024424636E+02  0.51100000000E-03 0.  1.
         12    1    3    3    0    0  0.91180384431E+01 -0.15000845538E+02  0.44842285668E+01  0.18118286281E+02  0.00000000000E+00 0. -1.
</event>
<event>
 7    1  0.3708346E-009  0.4614232E+02  0.7816164E-02  0.1320468E+00
        -11   -1    0    0    0    0  0.00000000000E+00  0.00000000000E+00  0.45593999997E+02  0.45594000000E+02  0.51100000000E-03 0. -1.
         11   -1    0    0    0    0 -0.00000000000E+00 -0.00000000000E+00 -0.45593999997E+02  0.45594000000E+02  0.51100000000E-03 0.  1.
    9900012    2    1    2    0    0  0.33600927220E+02 -0.17257180023E+02  0.24541413829E+02  0.46142316909E+02  0.99999922324E+01 0.  0.
        -12    1    1    2    0    0 -0.33600927220E+02  0.17257180023E+02 -0.24541413829E+02  0.45045683091E+02  0.00000000000E+00 0.  1.
         11    1    3    3    0    0  0.21574879852E+02 -0.13424137896E+02  0.16847519012E+02  0.30488060220E+02  0.51100000000E-03 0. -1.
        -11    1    3    3    0    0  0.10704531375E+02 -0.14055404383E+01  0.67538004503E+01  0.12734848121E+02  0.51100000000E-03 0.  1.
        -12    1    3    3    0    0  0.13215159927E+01 -0.24275016891E+01  0.94009436733E+00  0.29194085684E+01  0.00000000000E+00 0.  1.
</event>
<event>
 7    1  0.3708346E-009  0.4614232E+02  0.7816164E-02  0.1320468E+00
        -11   -1    0    0    0    0  0.00000000000E+00  0.00000000000E+00  0.45593999997E+02  0.45594000000E+02  0.51100000000E-03 0.  1.
         11   -1    0    0    0    0 -0.00000000000E+00 -0.00000000000E+00 -0.45593999997E+02  0.45594000000E+02  0.51100000000E-03 0. -1.
    9900012    2    1    2    0    0  0.21133904321E+02 -0.34125132901E+02 -0.20443747262E+02  0.46142318637E+02  0.10000007984E+02 0.  0.
        -12    1    1    2    0    0 -0.21133904321E+02  0.34125132901E+02  0.20443747262E+02  0.45045681363E+02  0.00000000000E+00 0.  1.
         11    1    3    3    0    0  0.12200536057E+02 -0.11140773288E+02 -0.91559369129E+01  0.18889179192E+02  0.51100000000E-03 0. -1.
        -11    1    3    3    0    0  0.22311739847E+01 -0.60938124969E+01 -0.17057148998E+01  0.67098548180E+01  0.51100000000E-03 0.  1.
         12    1    3    3    0    0  0.67021942788E+01 -0.16890547116E+02 -0.95820954491E+01  0.20543284626E+02  0.00000000000E+00 0. -1.
</event>
<event>
 7    1  0.3708346E-009  0.4614232E+02  0.7816164E-02  0.1320468E+00
        -11   -1    0    0    0    0  0.00000000000E+00  0.00000000000E+00  0.45593999997E+02  0.45594000000E+02  0.51100000000E-03 0. -1.
         11   -1    0    0    0    0 -0.00000000000E+00 -0.00000000000E+00 -0.45593999997E+02  0.45594000000E+02  0.51100000000E-03 0.  1.
    9900012    2    1    2    0    0  0.25941197625E+02  0.19487192819E+02  0.31247676010E+02  0.46142315698E+02  0.99999811879E+01 0.  0.
        -12    1    1    2    0    0 -0.25941197625E+02 -0.19487192819E+02 -0.31247676010E+02  0.45045684302E+02  0.00000000000E+00 0.  1.
         11    1    3    3    0    0  0.80707140997E+00  0.21133614748E+01  0.37558498729E+01  0.43845261446E+01  0.51100000000E-03 0. -1.
        -11    1    3    3    0    0  0.16235682653E+02  0.69411526191E+01  0.16765259595E+02  0.24348530149E+02  0.51100000000E-03 0.  1.
         12    1    3    3    0    0  0.88984435626E+01  0.10432678726E+02  0.10726566542E+02  0.17409259404E+02  0.00000000000E+00 0. -1.
</event>
<event>
 7    1  0.3708346E-009  0.4614232E+02  0.7816164E-02  0.1320468E+00
        -11   -1    0    0    0    0  0.00000000000E+00  0.00000000000E+00  0.45593999997E+02  0.45594000000E+02  0.51100000000E-03 0.  1.
         11   -1    0    0    0    0 -0.00000000000E+00 -0.00000000000E+00 -0.45593999997E+02  0.45594000000E+02  0.51100000000E-03 0. -1.
    9900012    2    1    2    0    0 -0.36638500397E+02  0.18193265948E+02 -0.18861039881E+02  0.46142318048E+02  0.10000002614E+02 0.  0.
        -12    1    1    2    0    0  0.36638500397E+02 -0.18193265948E+02  0.18861039881E+02  0.45045681952E+02  0.00000000000E+00 0.  1.
         11    1    3    3    0    0 -0.10240497527E+02  0.44530014712E+01 -0.25657539819E+01  0.11457753072E+02  0.51100000000E-03 0. -1.
        -11    1    3    3    0    0 -0.60636034389E+01  0.66000743750E+01 -0.35061697125E+01  0.96240061687E+01  0.51100000000E-03 0.  1.
        -12    1    3    3    0    0 -0.20334399431E+02  0.71401901014E+01 -0.12789116186E+02  0.25060558807E+02  0.00000000000E+00 0.  1.
</event>
<event>
 7    1  0.3708346E-009  0.4614232E+02  0.7816164E-02  0.1320468E+00
        -11   -1    0    0    0    0  0.00000000000E+00  0.00000000000E+00  0.45593999997E+02  0.45594000000E+02  0.51100000000E-03 0. -1.
         11   -1    0    0    0    0 -0.00000000000E+00 -0.00000000000E+00 -0.45593999997E+02  0.45594000000E+02  0.51100000000E-03 0.  1.
    9900012    2    1    2    0    0  0.24006126812E+02 -0.32197654806E+02  0.20399274559E+02  0.46142317609E+02  0.99999986123E+01 0.  0.
        -12    1    1    2    0    0 -0.24006126812E+02  0.32197654806E+02 -0.20399274559E+02  0.45045682391E+02  0.00000000000E+00 0.  1.
         11    1    3    3    0    0  0.66820381845E+01 -0.16857625220E+02  0.97193809970E+01  0.20574147116E+02  0.51100000000E-03 0.  1.
        -11    1    3    3    0    0  0.11279101452E+02 -0.11236545250E+02  0.71097985511E+01  0.17436379051E+02  0.51100000000E-03 0. -1.
        -12    1    3    3    0    0  0.60449871762E+01 -0.41034843365E+01  0.35700950107E+01  0.81317914414E+01  0.00000000000E+00 0.  1.
</event>
<event>
 7    1  0.3708346E-009  0.4614231E+02  0.7816164E-02  0.1320468E+00
        -11   -1    0    0    0    0  0.00000000000E+00  0.00000000000E+00  0.45593999997E+02  0.45594000000E+02  0.51100000000E-03 0. -1.
         11   -1    0    0    0    0 -0.00000000000E+00 -0.00000000000E+00 -0.45593999997E+02  0.45594000000E+02  0.51100000000E-03 0.  1.
    9900012    2    1    2    0    0 -0.70233089837E+01 -0.11188334594E+02  0.43065162125E+02  0.46142313315E+02  0.99999594536E+01 0.  0.
        -12    1    1    2    0    0  0.70233089837E+01  0.11188334594E+02 -0.43065162125E+02  0.45045686685E+02  0.00000000000E+00 0.  1.
         11    1    3    3    0    0  0.15740582060E+00 -0.85366361967E+01  0.23806187057E+02  0.25290976190E+02  0.51100000000E-03 0. -1.
        -11    1    3    3    0    0 -0.75760165249E+00 -0.91860366853E+00  0.17107247671E+01  0.20843158238E+01  0.51100000000E-03 0.  1.
         12    1    3    3    0    0 -0.64231131518E+01 -0.17330947290E+01  0.17548250301E+02  0.18767021301E+02  0.00000000000E+00 0. -1.
</event>
<event>
 7    1  0.3708346E-009  0.4614232E+02  0.7816164E-02  0.1320468E+00
        -11   -1    0    0    0    0  0.00000000000E+00  0.00000000000E+00  0.45593999997E+02  0.45594000000E+02  0.51100000000E-03 0.  1.
         11   -1    0    0    0    0 -0.00000000000E+00 -0.00000000000E+00 -0.45593999997E+02  0.45594000000E+02  0.51100000000E-03 0. -1.
    9900012    2    1    2    0    0  0.32018977635E+02 -0.23620515430E+02 -0.21117996548E+02  0.46142318118E+02  0.10000003256E+02 0.  0.
        -12    1    1    2    0    0 -0.32018977635E+02  0.23620515430E+02  0.21117996548E+02  0.45045681882E+02  0.00000000000E+00 0.  1.
         11    1    3    3    0    0  0.11033503419E+02 -0.10383277500E+02 -0.90622845426E+01  0.17654338015E+02  0.51100000000E-03 0. -1.
        -11    1    3    3    0    0  0.34836666079E+01  0.22839447121E+00 -0.38824847239E+00  0.35126676767E+01  0.51100000000E-03 0.  1.
        -12    1    3    3    0    0  0.17501807608E+02 -0.13465632401E+02 -0.11667463533E+02  0.24975312427E+02  0.00000000000E+00 0.  1.
</event>
<event>
 7    1  0.3708346E-009  0.4614232E+02  0.7816164E-02  0.1320468E+00
        -11   -1    0    0    0    0  0.00000000000E+00  0.00000000000E+00  0.45593999997E+02  0.45594000000E+02  0.51100000000E-03 0.  1.
         11   -1    0    0    0    0 -0.00000000000E+00 -0.00000000000E+00 -0.45593999997E+02  0.45594000000E+02  0.51100000000E-03 0. -1.
    9900012    2    1    2    0    0  0.87752215832E+01 -0.20713009976E+01 -0.44134098710E+02  0.46142317958E+02  0.10000001795E+02 0.  0.
        -12    1    1    2    0    0 -0.87752215832E+01  0.20713009976E+01  0.44134098710E+02  0.45045682042E+02  0.00000000000E+00 0.  1.
         11    1    3    3    0    0  0.24264481219E+01 -0.23680389016E+01 -0.16674454928E+02  0.17015660614E+02  0.51100000000E-03 0. -1.
        -11    1    3    3    0    0 -0.44241320431E+00  0.14701520475E+01 -0.13199103824E+02  0.13288093110E+02  0.51100000000E-03 0.  1.
         12    1    3    3    0    0  0.67911866657E+01 -0.11734141436E+01 -0.14260539959E+02  0.15838564234E+02  0.00000000000E+00 0. -1.
</event>
<event>
 7    1  0.3708346E-009  0.4614232E+02  0.7816164E-02  0.1320468E+00
        -11   -1    0    0    0    0  0.00000000000E+00  0.00000000000E+00  0.45593999997E+02  0.45594000000E+02  0.51100000000E-03 0.  1.
         11   -1    0    0    0    0 -0.00000000000E+00 -0.00000000000E+00 -0.45593999997E+02  0.45594000000E+02  0.51100000000E-03 0. -1.
    9900012    2    1    2    0    0 -0.12490088987E+02 -0.35413881669E+02 -0.24879074378E+02  0.46142315638E+02  0.99999806385E+01 0.  0.
        -12    1    1    2    0    0  0.12490088987E+02  0.35413881669E+02  0.24879074378E+02  0.45045684362E+02  0.00000000000E+00 0.  1.
         11    1    3    3    0    0 -0.42161514590E+01 -0.21325064137E+02 -0.10745266022E+02  0.24248608944E+02  0.51100000000E-03 0. -1.
        -11    1    3    3    0    0 -0.80790912840E+01 -0.12380287146E+02 -0.11417900288E+02  0.18679177526E+02  0.51100000000E-03 0.  1.
         12    1    3    3    0    0 -0.19484624388E+00 -0.17085303858E+01 -0.27159080684E+01  0.32145291683E+01  0.00000000000E+00 0. -1.
</event>
<event>
 7    1  0.3708346E-009  0.4614232E+02  0.7816164E-02  0.1320468E+00
        -11   -1    0    0    0    0  0.00000000000E+00  0.00000000000E+00  0.45593999997E+02  0.45594000000E+02  0.51100000000E-03 0. -1.
         11   -1    0    0    0    0 -0.00000000000E+00 -0.00000000000E+00 -0.45593999997E+02  0.45594000000E+02  0.51100000000E-03 0.  1.
    9900012    2    1    2    0    0 -0.14954125738E+02 -0.26789929892E+02  0.32981620161E+02  0.46142317758E+02  0.99999999704E+01 0.  0.
        -12    1    1    2    0    0  0.14954125738E+02  0.26789929892E+02 -0.32981620161E+02  0.45045682242E+02  0.00000000000E+00 0.  1.
         11    1    3    3    0    0 -0.87943791950E+01 -0.90940197773E+01  0.12257816143E+02  0.17615230853E+02  0.51100000000E-03 0. -1.
        -11    1    3    3    0    0  0.23272104901E+00 -0.42198283506E+00 -0.30664614279E+00  0.57119236492E+00  0.51100000000E-03 0.  1.
         12    1    3    3    0    0 -0.63924675918E+01 -0.17273927279E+02  0.21030450161E+02  0.27955894540E+02  0.00000000000E+00 0. -1.
</event>
<event>
 7    1  0.3708346E-009  0.4614232E+02  0.7816164E-02  0.1320468E+00
        -11   -1    0    0    0    0  0.00000000000E+00  0.00000000000E+00  0.45593999997E+02  0.45594000000E+02  0.51100000000E-03 0.  1.
         11   -1    0    0    0    0 -0.00000000000E+00 -0.00000000000E+00 -0.45593999997E+02  0.45594000000E+02  0.51100000000E-03 0. -1.
    9900012    2    1    2    0    0  0.30170587062E+02  0.24324084920E+02 -0.22960577780E+02  0.46142316934E+02  0.99999924583E+01 0.  0.
        -12    1    1    2    0    0 -0.30170587062E+02 -0.24324084920E+02  0.22960577780E+02  0.45045683066E+02  0.00000000000E+00 0.  1.
         11    1    3    3    0    0  0.21453673606E+02  0.21428823465E+02 -0.19292862603E+02  0.35939798747E+02  0.51100000000E-03 0. -1.
        -11    1    3    3    0    0  0.38989321854E+01  0.11041393343E+01 -0.29504359382E+01  0.50125710312E+01  0.51100000000E-03 0.  1.
         12    1    3    3    0    0  0.48179812702E+01  0.17911221208E+01 -0.71727923912E+00  0.51899471557E+01  0.00000000000E+00 0. -1.
</event>
<event>
 7    1  0.3708346E-009  0.4614232E+02  0.7816164E-02  0.1320468E+00
        -11   -1    0    0    0    0  0.00000000000E+00  0.00000000000E+00  0.45593999997E+02  0.45594000000E+02  0.51100000000E-03 0. -1.
         11   -1    0    0    0    0 -0.00000000000E+00 -0.00000000000E+00 -0.45593999997E+02  0.45594000000E+02  0.51100000000E-03 0.  1.
    9900012    2    1    2    0    0  0.35834049333E+02  0.27222822846E+02  0.19880371791E+01  0.46142317996E+02  0.10000002144E+02 0.  0.
        -12    1    1    2    0    0 -0.35834049333E+02 -0.27222822846E+02 -0.19880371791E+01  0.45045682004E+02  0.00000000000E+00 0.  1.
         11    1    3    3    0    0  0.37585151233E+01  0.47237215925E+01  0.17124739966E+01  0.62747549009E+01  0.51100000000E-03 0. -1.
        -11    1    3    3    0    0  0.22042663348E+02  0.19241838302E+02  0.11562069347E+01  0.29282489025E+02  0.51100000000E-03 0.  1.
        -12    1    3    3    0    0  0.10032870862E+02  0.32572629515E+01 -0.88064375224E+00  0.10585074071E+02  0.00000000000E+00 0.  1.
</event>
<event>
 7    1  0.3708346E-009  0.4614232E+02  0.7816164E-02  0.1320468E+00
        -11   -1    0    0    0    0  0.00000000000E+00  0.00000000000E+00  0.45593999997E+02  0.45594000000E+02  0.51100000000E-03 0.  1.
         11   -1    0    0    0    0 -0.00000000000E+00 -0.00000000000E+00 -0.45593999997E+02  0.45594000000E+02  0.51100000000E-03 0. -1.
    9900012    2    1    2    0    0 -0.37313703744E+02 -0.17235698647E+02 -0.18431803944E+02  0.46142321055E+02  0.10000030038E+02 0.  0.
        -12    1    1    2    0    0  0.37313703744E+02  0.17235698647E+02  0.18431803944E+02  0.45045678945E+02  0.00000000000E+00 0.  1.
         11    1    3    3    0    0 -0.83892512730E+01 -0.13154284083E+01 -0.72008831574E+01  0.11133849618E+02  0.51100000000E-03 0. -1.
        -11    1    3    3    0    0 -0.49143374002E+01 -0.38602179187E+01 -0.14530825290E+01  0.64158743410E+01  0.51100000000E-03 0.  1.
         12    1    3    3    0    0 -0.24010115071E+02 -0.12060052320E+02 -0.97778382579E+01  0.28592597096E+02  0.00000000000E+00 0. -1.
</event>
<event>
 7    1  0.3708346E-009  0.4614232E+02  0.7816164E-02  0.1320468E+00
        -11   -1    0    0    0    0  0.00000000000E+00  0.00000000000E+00  0.45593999997E+02  0.45594000000E+02  0.51100000000E-03 0.  1.
         11   -1    0    0    0    0 -0.00000000000E+00 -0.00000000000E+00 -0.45593999997E+02  0.45594000000E+02  0.51100000000E-03 0. -1.
    9900012    2    1    2    0    0 -0.28364343368E+01 -0.24081573687E+02 -0.37962428249E+02  0.46142317526E+02  0.99999978582E+01 0.  0.
        -12    1    1    2    0    0  0.28364343368E+01  0.24081573687E+02  0.37962428249E+02  0.45045682474E+02  0.00000000000E+00 0.  1.
         11    1    3    3    0    0 -0.22071668826E+01 -0.66156773934E+00 -0.33461173502E+01  0.40627280371E+01  0.51100000000E-03 0. -1.
        -11    1    3    3    0    0  0.13399349931E+01 -0.22707241643E+01 -0.30420252367E+01  0.40256094965E+01  0.51100000000E-03 0.  1.
         12    1    3    3    0    0 -0.19692024473E+01 -0.21149281783E+02 -0.31574285662E+02  0.38053979993E+02  0.00000000000E+00 0. -1.
</event>
<event>
 7    1  0.3708346E-009  0.4614232E+02  0.7816164E-02  0.1320468E+00
        -11   -1    0    0    0    0  0.00000000000E+00  0.00000000000E+00  0.45593999997E+02  0.45594000000E+02  0.51100000000E-03 0.  1.
         11   -1    0    0    0    0 -0.00000000000E+00 -0.00000000000E+00 -0.45593999997E+02  0.45594000000E+02  0.51100000000E-03 0. -1.
    9900012    2    1    2    0    0  0.13104604698E+02 -0.10365764346E+02 -0.41832209206E+02  0.46142318055E+02  0.10000002682E+02 0.  0.
        -12    1    1    2    0    0 -0.13104604698E+02  0.10365764346E+02  0.41832209206E+02  0.45045681945E+02  0.00000000000E+00 0.  1.
         11    1    3    3    0    0  0.97149008180E+01 -0.18413723003E+01 -0.25132821613E+02  0.27007937210E+02  0.51100000000E-03 0. -1.
        -11    1    3    3    0    0  0.27568015763E+00 -0.25206824584E+01 -0.37790880380E+01  0.45509720133E+01  0.51100000000E-03 0.  1.
         12    1    3    3    0    0  0.31140237229E+01 -0.60037095876E+01 -0.12920299555E+02  0.14583408832E+02  0.00000000000E+00 0. -1.
</event>
<event>
 7    1  0.3708346E-009  0.4614232E+02  0.7816164E-02  0.1320468E+00
        -11   -1    0    0    0    0  0.00000000000E+00  0.00000000000E+00  0.45593999997E+02  0.45594000000E+02  0.51100000000E-03 0.  1.
         11   -1    0    0    0    0 -0.00000000000E+00 -0.00000000000E+00 -0.45593999997E+02  0.45594000000E+02  0.51100000000E-03 0. -1.
    9900012    2    1    2    0    0 -0.29291103131E+02 -0.24466812770E+02 -0.23927386056E+02  0.46142318151E+02  0.10000003559E+02 0.  0.
        -12    1    1    2    0    0  0.29291103131E+02  0.24466812770E+02  0.23927386056E+02  0.45045681849E+02  0.00000000000E+00 0.  1.
         11    1    3    3    0    0 -0.15333474866E+02 -0.10648259824E+02 -0.13242307590E+02  0.22887979363E+02  0.51100000000E-03 0. -1.
        -11    1    3    3    0    0  0.35572860969E+00 -0.10715745621E+01  0.29293563940E+00  0.11664589302E+01  0.51100000000E-03 0.  1.
         12    1    3    3    0    0 -0.14313356874E+02 -0.12746978384E+02 -0.10978014105E+02  0.22087879858E+02  0.00000000000E+00 0. -1.
</event>
<event>
 7    1  0.3708346E-009  0.4614232E+02  0.7816164E-02  0.1320468E+00
        -11   -1    0    0    0    0  0.00000000000E+00  0.00000000000E+00  0.45593999997E+02  0.45594000000E+02  0.51100000000E-03 0. -1.
         11   -1    0    0    0    0 -0.00000000000E+00 -0.00000000000E+00 -0.45593999997E+02  0.45594000000E+02  0.51100000000E-03 0.  1.
    9900012    2    1    2    0    0 -0.71087324854E+01  0.29594059241E+02  0.33207995690E+02  0.46142318768E+02  0.10000009184E+02 0.  0.
        -12    1    1    2    0    0  0.71087324854E+01 -0.29594059241E+02 -0.33207995690E+02  0.45045681232E+02  0.00000000000E+00 0.  1.
         11    1    3    3    0    0 -0.56582712912E+01  0.68756360027E+01  0.91570637736E+01  0.12772713950E+02  0.51100000000E-03 0. -1.
        -11    1    3    3    0    0  0.11300534894E+01  0.28649119384E+01  0.26367344451E+01  0.40542706001E+01  0.51100000000E-03 0.  1.
         12    1    3    3    0    0 -0.25805146836E+01  0.19853511300E+02  0.21414197471E+02  0.29315334218E+02  0.00000000000E+00 0. -1.
</event>
<event>
 7    1  0.3708346E-009  0.4614232E+02  0.7816164E-02  0.1320468E+00
        -11   -1    0    0    0    0  0.00000000000E+00  0.00000000000E+00  0.45593999997E+02  0.45594000000E+02  0.51100000000E-03 0.  1.
         11   -1    0    0    0    0 -0.00000000000E+00 -0.00000000000E+00 -0.45593999997E+02  0.45594000000E+02  0.51100000000E-03 0. -1.
    9900012    2    1    2    0    0 -0.14516520966E+02  0.36869316042E+02  0.21425163327E+02  0.46142317966E+02  0.10000001864E+02 0.  0.
        -12    1    1    2    0    0  0.14516520966E+02 -0.36869316042E+02 -0.21425163327E+02  0.45045682034E+02  0.00000000000E+00 0.  1.
         11    1    3    3    0    0 -0.12754212089E+02  0.30734523943E+02  0.14478450144E+02  0.36289205101E+02  0.51100000000E-03 0. -1.
        -11    1    3    3    0    0  0.76585539633E+00  0.19852463577E+01  0.20500504563E+01  0.29547325977E+01  0.51100000000E-03 0.  1.
         12    1    3    3    0    0 -0.25281642731E+01  0.41495457414E+01  0.48966627267E+01  0.68983802672E+01  0.00000000000E+00 0. -1.
</event>
<event>
 7    1  0.3708346E-009  0.4614232E+02  0.7816164E-02  0.1320468E+00
        -11   -1    0    0    0    0  0.00000000000E+00  0.00000000000E+00  0.45593999997E+02  0.45594000000E+02  0.51100000000E-03 0.  1.
         11   -1    0    0    0    0 -0.00000000000E+00 -0.00000000000E+00 -0.45593999997E+02  0.45594000000E+02  0.51100000000E-03 0. -1.
    9900012    2    1    2    0    0 -0.40172701333E+02 -0.39748626996E+01 -0.19986694791E+02  0.46142318359E+02  0.10000005451E+02 0.  0.
        -12    1    1    2    0    0  0.40172701333E+02  0.39748626996E+01  0.19986694791E+02  0.45045681641E+02  0.00000000000E+00 0.  1.
         11    1    3    3    0    0 -0.11104367225E+02 -0.14348570163E+01 -0.17753735099E+01  0.11336566389E+02  0.51100000000E-03 0. -1.
        -11    1    3    3    0    0 -0.25114965933E+01 -0.10124089492E+01 -0.27265520978E+00  0.27215672219E+01  0.51100000000E-03 0.  1.
         12    1    3    3    0    0 -0.26556837514E+02 -0.15275967341E+01 -0.17938666071E+02  0.32084184748E+02  0.00000000000E+00 0. -1.
</event>
<event>
 7    1  0.3708346E-009  0.4614232E+02  0.7816164E-02  0.1320468E+00
        -11   -1    0    0    0    0  0.00000000000E+00  0.00000000000E+00  0.45593999997E+02  0.45594000000E+02  0.51100000000E-03 0.  1.
         11   -1    0    0    0    0 -0.00000000000E+00 -0.00000000000E+00 -0.45593999997E+02  0.45594000000E+02  0.51100000000E-03 0. -1.
    9900012    2    1    2    0    0 -0.37241644381E+02  0.15518125467E+02 -0.20034001482E+02  0.46142317526E+02  0.99999978529E+01 0.  0.
        -12    1    1    2    0    0  0.37241644381E+02 -0.15518125467E+02  0.20034001482E+02  0.45045682474E+02  0.00000000000E+00 0.  1.
         11    1    3    3    0    0 -0.41569378074E+01  0.13495864157E+01 -0.47944919683E+01  0.64875780476E+01  0.51100000000E-03 0. -1.
        -11    1    3    3    0    0 -0.16936979530E+02  0.10840893392E+02 -0.89014134991E+01  0.21991393946E+02  0.51100000000E-03 0.  1.
         12    1    3    3    0    0 -0.16147727043E+02  0.33276456595E+01 -0.63380960141E+01  0.17663345532E+02  0.00000000000E+00 0. -1.
</event>
<event>
 7    1  0.3708346E-009  0.4614232E+02  0.7816164E-02  0.1320468E+00
        -11   -1    0    0    0    0  0.00000000000E+00  0.00000000000E+00  0.45593999997E+02  0.45594000000E+02  0.51100000000E-03 0. -1.
         11   -1    0    0    0    0 -0.00000000000E+00 -0.00000000000E+00 -0.45593999997E+02  0.45594000000E+02  0.51100000000E-03 0.  1.
    9900012    2    1    2    0    0 -0.66348514365E+01  0.41324165022E+02  0.16655498323E+02  0.46142317713E+02  0.99999995602E+01 0.  0.
        -12    1    1    2    0    0  0.66348514365E+01 -0.41324165022E+02 -0.16655498323E+02  0.45045682287E+02  0.00000000000E+00 0.  1.
         11    1    3    3    0    0 -0.55898940625E+01  0.15087032014E+02  0.79053439943E+01  0.17926514289E+02  0.51100000000E-03 0. -1.
        -11    1    3    3    0    0  0.20664177681E+01  0.89067074053E+01  0.20050227863E+01  0.93605360868E+01  0.51100000000E-03 0.  1.
         12    1    3    3    0    0 -0.31113751420E+01  0.17330425602E+02  0.67451315421E+01  0.18855267337E+02  0.00000000000E+00 0. -1.
</event>
<event>
 7    1  0.3708346E-009  0.4614233E+02  0.7816164E-02  0.1320468E+00
        -11   -1    0    0    0    0  0.00000000000E+00  0.00000000000E+00  0.45593999997E+02  0.45594000000E+02  0.51100000000E-03 0.  1.
         11   -1    0    0    0    0 -0.00000000000E+00 -0.00000000000E+00 -0.45593999997E+02  0.45594000000E+02  0.51100000000E-03 0. -1.
    9900012    2    1    2    0    0 -0.66562447484E+01 -0.20770411498E+02 -0.39413157724E+02  0.46142327736E+02  0.10000090954E+02 0.  0.
        -12    1    1    2    0    0  0.66562447484E+01  0.20770411498E+02  0.39413157724E+02  0.45045672264E+02  0.00000000000E+00 0.  1.
         11    1    3    3    0    0 -0.15886618707E+01 -0.10591947746E+02 -0.18257318147E+02  0.21167023168E+02  0.51100000000E-03 0. -1.
        -11    1    3    3    0    0 -0.64350683645E-01 -0.73888253722E+01 -0.13782059238E+02  0.15637903903E+02  0.51100000000E-03 0.  1.
        -12    1    3    3    0    0 -0.50032321940E+01 -0.27896383799E+01 -0.73737803397E+01  0.93374006648E+01  0.00000000000E+00 0.  1.
</event>
<event>
 7    1  0.3708346E-009  0.4614232E+02  0.7816164E-02  0.1320468E+00
        -11   -1    0    0    0    0  0.00000000000E+00  0.00000000000E+00  0.45593999997E+02  0.45594000000E+02  0.51100000000E-03 0.  1.
         11   -1    0    0    0    0 -0.00000000000E+00 -0.00000000000E+00 -0.45593999997E+02  0.45594000000E+02  0.51100000000E-03 0. -1.
    9900012    2    1    2    0    0 -0.17541212462E+02 -0.38966544935E+02 -0.14248780715E+02  0.46142317513E+02  0.99999977405E+01 0.  0.
        -12    1    1    2    0    0  0.17541212462E+02  0.38966544935E+02  0.14248780715E+02  0.45045682487E+02  0.00000000000E+00 0.  1.
         11    1    3    3    0    0 -0.88956959303E+00 -0.38858919685E+01 -0.24441730156E+01  0.46760530838E+01  0.51100000000E-03 0. -1.
        -11    1    3    3    0    0 -0.90012188835E+01 -0.10364013440E+02 -0.58177330087E+01  0.14909082252E+02  0.51100000000E-03 0.  1.
        -12    1    3    3    0    0 -0.76504239850E+01 -0.24716639526E+02 -0.59868746907E+01  0.26557182177E+02  0.00000000000E+00 0.  1.
</event>
<event>
 7    1  0.3708346E-009  0.4614232E+02  0.7816164E-02  0.1320468E+00
        -11   -1    0    0    0    0  0.00000000000E+00  0.00000000000E+00  0.45593999997E+02  0.45594000000E+02  0.51100000000E-03 0.  1.
         11   -1    0    0    0    0 -0.00000000000E+00 -0.00000000000E+00 -0.45593999997E+02  0.45594000000E+02  0.51100000000E-03 0. -1.
    9900012    2    1    2    0    0 -0.36131691453E+02 -0.16941168143E+02 -0.20895245092E+02  0.46142316824E+02  0.99999914543E+01 0.  0.
        -12    1    1    2    0    0  0.36131691453E+02  0.16941168143E+02  0.20895245092E+02  0.45045683176E+02  0.00000000000E+00 0.  1.
         11    1    3    3    0    0 -0.16121124249E+02 -0.87680747769E+01 -0.84355370549E+01  0.20197229216E+02  0.51100000000E-03 0.  1.
        -11    1    3    3    0    0 -0.11736460989E+02 -0.27943419312E+01 -0.10252704723E+02  0.15832587210E+02  0.51100000000E-03 0. -1.
         12    1    3    3    0    0 -0.82741062151E+01 -0.53787514346E+01 -0.22070033146E+01  0.10112500397E+02  0.00000000000E+00 0. -1.
</event>
<event>
 7    1  0.3708346E-009  0.4614231E+02  0.7816164E-02  0.1320468E+00
        -11   -1    0    0    0    0  0.00000000000E+00  0.00000000000E+00  0.45593999997E+02  0.45594000000E+02  0.51100000000E-03 0. -1.
         11   -1    0    0    0    0 -0.00000000000E+00 -0.00000000000E+00 -0.45593999997E+02  0.45594000000E+02  0.51100000000E-03 0.  1.
    9900012    2    1    2    0    0 -0.29754523595E+02  0.32787975899E+02  0.82904007479E+01  0.46142314497E+02  0.99999702333E+01 0.  0.
        -12    1    1    2    0    0  0.29754523595E+02 -0.32787975899E+02 -0.82904007479E+01  0.45045685503E+02  0.00000000000E+00 0.  1.
         11    1    3    3    0    0 -0.10572314497E+02  0.11843251755E+02  0.42330489394E+01  0.16430311913E+02  0.51100000000E-03 0. -1.
        -11    1    3    3    0    0 -0.10318332403E+02  0.15839038065E+02  0.46453407721E+01  0.19465926681E+02  0.51100000000E-03 0.  1.
         12    1    3    3    0    0 -0.88638766944E+01  0.51056860790E+01 -0.58798896359E+00  0.10246075903E+02  0.00000000000E+00 0. -1.
</event>
<event>
 7    1  0.3708346E-009  0.4614232E+02  0.7816164E-02  0.1320468E+00
        -11   -1    0    0    0    0  0.00000000000E+00  0.00000000000E+00  0.45593999997E+02  0.45594000000E+02  0.51100000000E-03 0.  1.
         11   -1    0    0    0    0 -0.00000000000E+00 -0.00000000000E+00 -0.45593999997E+02  0.45594000000E+02  0.51100000000E-03 0. -1.
    9900012    2    1    2    0    0 -0.30916916849E+02  0.25601045152E+02 -0.20441239772E+02  0.46142317147E+02  0.99999943999E+01 0.  0.
        -12    1    1    2    0    0  0.30916916849E+02 -0.25601045152E+02  0.20441239772E+02  0.45045682853E+02  0.00000000000E+00 0.  1.
         11    1    3    3    0    0 -0.77630077724E+01  0.67350362812E+01 -0.34722135220E+01  0.10848099851E+02  0.51100000000E-03 0. -1.
        -11    1    3    3    0    0 -0.90278199617E+01  0.90372738235E+01 -0.29806639612E+01  0.13117096071E+02  0.51100000000E-03 0.  1.
         12    1    3    3    0    0 -0.14126089115E+02  0.98287350468E+01 -0.13988362288E+02  0.22177121225E+02  0.00000000000E+00 0. -1.
</event>
<event>
 7    1  0.3708346E-009  0.4614232E+02  0.7816164E-02  0.1320468E+00
        -11   -1    0    0    0    0  0.00000000000E+00  0.00000000000E+00  0.45593999997E+02  0.45594000000E+02  0.51100000000E-03 0. -1.
         11   -1    0    0    0    0 -0.00000000000E+00 -0.00000000000E+00 -0.45593999997E+02  0.45594000000E+02  0.51100000000E-03 0.  1.
    9900012    2    1    2    0    0  0.18006622780E+02  0.39710734843E+02 -0.11310727399E+02  0.46142317854E+02  0.10000000845E+02 0.  0.
        -12    1    1    2    0    0 -0.18006622780E+02 -0.39710734843E+02  0.11310727399E+02  0.45045682146E+02  0.00000000000E+00 0.  1.
         11    1    3    3    0    0  0.11864675210E+01  0.43402293088E+01  0.28162597605E+00  0.45082822763E+01  0.51100000000E-03 0. -1.
        -11    1    3    3    0    0  0.10015523390E+02  0.28750260150E+02 -0.79511561018E+01  0.31465998333E+02  0.51100000000E-03 0.  1.
        -12    1    3    3    0    0  0.68046318695E+01  0.66202453844E+01 -0.36411972735E+01  0.10168037245E+02  0.00000000000E+00 0.  1.
</event>
<event>
 7    1  0.3708346E-009  0.4614232E+02  0.7816164E-02  0.1320468E+00
        -11   -1    0    0    0    0  0.00000000000E+00  0.00000000000E+00  0.45593999997E+02  0.45594000000E+02  0.51100000000E-03 0.  1.
         11   -1    0    0    0    0 -0.00000000000E+00 -0.00000000000E+00 -0.45593999997E+02  0.45594000000E+02  0.51100000000E-03 0. -1.
    9900012    2    1    2    0    0 -0.83340653861E+01  0.37018953092E+02 -0.24274553651E+02  0.46142317755E+02  0.99999999475E+01 0.  0.
        -12    1    1    2    0    0  0.83340653861E+01 -0.37018953092E+02  0.24274553651E+02  0.45045682245E+02  0.00000000000E+00 0.  1.
         11    1    3    3    0    0 -0.60413836553E+01  0.15523443342E+02 -0.11513977809E+02  0.20249624563E+02  0.51100000000E-03 0. -1.
        -11    1    3    3    0    0  0.15768704943E+01  0.13543555015E+02 -0.85885260447E+01  0.16114502254E+02  0.51100000000E-03 0.  1.
         12    1    3    3    0    0 -0.38695522250E+01  0.79519547347E+01 -0.41720497974E+01  0.97781909389E+01  0.00000000000E+00 0. -1.
</event>
<event>
 7    1  0.3708346E-009  0.4614232E+02  0.7816164E-02  0.1320468E+00
        -11   -1    0    0    0    0  0.00000000000E+00  0.00000000000E+00  0.45593999997E+02  0.45594000000E+02  0.51100000000E-03 0.  1.
         11   -1    0    0    0    0 -0.00000000000E+00 -0.00000000000E+00 -0.45593999997E+02  0.45594000000E+02  0.51100000000E-03 0. -1.
    9900012    2    1    2    0    0  0.17727017330E+02  0.22997851873E+02 -0.34437845055E+02  0.46142317563E+02  0.99999981933E+01 0.  0.
        -12    1    1    2    0    0 -0.17727017330E+02 -0.22997851873E+02  0.34437845055E+02  0.45045682437E+02  0.00000000000E+00 0.  1.
         11    1    3    3    0    0  0.56126051483E+01  0.56449636738E+01 -0.74359351675E+01  0.10893120926E+02  0.51100000000E-03 0. -1.
        -11    1    3    3    0    0  0.85065899840E+01  0.53890869959E+01 -0.10479873806E+02  0.14533825617E+02  0.51100000000E-03 0.  1.
        -12    1    3    3    0    0  0.36078221980E+01  0.11963801203E+02 -0.16522036081E+02  0.20715371020E+02  0.00000000000E+00 0.  1.
</event>
<event>
 7    1  0.3708346E-009  0.4614232E+02  0.7816164E-02  0.1320468E+00
        -11   -1    0    0    0    0  0.00000000000E+00  0.00000000000E+00  0.45593999997E+02  0.45594000000E+02  0.51100000000E-03 0.  1.
         11   -1    0    0    0    0 -0.00000000000E+00 -0.00000000000E+00 -0.45593999997E+02  0.45594000000E+02  0.51100000000E-03 0. -1.
    9900012    2    1    2    0    0  0.26919602174E+02  0.15110405907E+02 -0.32804331377E+02  0.46142317576E+02  0.99999983162E+01 0.  0.
        -12    1    1    2    0    0 -0.26919602174E+02 -0.15110405907E+02  0.32804331377E+02  0.45045682424E+02  0.00000000000E+00 0.  1.
         11    1    3    3    0    0  0.12086333677E+02  0.11978099346E+02 -0.17574151218E+02  0.24462320351E+02  0.51100000000E-03 0. -1.
        -11    1    3    3    0    0  0.37293957175E+00  0.64308204553E+00 -0.55527420146E+00  0.92788368958E+00  0.51100000000E-03 0.  1.
         12    1    3    3    0    0  0.14460328925E+02  0.24892245163E+01 -0.14674905958E+02  0.20752113536E+02  0.00000000000E+00 0. -1.
</event>
<event>
 7    1  0.3708346E-009  0.4614232E+02  0.7816164E-02  0.1320468E+00
        -11   -1    0    0    0    0  0.00000000000E+00  0.00000000000E+00  0.45593999997E+02  0.45594000000E+02  0.51100000000E-03 0.  1.
         11   -1    0    0    0    0 -0.00000000000E+00 -0.00000000000E+00 -0.45593999997E+02  0.45594000000E+02  0.51100000000E-03 0. -1.
    9900012    2    1    2    0    0  0.44511717079E+02  0.17140987577E+01 -0.66994302941E+01  0.46142318097E+02  0.10000003062E+02 0.  0.
        -12    1    1    2    0    0 -0.44511717079E+02 -0.17140987577E+01  0.66994302941E+01  0.45045681903E+02  0.00000000000E+00 0.  1.
         11    1    3    3    0    0  0.28891269712E+02  0.15527375844E+01 -0.75006633094E+01  0.29889402970E+02  0.51100000000E-03 0.  1.
        -11    1    3    3    0    0  0.66280093450E+01 -0.21145162415E+01  0.32250572815E+00  0.69646031487E+01  0.51100000000E-03 0. -1.
        -12    1    3    3    0    0  0.89924380221E+01  0.22758774149E+01  0.47872728711E+00  0.92883119782E+01  0.00000000000E+00 0.  1.
</event>
<event>
 7    1  0.3708346E-009  0.4614232E+02  0.7816164E-02  0.1320468E+00
        -11   -1    0    0    0    0  0.00000000000E+00  0.00000000000E+00  0.45593999997E+02  0.45594000000E+02  0.51100000000E-03 0.  1.
         11   -1    0    0    0    0 -0.00000000000E+00 -0.00000000000E+00 -0.45593999997E+02  0.45594000000E+02  0.51100000000E-03 0. -1.
    9900012    2    1    2    0    0 -0.38063121075E+02  0.75118718014E+01 -0.22888515484E+02  0.46142317132E+02  0.99999942671E+01 0.  0.
        -12    1    1    2    0    0  0.38063121075E+02 -0.75118718014E+01  0.22888515484E+02  0.45045682868E+02  0.00000000000E+00 0.  1.
         11    1    3    3    0    0 -0.47549214185E+01  0.10574530282E+01 -0.59253938861E+01  0.76705786984E+01  0.51100000000E-03 0. -1.
        -11    1    3    3    0    0 -0.12667894572E+02  0.41753737995E+01 -0.96216721980E+01  0.16446454797E+02  0.51100000000E-03 0.  1.
         12    1    3    3    0    0 -0.20640305085E+02  0.22790449736E+01 -0.73414493996E+01  0.22025283636E+02  0.00000000000E+00 0. -1.
</event>
<event>
 7    1  0.3708346E-009  0.4614232E+02  0.7816164E-02  0.1320468E+00
        -11   -1    0    0    0    0  0.00000000000E+00  0.00000000000E+00  0.45593999997E+02  0.45594000000E+02  0.51100000000E-03 0.  1.
         11   -1    0    0    0    0 -0.00000000000E+00 -0.00000000000E+00 -0.45593999997E+02  0.45594000000E+02  0.51100000000E-03 0. -1.
    9900012    2    1    2    0    0 -0.11787016564E+02 -0.25794806267E+02 -0.34997254635E+02  0.46142316280E+02  0.99999864901E+01 0.  0.
        -12    1    1    2    0    0  0.11787016564E+02  0.25794806267E+02  0.34997254635E+02  0.45045683720E+02  0.00000000000E+00 0.  1.
         11    1    3    3    0    0 -0.62490330636E+00 -0.22632835548E+00 -0.53599706746E+00  0.85382772515E+00  0.51100000000E-03 0. -1.
        -11    1    3    3    0    0 -0.46630130877E+01 -0.17971991505E+02 -0.17032687357E+02  0.25196202265E+02  0.51100000000E-03 0.  1.
        -12    1    3    3    0    0 -0.64991001704E+01 -0.75964864066E+01 -0.17428570210E+02  0.20092286289E+02  0.00000000000E+00 0.  1.
</event>
<event>
 7    1  0.3708346E-009  0.4614232E+02  0.7816164E-02  0.1320468E+00
        -11   -1    0    0    0    0  0.00000000000E+00  0.00000000000E+00  0.45593999997E+02  0.45594000000E+02  0.51100000000E-03 0. -1.
         11   -1    0    0    0    0 -0.00000000000E+00 -0.00000000000E+00 -0.45593999997E+02  0.45594000000E+02  0.51100000000E-03 0.  1.
    9900012    2    1    2    0    0 -0.33968207711E+02 -0.17041249438E+02 -0.24184091927E+02  0.46142316302E+02  0.99999866912E+01 0.  0.
        -12    1    1    2    0    0  0.33968207711E+02  0.17041249438E+02  0.24184091927E+02  0.45045683698E+02  0.00000000000E+00 0.  1.
         11    1    3    3    0    0 -0.17363106021E+02 -0.66287624656E+01 -0.13198088174E+02  0.22794900180E+02  0.51100000000E-03 0. -1.
        -11    1    3    3    0    0 -0.13630358734E+02 -0.11012025008E+02 -0.98885472160E+01  0.20120505468E+02  0.51100000000E-03 0.  1.
         12    1    3    3    0    0 -0.29747429566E+01  0.59953803551E+00 -0.10974565371E+01  0.32269106533E+01  0.00000000000E+00 0. -1.
</event>
<event>
 7    1  0.3708346E-009  0.4614232E+02  0.7816164E-02  0.1320468E+00
        -11   -1    0    0    0    0  0.00000000000E+00  0.00000000000E+00  0.45593999997E+02  0.45594000000E+02  0.51100000000E-03 0. -1.
         11   -1    0    0    0    0 -0.00000000000E+00 -0.00000000000E+00 -0.45593999997E+02  0.45594000000E+02  0.51100000000E-03 0.  1.
    9900012    2    1    2    0    0  0.24899844241E+02 -0.30112233277E+02  0.22413486205E+02  0.46142320962E+02  0.10000029188E+02 0.  0.
        -12    1    1    2    0    0 -0.24899844241E+02  0.30112233277E+02 -0.22413486205E+02  0.45045679038E+02  0.00000000000E+00 0.  1.
         11    1    3    3    0    0  0.28386080987E+01 -0.40208519815E+01  0.18507990387E+00  0.49253630756E+01  0.51100000000E-03 0. -1.
        -11    1    3    3    0    0  0.11680136548E+02 -0.10179673833E+02  0.77095934551E+01  0.17305755708E+02  0.51100000000E-03 0.  1.
         12    1    3    3    0    0  0.10381099594E+02 -0.15911707462E+02  0.14518812846E+02  0.23911202178E+02  0.00000000000E+00 0. -1.
</event>
<event>
 7    1  0.3708346E-009  0.4614231E+02  0.7816164E-02  0.1320468E+00
        -11   -1    0    0    0    0  0.00000000000E+00  0.00000000000E+00  0.45593999997E+02  0.45594000000E+02  0.51100000000E-03 0.  1.
         11   -1    0    0    0    0 -0.00000000000E+00 -0.00000000000E+00 -0.45593999997E+02  0.45594000000E+02  0.51100000000E-03 0. -1.
    9900012    2    1    2    0    0  0.28876279429E+02 -0.20858747235E+02 -0.27571487662E+02  0.46142314505E+02  0.99999703077E+01 0.  0.
        -12    1    1    2    0    0 -0.28876279429E+02  0.20858747235E+02  0.27571487662E+02  0.45045685495E+02  0.00000000000E+00 0.  1.
         11    1    3    3    0    0  0.39406523011E+01 -0.74053129134E+01 -0.61767917198E+01  0.10417300808E+02  0.51100000000E-03 0. -1.
        -11    1    3    3    0    0  0.19383996815E+01  0.50123775541E-01 -0.13336656541E+01  0.23534166772E+01  0.51100000000E-03 0.  1.
         12    1    3    3    0    0  0.22997227446E+02 -0.13503558097E+02 -0.20061030288E+02  0.33371597020E+02  0.00000000000E+00 0. -1.
</event>
<event>
 7    1  0.3708346E-009  0.4614232E+02  0.7816164E-02  0.1320468E+00
        -11   -1    0    0    0    0  0.00000000000E+00  0.00000000000E+00  0.45593999997E+02  0.45594000000E+02  0.51100000000E-03 0.  1.
         11   -1    0    0    0    0 -0.00000000000E+00 -0.00000000000E+00 -0.45593999997E+02  0.45594000000E+02  0.51100000000E-03 0. -1.
    9900012    2    1    2    0    0 -0.22997013128E+01 -0.32165362818E+02 -0.31451775549E+02  0.46142319002E+02  0.10000011318E+02 0.  0.
        -12    1    1    2    0    0  0.22997013128E+01  0.32165362818E+02  0.31451775549E+02  0.45045680998E+02  0.00000000000E+00 0.  1.
         11    1    3    3    0    0 -0.23938213467E+01 -0.45916601157E+01 -0.75565000084E+01  0.91604812044E+01  0.51100000000E-03 0. -1.
        -11    1    3    3    0    0  0.29903501201E+01 -0.11204684066E+02 -0.94692072068E+01  0.14971740855E+02  0.51100000000E-03 0.  1.
         12    1    3    3    0    0 -0.28962300862E+01 -0.16369018637E+02 -0.14426068334E+02  0.22010096942E+02  0.00000000000E+00 0. -1.
</event>
<event>
 7    1  0.3708346E-009  0.4614232E+02  0.7816164E-02  0.1320468E+00
        -11   -1    0    0    0    0  0.00000000000E+00  0.00000000000E+00  0.45593999997E+02  0.45594000000E+02  0.51100000000E-03 0.  1.
         11   -1    0    0    0    0 -0.00000000000E+00 -0.00000000000E+00 -0.45593999997E+02  0.45594000000E+02  0.51100000000E-03 0. -1.
    9900012    2    1    2    0    0  0.24125670675E+02 -0.29227418357E+02 -0.24347966646E+02  0.46142318197E+02  0.10000003972E+02 0.  0.
        -12    1    1    2    0    0 -0.24125670675E+02  0.29227418357E+02  0.24347966646E+02  0.45045681803E+02  0.00000000000E+00 0.  1.
         11    1    3    3    0    0  0.10153279421E+02 -0.11786007795E+02 -0.73839517040E+01  0.17219808529E+02  0.51100000000E-03 0. -1.
        -11    1    3    3    0    0  0.12249677151E+02 -0.10618145190E+02 -0.10147904639E+02  0.19125364478E+02  0.51100000000E-03 0.  1.
        -12    1    3    3    0    0  0.17227141031E+01 -0.68232653716E+01 -0.68161103020E+01  0.97971451893E+01  0.00000000000E+00 0.  1.
</event>
<event>
 7    1  0.3708346E-009  0.4614232E+02  0.7816164E-02  0.1320468E+00
        -11   -1    0    0    0    0  0.00000000000E+00  0.00000000000E+00  0.45593999997E+02  0.45594000000E+02  0.51100000000E-03 0. -1.
         11   -1    0    0    0    0 -0.00000000000E+00 -0.00000000000E+00 -0.45593999997E+02  0.45594000000E+02  0.51100000000E-03 0.  1.
    9900012    2    1    2    0    0 -0.21278638032E+02  0.32118978976E+02  0.23338904718E+02  0.46142315186E+02  0.99999765140E+01 0.  0.
        -12    1    1    2    0    0  0.21278638032E+02 -0.32118978976E+02 -0.23338904718E+02  0.45045684814E+02  0.00000000000E+00 0.  1.
         11    1    3    3    0    0 -0.66762175344E+01  0.13894112774E+02  0.94272089723E+01  0.18069048664E+02  0.51100000000E-03 0. -1.
        -11    1    3    3    0    0 -0.17422887871E+01  0.73144789123E+01  0.42815646298E+01  0.86526855899E+01  0.51100000000E-03 0.  1.
        -12    1    3    3    0    0 -0.12860131711E+02  0.10910387290E+02  0.96301311157E+01  0.19420580932E+02  0.00000000000E+00 0.  1.
</event>
<event>
 7    1  0.3708346E-009  0.4614232E+02  0.7816164E-02  0.1320468E+00
        -11   -1    0    0    0    0  0.00000000000E+00  0.00000000000E+00  0.45593999997E+02  0.45594000000E+02  0.51100000000E-03 0.  1.
         11   -1    0    0    0    0 -0.00000000000E+00 -0.00000000000E+00 -0.45593999997E+02  0.45594000000E+02  0.51100000000E-03 0. -1.
    9900012    2    1    2    0    0  0.17627697352E+02 -0.27081673370E+02 -0.31384078471E+02  0.46142321762E+02  0.10000036484E+02 0.  0.
        -12    1    1    2    0    0 -0.17627697352E+02  0.27081673370E+02  0.31384078471E+02  0.45045678238E+02  0.00000000000E+00 0.  1.
         11    1    3    3    0    0  0.70382506993E+01 -0.10937179212E+02 -0.12629312645E+02  0.18128938197E+02  0.51100000000E-03 0. -1.
        -11    1    3    3    0    0  0.41923777942E+01 -0.12974967423E+02 -0.11537719967E+02  0.17861825032E+02  0.51100000000E-03 0.  1.
        -12    1    3    3    0    0  0.63970688581E+01 -0.31695267355E+01 -0.72170458595E+01  0.10151558533E+02  0.00000000000E+00 0.  1.
</event>
<event>
 7    1  0.3708346E-009  0.4614232E+02  0.7816164E-02  0.1320468E+00
        -11   -1    0    0    0    0  0.00000000000E+00  0.00000000000E+00  0.45593999997E+02  0.45594000000E+02  0.51100000000E-03 0.  1.
         11   -1    0    0    0    0 -0.00000000000E+00 -0.00000000000E+00 -0.45593999997E+02  0.45594000000E+02  0.51100000000E-03 0. -1.
    9900012    2    1    2    0    0  0.66262366398E+01 -0.25717506412E+02 -0.36384290197E+02  0.46142315177E+02  0.99999764366E+01 0.  0.
        -12    1    1    2    0    0 -0.66262366398E+01  0.25717506412E+02  0.36384290197E+02  0.45045684823E+02  0.00000000000E+00 0.  1.
         11    1    3    3    0    0  0.35362695878E+00 -0.92193545005E+01 -0.13484306200E+02  0.16338545326E+02  0.51100000000E-03 0. -1.
        -11    1    3    3    0    0  0.72555551854E+01 -0.98320221530E+01 -0.16301441599E+02  0.20372745007E+02  0.51100000000E-03 0.  1.
        -12    1    3    3    0    0 -0.98294550432E+00 -0.66661297586E+01 -0.65985423982E+01  0.94310248438E+01  0.00000000000E+00 0.  1.
</event>
<event>
 7    1  0.3708346E-009  0.4614232E+02  0.7816164E-02  0.1320468E+00
        -11   -1    0    0    0    0  0.00000000000E+00  0.00000000000E+00  0.45593999997E+02  0.45594000000E+02  0.51100000000E-03 0. -1.
         11   -1    0    0    0    0 -0.00000000000E+00 -0.00000000000E+00 -0.45593999997E+02  0.45594000000E+02  0.51100000000E-03 0.  1.
    9900012    2    1    2    0    0 -0.40153954840E+02 -0.79382812294E+01  0.18808431378E+02  0.46142317753E+02  0.99999999258E+01 0.  0.
        -12    1    1    2    0    0  0.40153954840E+02  0.79382812294E+01 -0.18808431378E+02  0.45045682247E+02  0.00000000000E+00 0.  1.
         11    1    3    3    0    0 -0.12669881244E+02 -0.48713167325E+01  0.46627346635E+01  0.14352585560E+02  0.51100000000E-03 0. -1.
        -11    1    3    3    0    0 -0.26774950481E+02 -0.39391903083E+01  0.12534055176E+02  0.29824783871E+02  0.51100000000E-03 0.  1.
        -12    1    3    3    0    0 -0.70912311469E+00  0.87222581144E+00  0.16116415383E+01  0.19649483214E+01  0.00000000000E+00 0.  1.
</event>
<event>
 7    1  0.3708346E-009  0.4614232E+02  0.7816164E-02  0.1320468E+00
        -11   -1    0    0    0    0  0.00000000000E+00  0.00000000000E+00  0.45593999997E+02  0.45594000000E+02  0.51100000000E-03 0.  1.
         11   -1    0    0    0    0 -0.00000000000E+00 -0.00000000000E+00 -0.45593999997E+02  0.45594000000E+02  0.51100000000E-03 0. -1.
    9900012    2    1    2    0    0  0.17214692557E+02  0.39341575141E+02 -0.13601775899E+02  0.46142317831E+02  0.10000000639E+02 0.  0.
        -12    1    1    2    0    0 -0.17214692557E+02 -0.39341575141E+02  0.13601775899E+02  0.45045682169E+02  0.00000000000E+00 0.  1.
         11    1    3    3    0    0  0.33821904071E+01  0.89621103617E+01 -0.24883146569E+00  0.95823040780E+01  0.51100000000E-03 0. -1.
        -11    1    3    3    0    0  0.42809004106E+01  0.17272720195E+02 -0.63427609196E+01  0.18891892113E+02  0.51100000000E-03 0.  1.
        -12    1    3    3    0    0  0.95516017392E+01  0.13106744585E+02 -0.70101835139E+01  0.17668121640E+02  0.00000000000E+00 0.  1.
</event>
<event>
 7    1  0.3708346E-009  0.4614232E+02  0.7816164E-02  0.1320468E+00
        -11   -1    0    0    0    0  0.00000000000E+00  0.00000000000E+00  0.45593999997E+02  0.45594000000E+02  0.51100000000E-03 0. -1.
         11   -1    0    0    0    0 -0.00000000000E+00 -0.00000000000E+00 -0.45593999997E+02  0.45594000000E+02  0.51100000000E-03 0.  1.
    9900012    2    1    2    0    0 -0.31307965095E+02  0.17539558287E+02  0.27226617118E+02  0.46142318043E+02  0.10000002571E+02 0.  0.
        -12    1    1    2    0    0  0.31307965095E+02 -0.17539558287E+02 -0.27226617118E+02  0.45045681957E+02  0.00000000000E+00 0.  1.
         11    1    3    3    0    0 -0.72929649534E+01  0.37215972524E+00  0.59963650676E+01  0.94489277147E+01  0.51100000000E-03 0. -1.
        -11    1    3    3    0    0 -0.56952992511E+00  0.18125216491E+01  0.12471473979E+01  0.22726583459E+01  0.51100000000E-03 0.  1.
         12    1    3    3    0    0 -0.23445470216E+02  0.15354876912E+02  0.19983104653E+02  0.34420731982E+02  0.00000000000E+00 0. -1.
</event>
<event>
 7    1  0.3708346E-009  0.4614232E+02  0.7816164E-02  0.1320468E+00
        -11   -1    0    0    0    0  0.00000000000E+00  0.00000000000E+00  0.45593999997E+02  0.45594000000E+02  0.51100000000E-03 0.  1.
         11   -1    0    0    0    0 -0.00000000000E+00 -0.00000000000E+00 -0.45593999997E+02  0.45594000000E+02  0.51100000000E-03 0. -1.
    9900012    2    1    2    0    0 -0.39982131350E+02  0.17544050128E+02 -0.11079214410E+02  0.46142317475E+02  0.99999973884E+01 0.  0.
        -12    1    1    2    0    0  0.39982131350E+02 -0.17544050128E+02  0.11079214410E+02  0.45045682525E+02  0.00000000000E+00 0.  1.
         11    1    3    3    0    0 -0.37251481144E+01 -0.36222845229E+00  0.73546377349E+00  0.38142948430E+01  0.51100000000E-03 0.  1.
        -11    1    3    3    0    0 -0.16232244263E+02  0.92302771535E+01 -0.36449230988E+01  0.19025489082E+02  0.51100000000E-03 0. -1.
        -12    1    3    3    0    0 -0.20024738973E+02  0.86760014268E+01 -0.81697550852E+01  0.23302533550E+02  0.00000000000E+00 0.  1.
</event>
<event>
 7    1  0.3708346E-009  0.4614232E+02  0.7816164E-02  0.1320468E+00
        -11   -1    0    0    0    0  0.00000000000E+00  0.00000000000E+00  0.45593999997E+02  0.45594000000E+02  0.51100000000E-03 0.  1.
         11   -1    0    0    0    0 -0.00000000000E+00 -0.00000000000E+00 -0.45593999997E+02  0.45594000000E+02  0.51100000000E-03 0. -1.
    9900012    2    1    2    0    0 -0.40239717526E+02  0.13368125785E+02 -0.15204335323E+02  0.46142318007E+02  0.10000002242E+02 0.  0.
        -12    1    1    2    0    0  0.40239717526E+02 -0.13368125785E+02  0.15204335323E+02  0.45045681993E+02  0.00000000000E+00 0.  1.
         11    1    3    3    0    0 -0.28666048695E+02  0.63114718642E+01 -0.10957536335E+02  0.31331208525E+02  0.51100000000E-03 0. -1.
        -11    1    3    3    0    0 -0.75347587301E+00 -0.52150805975E+00  0.55771833700E-01  0.91804537260E+00  0.51100000000E-03 0.  1.
         12    1    3    3    0    0 -0.10820192958E+02  0.75781619805E+01 -0.43025708222E+01  0.13893064109E+02  0.00000000000E+00 0. -1.
</event>
<event>
 7    1  0.3708346E-009  0.4614233E+02  0.7816164E-02  0.1320468E+00
        -11   -1    0    0    0    0  0.00000000000E+00  0.00000000000E+00  0.45593999997E+02  0.45594000000E+02  0.51100000000E-03 0. -1.
         11   -1    0    0    0    0 -0.00000000000E+00 -0.00000000000E+00 -0.45593999997E+02  0.45594000000E+02  0.51100000000E-03 0.  1.
    9900012    2    1    2    0    0 -0.28586792364E+02 -0.22988501907E+02  0.26142619305E+02  0.46142329157E+02  0.10000103915E+02 0.  0.
        -12    1    1    2    0    0  0.28586792364E+02  0.22988501907E+02 -0.26142619305E+02  0.45045670843E+02  0.00000000000E+00 0.  1.
         11    1    3    3    0    0 -0.18992477596E+02 -0.15233853168E+02  0.19626520266E+02  0.31272748290E+02  0.51100000000E-03 0. -1.
        -11    1    3    3    0    0 -0.44785746685E+01 -0.19985182870E+01  0.19749994645E+00  0.49082290997E+01  0.51100000000E-03 0.  1.
        -12    1    3    3    0    0 -0.51157400993E+01 -0.57561304524E+01  0.63185990918E+01  0.99613517673E+01  0.00000000000E+00 0.  1.
</event>
<event>
 7    1  0.3708346E-009  0.4614232E+02  0.7816164E-02  0.1320468E+00
        -11   -1    0    0    0    0  0.00000000000E+00  0.00000000000E+00  0.45593999997E+02  0.45594000000E+02  0.51100000000E-03 0.  1.
         11   -1    0    0    0    0 -0.00000000000E+00 -0.00000000000E+00 -0.45593999997E+02  0.45594000000E+02  0.51100000000E-03 0. -1.
    9900012    2    1    2    0    0 -0.10408764503E+02 -0.21356576540E+02 -0.38270977781E+02  0.46142317851E+02  0.10000000820E+02 0.  0.
        -12    1    1    2    0    0  0.10408764503E+02  0.21356576540E+02  0.38270977781E+02  0.45045682149E+02  0.00000000000E+00 0.  1.
         11    1    3    3    0    0 -0.65947082769E+01 -0.80410262549E+01 -0.17417862673E+02  0.20286207651E+02  0.51100000000E-03 0. -1.
        -11    1    3    3    0    0 -0.26080028553E+01 -0.10166536937E+02 -0.10021502265E+02  0.14511742145E+02  0.51100000000E-03 0.  1.
        -12    1    3    3    0    0 -0.12060533704E+01 -0.31490133480E+01 -0.10831612842E+02  0.11344368055E+02  0.00000000000E+00 0.  1.
</event>
<event>
 7    1  0.3708346E-009  0.4614232E+02  0.7816164E-02  0.1320468E+00
        -11   -1    0    0    0    0  0.00000000000E+00  0.00000000000E+00  0.45593999997E+02  0.45594000000E+02  0.51100000000E-03 0.  1.
         11   -1    0    0    0    0 -0.00000000000E+00 -0.00000000000E+00 -0.45593999997E+02  0.45594000000E+02  0.51100000000E-03 0. -1.
    9900012    2    1    2    0    0 -0.39665334337E+02  0.19442072509E+02 -0.88193251842E+01  0.46142318429E+02  0.10000006091E+02 0.  0.
        -12    1    1    2    0    0  0.39665334337E+02 -0.19442072509E+02  0.88193251842E+01  0.45045681571E+02  0.00000000000E+00 0.  1.
         11    1    3    3    0    0 -0.69556670639E+01 -0.64005554534E-01 -0.69458545345E+00  0.69905543577E+01  0.51100000000E-03 0. -1.
        -11    1    3    3    0    0 -0.27278371762E+02  0.15619813956E+02 -0.81500476552E+01  0.32473241770E+02  0.51100000000E-03 0.  1.
         12    1    3    3    0    0 -0.54312955106E+01  0.38862641073E+01  0.25307924370E-01  0.66785223011E+01  0.00000000000E+00 0. -1.
</event>
<event>
 7    1  0.3708346E-009  0.4614232E+02  0.7816164E-02  0.1320468E+00
        -11   -1    0    0    0    0  0.00000000000E+00  0.00000000000E+00  0.45593999997E+02  0.45594000000E+02  0.51100000000E-03 0.  1.
         11   -1    0    0    0    0 -0.00000000000E+00 -0.00000000000E+00 -0.45593999997E+02  0.45594000000E+02  0.51100000000E-03 0. -1.
    9900012    2    1    2    0    0  0.22379202510E+02 -0.25147874943E+02 -0.29931073784E+02  0.46142317665E+02  0.99999991249E+01 0.  0.
        -12    1    1    2    0    0 -0.22379202510E+02  0.25147874943E+02  0.29931073784E+02  0.45045682335E+02  0.00000000000E+00 0.  1.
         11    1    3    3    0    0  0.63370404202E+01 -0.12123465286E+02 -0.12857317340E+02  0.18773574548E+02  0.51100000000E-03 0. -1.
        -11    1    3    3    0    0  0.11022490054E+02 -0.11610060957E+02 -0.11342687907E+02  0.19620024761E+02  0.51100000000E-03 0.  1.
        -12    1    3    3    0    0  0.50196720361E+01 -0.14143486996E+01 -0.57310685370E+01  0.77487183566E+01  0.00000000000E+00 0.  1.
</event>
<event>
 7    1  0.3708346E-009  0.4614232E+02  0.7816164E-02  0.1320468E+00
        -11   -1    0    0    0    0  0.00000000000E+00  0.00000000000E+00  0.45593999997E+02  0.45594000000E+02  0.51100000000E-03 0. -1.
         11   -1    0    0    0    0 -0.00000000000E+00 -0.00000000000E+00 -0.45593999997E+02  0.45594000000E+02  0.51100000000E-03 0.  1.
    9900012    2    1    2    0    0 -0.31478247508E+01  0.16098019473E+02  0.41953050753E+02  0.46142317642E+02  0.99999989151E+01 0.  0.
        -12    1    1    2    0    0  0.31478247508E+01 -0.16098019473E+02 -0.41953050753E+02  0.45045682358E+02  0.00000000000E+00 0.  1.
         11    1    3    3    0    0 -0.18269819902E+00  0.92809375611E+01  0.12765737854E+02  0.15783955266E+02  0.51100000000E-03 0. -1.
        -11    1    3    3    0    0 -0.35216982010E+01  0.36902318306E+01  0.15972710838E+02  0.16767458393E+02  0.51100000000E-03 0.  1.
        -12    1    3    3    0    0  0.55657164916E+00  0.31268500810E+01  0.13214602061E+02  0.13590903982E+02  0.00000000000E+00 0.  1.
</event>
<event>
 7    1  0.3708346E-009  0.4614232E+02  0.7816164E-02  0.1320468E+00
        -11   -1    0    0    0    0  0.00000000000E+00  0.00000000000E+00  0.45593999997E+02  0.45594000000E+02  0.51100000000E-03 0.  1.
         11   -1    0    0    0    0 -0.00000000000E+00 -0.00000000000E+00 -0.45593999997E+02  0.45594000000E+02  0.51100000000E-03 0. -1.
    9900012    2    1    2    0    0  0.31989158618E+02 -0.23868229553E+02  0.20883363410E+02  0.46142317428E+02  0.99999969604E+01 0.  0.
        -12    1    1    2    0    0 -0.31989158618E+02  0.23868229553E+02 -0.20883363410E+02  0.45045682572E+02  0.00000000000E+00 0.  1.
         11    1    3    3    0    0  0.22023239913E+02 -0.13038642205E+02  0.10892616659E+02  0.27815074775E+02  0.51100000000E-03 0.  1.
        -11    1    3    3    0    0  0.30221872951E+01 -0.47988730053E+01  0.61349839982E+01  0.83546889282E+01  0.51100000000E-03 0. -1.
         12    1    3    3    0    0  0.69437314095E+01 -0.60307143431E+01  0.38557627535E+01  0.99725537244E+01  0.00000000000E+00 0. -1.
</event>
<event>
 7    1  0.3708346E-009  0.4614232E+02  0.7816164E-02  0.1320468E+00
        -11   -1    0    0    0    0  0.00000000000E+00  0.00000000000E+00  0.45593999997E+02  0.45594000000E+02  0.51100000000E-03 0.  1.
         11   -1    0    0    0    0 -0.00000000000E+00 -0.00000000000E+00 -0.45593999997E+02  0.45594000000E+02  0.51100000000E-03 0. -1.
    9900012    2    1    2    0    0  0.41875605540E+00  0.19329091004E+02 -0.40685676358E+02  0.46142319004E+02  0.10000011335E+02 0.  0.
        -12    1    1    2    0    0 -0.41875605540E+00 -0.19329091004E+02  0.40685676358E+02  0.45045680996E+02  0.00000000000E+00 0.  1.
         11    1    3    3    0    0 -0.70671908462E+00  0.74423844357E+01 -0.20736801149E+02  0.22043218007E+02  0.51100000000E-03 0. -1.
        -11    1    3    3    0    0  0.32843864719E+01  0.76103524643E+01 -0.15420880361E+02  0.17507375888E+02  0.51100000000E-03 0.  1.
        -12    1    3    3    0    0 -0.21589113319E+01  0.42763541043E+01 -0.45279948474E+01  0.65917251083E+01  0.00000000000E+00 0.  1.
</event>
<event>
 7    1  0.3708346E-009  0.4614232E+02  0.7816164E-02  0.1320468E+00
        -11   -1    0    0    0    0  0.00000000000E+00  0.00000000000E+00  0.45593999997E+02  0.45594000000E+02  0.51100000000E-03 0.  1.
         11   -1    0    0    0    0 -0.00000000000E+00 -0.00000000000E+00 -0.45593999997E+02  0.45594000000E+02  0.51100000000E-03 0. -1.
    9900012    2    1    2    0    0 -0.32919190391E+02  0.17535114876E+02 -0.25257872964E+02  0.46142317672E+02  0.99999991918E+01 0.  0.
        -12    1    1    2    0    0  0.32919190391E+02 -0.17535114876E+02  0.25257872964E+02  0.45045682328E+02  0.00000000000E+00 0.  1.
         11    1    3    3    0    0 -0.86051808943E+00 -0.28978663999E+00 -0.22231369171E+01  0.24014174340E+01  0.51100000000E-03 0.  1.
        -11    1    3    3    0    0 -0.32171819786E+02  0.18078945156E+02 -0.22816634136E+02  0.43387475610E+02  0.51100000000E-03 0. -1.
         12    1    3    3    0    0  0.11314748417E+00 -0.25404364030E+00 -0.21810191101E+00  0.35342462837E+00  0.00000000000E+00 0. -1.
</event>
<event>
 7    1  0.3708346E-009  0.4614232E+02  0.7816164E-02  0.1320468E+00
        -11   -1    0    0    0    0  0.00000000000E+00  0.00000000000E+00  0.45593999997E+02  0.45594000000E+02  0.51100000000E-03 0.  1.
         11   -1    0    0    0    0 -0.00000000000E+00 -0.00000000000E+00 -0.45593999997E+02  0.45594000000E+02  0.51100000000E-03 0. -1.
    9900012    2    1    2    0    0 -0.18790067531E+02  0.19294270516E+02 -0.36107866057E+02  0.46142317590E+02  0.99999984375E+01 0.  0.
        -12    1    1    2    0    0  0.18790067531E+02 -0.19294270516E+02  0.36107866057E+02  0.45045682410E+02  0.00000000000E+00 0.  1.
         11    1    3    3    0    0 -0.64300576520E+01  0.11215885139E+02 -0.20269956165E+02  0.24041897680E+02  0.51100000000E-03 0. -1.
        -11    1    3    3    0    0 -0.10592413825E+02  0.65365932575E+01 -0.15245469116E+02  0.19681224832E+02  0.51100000000E-03 0.  1.
         12    1    3    3    0    0 -0.17675960541E+01  0.15417921193E+01 -0.59244077620E+00  0.24191950775E+01  0.00000000000E+00 0. -1.
</event>
<event>
 7    1  0.3708346E-009  0.4614232E+02  0.7816164E-02  0.1320468E+00
        -11   -1    0    0    0    0  0.00000000000E+00  0.00000000000E+00  0.45593999997E+02  0.45594000000E+02  0.51100000000E-03 0.  1.
         11   -1    0    0    0    0 -0.00000000000E+00 -0.00000000000E+00 -0.45593999997E+02  0.45594000000E+02  0.51100000000E-03 0. -1.
    9900012    2    1    2    0    0 -0.10741054152E+02 -0.13899824191E+02 -0.41479370331E+02  0.46142317411E+02  0.99999968096E+01 0.  0.
        -12    1    1    2    0    0  0.10741054152E+02  0.13899824191E+02  0.41479370331E+02  0.45045682589E+02  0.00000000000E+00 0.  1.
         11    1    3    3    0    0 -0.74464437852E+01 -0.10340890965E+02 -0.24892886318E+02  0.27964966306E+02  0.51100000000E-03 0. -1.
        -11    1    3    3    0    0 -0.43373402927E+01 -0.25195195258E+01 -0.78365106291E+01  0.93043752373E+01  0.51100000000E-03 0.  1.
        -12    1    3    3    0    0  0.10427299256E+01 -0.10394137006E+01 -0.87499733835E+01  0.88729758678E+01  0.00000000000E+00 0.  1.
</event>
<event>
 7    1  0.3708346E-009  0.4614232E+02  0.7816164E-02  0.1320468E+00
        -11   -1    0    0    0    0  0.00000000000E+00  0.00000000000E+00  0.45593999997E+02  0.45594000000E+02  0.51100000000E-03 0.  1.
         11   -1    0    0    0    0 -0.00000000000E+00 -0.00000000000E+00 -0.45593999997E+02  0.45594000000E+02  0.51100000000E-03 0. -1.
    9900012    2    1    2    0    0  0.27055399549E+02 -0.10333673935E+02 -0.34501217483E+02  0.46142317970E+02  0.10000001904E+02 0.  0.
        -12    1    1    2    0    0 -0.27055399549E+02  0.10333673935E+02  0.34501217483E+02  0.45045682030E+02  0.00000000000E+00 0.  1.
         11    1    3    3    0    0  0.21619290734E+02 -0.75239464711E+01 -0.22137377416E+02  0.31844418373E+02  0.51100000000E-03 0. -1.
        -11    1    3    3    0    0  0.54847202917E+01 -0.12706825602E+01 -0.10024253844E+02  0.11497062940E+02  0.51100000000E-03 0.  1.
        -12    1    3    3    0    0 -0.48611476884E-01 -0.15390449033E+01 -0.23395862225E+01  0.28008366576E+01  0.00000000000E+00 0.  1.
</event>
<event>
 7    1  0.3708346E-009  0.4614231E+02  0.7816164E-02  0.1320468E+00
        -11   -1    0    0    0    0  0.00000000000E+00  0.00000000000E+00  0.45593999997E+02  0.45594000000E+02  0.51100000000E-03 0. -1.
         11   -1    0    0    0    0 -0.00000000000E+00 -0.00000000000E+00 -0.45593999997E+02  0.45594000000E+02  0.51100000000E-03 0.  1.
    9900012    2    1    2    0    0  0.42485552432E+02 -0.32493018753E+01 -0.14612791772E+02  0.46142314175E+02  0.99999672954E+01 0.  0.
        -12    1    1    2    0    0 -0.42485552432E+02  0.32493018753E+01  0.14612791772E+02  0.45045685825E+02  0.00000000000E+00 0.  1.
         11    1    3    3    0    0  0.19173372938E+02 -0.23546221867E+01 -0.24157896813E+01  0.19467884207E+02  0.51100000000E-03 0. -1.
        -11    1    3    3    0    0  0.11280510434E+02 -0.22293860141E+01 -0.46131153227E+01  0.12389548454E+02  0.51100000000E-03 0.  1.
         12    1    3    3    0    0  0.12031669060E+02  0.13347063256E+01 -0.75838867684E+01  0.14284881514E+02  0.00000000000E+00 0. -1.
</event>
<event>
 7    1  0.3708346E-009  0.4614232E+02  0.7816164E-02  0.1320468E+00
        -11   -1    0    0    0    0  0.00000000000E+00  0.00000000000E+00  0.45593999997E+02  0.45594000000E+02  0.51100000000E-03 0.  1.
         11   -1    0    0    0    0 -0.00000000000E+00 -0.00000000000E+00 -0.45593999997E+02  0.45594000000E+02  0.51100000000E-03 0. -1.
    9900012    2    1    2    0    0  0.48109050565E+01  0.28639647098E+01 -0.44696374788E+02  0.46142322955E+02  0.10000047357E+02 0.  0.
        -12    1    1    2    0    0 -0.48109050565E+01 -0.28639647098E+01  0.44696374788E+02  0.45045677045E+02  0.00000000000E+00 0.  1.
         11    1    3    3    0    0  0.31103587813E+01 -0.18600816222E+00 -0.96189714043E+01  0.10111060376E+02  0.51100000000E-03 0. -1.
        -11    1    3    3    0    0  0.37143483958E+01  0.19016967757E+01 -0.31455083233E+02  0.31730664917E+02  0.51100000000E-03 0.  1.
        -12    1    3    3    0    0 -0.20138021205E+01  0.11482760963E+01 -0.36223201504E+01  0.43005976615E+01  0.00000000000E+00 0.  1.
</event>
<event>
 7    1  0.3708346E-009  0.4614232E+02  0.7816164E-02  0.1320468E+00
        -11   -1    0    0    0    0  0.00000000000E+00  0.00000000000E+00  0.45593999997E+02  0.45594000000E+02  0.51100000000E-03 0. -1.
         11   -1    0    0    0    0 -0.00000000000E+00 -0.00000000000E+00 -0.45593999997E+02  0.45594000000E+02  0.51100000000E-03 0.  1.
    9900012    2    1    2    0    0 -0.36044026404E+02 -0.12235708620E+02  0.24087944003E+02  0.46142318174E+02  0.10000003767E+02 0.  0.
        -12    1    1    2    0    0  0.36044026404E+02  0.12235708620E+02 -0.24087944003E+02  0.45045681826E+02  0.00000000000E+00 0.  1.
         11    1    3    3    0    0 -0.30339839961E+02 -0.99026718770E+01  0.22120270860E+02  0.38831368536E+02  0.51100000000E-03 0. -1.
        -11    1    3    3    0    0 -0.20533539111E+01 -0.25638676876E+01  0.32458571471E+00  0.33007629347E+01  0.51100000000E-03 0.  1.
         12    1    3    3    0    0 -0.36508325323E+01  0.23083094493E+00  0.16430874279E+01  0.40101867038E+01  0.00000000000E+00 0. -1.
</event>
<event>
 7    1  0.3708346E-009  0.4614231E+02  0.7816164E-02  0.1320468E+00
        -11   -1    0    0    0    0  0.00000000000E+00  0.00000000000E+00  0.45593999997E+02  0.45594000000E+02  0.51100000000E-03 0. -1.
         11   -1    0    0    0    0 -0.00000000000E+00 -0.00000000000E+00 -0.45593999997E+02  0.45594000000E+02  0.51100000000E-03 0.  1.
    9900012    2    1    2    0    0 -0.37908936147E+02  0.23588659891E+02  0.59667015954E+01  0.46142313822E+02  0.99999640831E+01 0.  0.
        -12    1    1    2    0    0  0.37908936147E+02 -0.23588659891E+02 -0.59667015954E+01  0.45045686178E+02  0.00000000000E+00 0.  1.
         11    1    3    3    0    0 -0.13426548069E+02  0.12201092578E+02  0.11178800615E+01  0.18176592344E+02  0.51100000000E-03 0. -1.
        -11    1    3    3    0    0 -0.73281260800E+01  0.42766280553E+01  0.39901865100E+01  0.93761702210E+01  0.51100000000E-03 0.  1.
         12    1    3    3    0    0 -0.17154261999E+02  0.71109392573E+01  0.85863502394E+00  0.18589551257E+02  0.00000000000E+00 0. -1.
</event>
<event>
 7    1  0.3708346E-009  0.4614232E+02  0.7816164E-02  0.1320468E+00
        -11   -1    0    0    0    0  0.00000000000E+00  0.00000000000E+00  0.45593999997E+02  0.45594000000E+02  0.51100000000E-03 0.  1.
         11   -1    0    0    0    0 -0.00000000000E+00 -0.00000000000E+00 -0.45593999997E+02  0.45594000000E+02  0.51100000000E-03 0. -1.
    9900012    2    1    2    0    0 -0.67367073785E+01 -0.38910239434E+02 -0.21673105904E+02  0.46142317869E+02  0.10000000983E+02 0.  0.
        -12    1    1    2    0    0  0.67367073785E+01  0.38910239434E+02  0.21673105904E+02  0.45045682131E+02  0.00000000000E+00 0.  1.
         11    1    3    3    0    0 -0.35216074568E+01 -0.13620606197E+02 -0.45532670121E+01  0.14786983229E+02  0.51100000000E-03 0.  1.
        -11    1    3    3    0    0 -0.47622349857E+01 -0.22031708195E+02 -0.15747145910E+02  0.27496320711E+02  0.51100000000E-03 0. -1.
        -12    1    3    3    0    0  0.15471350641E+01 -0.32579250417E+01 -0.13726929815E+01  0.38590139291E+01  0.00000000000E+00 0.  1.
</event>
<event>
 7    1  0.3708346E-009  0.4614231E+02  0.7816164E-02  0.1320468E+00
        -11   -1    0    0    0    0  0.00000000000E+00  0.00000000000E+00  0.45593999997E+02  0.45594000000E+02  0.51100000000E-03 0.  1.
         11   -1    0    0    0    0 -0.00000000000E+00 -0.00000000000E+00 -0.45593999997E+02  0.45594000000E+02  0.51100000000E-03 0. -1.
    9900012    2    1    2    0    0  0.14254816183E+02 -0.42517115499E+02 -0.42671870937E+01  0.46142314519E+02  0.99999704337E+01 0.  0.
        -12    1    1    2    0    0 -0.14254816183E+02  0.42517115499E+02  0.42671870937E+01  0.45045685481E+02  0.00000000000E+00 0.  1.
         11    1    3    3    0    0  0.66967864295E+01 -0.25559851397E+02 -0.51887678225E+01  0.26927240180E+02  0.51100000000E-03 0. -1.
        -11    1    3    3    0    0  0.77565597242E+01 -0.13369369314E+02  0.16638629366E+01  0.15545825637E+02  0.51100000000E-03 0.  1.
        -12    1    3    3    0    0 -0.19852997053E+00 -0.35878947883E+01 -0.74228220774E+00  0.36692487020E+01  0.00000000000E+00 0.  1.
</event>
<event>
 7    1  0.3708346E-009  0.4614231E+02  0.7816164E-02  0.1320468E+00
        -11   -1    0    0    0    0  0.00000000000E+00  0.00000000000E+00  0.45593999997E+02  0.45594000000E+02  0.51100000000E-03 0.  1.
         11   -1    0    0    0    0 -0.00000000000E+00 -0.00000000000E+00 -0.45593999997E+02  0.45594000000E+02  0.51100000000E-03 0. -1.
    9900012    2    1    2    0    0 -0.34126611618E+01 -0.71978411368E+01 -0.44335749242E+02  0.46142313924E+02  0.99999650058E+01 0.  0.
        -12    1    1    2    0    0  0.34126611618E+01  0.71978411368E+01  0.44335749242E+02  0.45045686076E+02  0.00000000000E+00 0.  1.
         11    1    3    3    0    0 -0.22501292194E+01 -0.77227318786E+01 -0.27234793139E+02  0.28397845460E+02  0.51100000000E-03 0. -1.
        -11    1    3    3    0    0  0.24342419424E+00 -0.40513196977E+00  0.81418984316E-01  0.47960042056E+00  0.51100000000E-03 0.  1.
         12    1    3    3    0    0 -0.14059561367E+01  0.93002271158E+00 -0.17182375087E+02  0.17264868043E+02  0.00000000000E+00 0. -1.
</event>
<event>
 7    1  0.3708346E-009  0.4614232E+02  0.7816164E-02  0.1320468E+00
        -11   -1    0    0    0    0  0.00000000000E+00  0.00000000000E+00  0.45593999997E+02  0.45594000000E+02  0.51100000000E-03 0.  1.
         11   -1    0    0    0    0 -0.00000000000E+00 -0.00000000000E+00 -0.45593999997E+02  0.45594000000E+02  0.51100000000E-03 0. -1.
    9900012    2    1    2    0    0 -0.22705580410E+02  0.14628883895E+02 -0.36049490565E+02  0.46142318789E+02  0.10000009377E+02 0.  0.
        -12    1    1    2    0    0  0.22705580410E+02 -0.14628883895E+02  0.36049490565E+02  0.45045681211E+02  0.00000000000E+00 0.  1.
         11    1    3    3    0    0 -0.20663800264E+02  0.11334937298E+02 -0.27769684046E+02  0.36422915824E+02  0.51100000000E-03 0. -1.
        -11    1    3    3    0    0 -0.97753376840E+00  0.21189172841E+01 -0.15405520287E+01  0.27961908983E+01  0.51100000000E-03 0.  1.
         12    1    3    3    0    0 -0.10642463774E+01  0.11750293134E+01 -0.67392544902E+01  0.69232120669E+01  0.00000000000E+00 0. -1.
</event>
<event>
 7    1  0.3708346E-009  0.4614232E+02  0.7816164E-02  0.1320468E+00
        -11   -1    0    0    0    0  0.00000000000E+00  0.00000000000E+00  0.45593999997E+02  0.45594000000E+02  0.51100000000E-03 0.  1.
         11   -1    0    0    0    0 -0.00000000000E+00 -0.00000000000E+00 -0.45593999997E+02  0.45594000000E+02  0.51100000000E-03 0. -1.
    9900012    2    1    2    0    0 -0.44356591591E+01  0.27996278696E+02 -0.35009238084E+02  0.46142318251E+02  0.10000004468E+02 0.  0.
        -12    1    1    2    0    0  0.44356591591E+01 -0.27996278696E+02  0.35009238084E+02  0.45045681749E+02  0.00000000000E+00 0.  1.
         11    1    3    3    0    0  0.27078041767E+01  0.47889718942E+01 -0.70000695100E+01  0.89032257451E+01  0.51100000000E-03 0. -1.
        -11    1    3    3    0    0 -0.35078095929E+01  0.59908139776E+01 -0.77060811414E+01  0.10371994363E+02  0.51100000000E-03 0.  1.
         12    1    3    3    0    0 -0.36356537429E+01  0.17216492824E+02 -0.20303087433E+02  0.26867098143E+02  0.00000000000E+00 0. -1.
</event>
<event>
 7    1  0.3708346E-009  0.4614232E+02  0.7816164E-02  0.1320468E+00
        -11   -1    0    0    0    0  0.00000000000E+00  0.00000000000E+00  0.45593999997E+02  0.45594000000E+02  0.51100000000E-03 0.  1.
         11   -1    0    0    0    0 -0.00000000000E+00 -0.00000000000E+00 -0.45593999997E+02  0.45594000000E+02  0.51100000000E-03 0. -1.
    9900012    2    1    2    0    0  0.18083689408E+01 -0.30149144159E+02 -0.33419634794E+02  0.46142322277E+02  0.10000041182E+02 0.  0.
        -12    1    1    2    0    0 -0.18083689408E+01  0.30149144159E+02  0.33419634794E+02  0.45045677723E+02  0.00000000000E+00 0.  1.
         11    1    3    3    0    0 -0.15049094031E+01 -0.60968905196E+01 -0.93070212064E+01  0.11227531800E+02  0.51100000000E-03 0. -1.
        -11    1    3    3    0    0  0.12291753728E+01 -0.38272740766E+01 -0.10205699503E+01  0.41473439981E+01  0.51100000000E-03 0.  1.
         12    1    3    3    0    0  0.20841029712E+01 -0.20224979563E+02 -0.23092043637E+02  0.30767446479E+02  0.00000000000E+00 0. -1.
</event>
<event>
 7    1  0.3708346E-009  0.4614232E+02  0.7816164E-02  0.1320468E+00
        -11   -1    0    0    0    0  0.00000000000E+00  0.00000000000E+00  0.45593999997E+02  0.45594000000E+02  0.51100000000E-03 0.  1.
         11   -1    0    0    0    0 -0.00000000000E+00 -0.00000000000E+00 -0.45593999997E+02  0.45594000000E+02  0.51100000000E-03 0. -1.
    9900012    2    1    2    0    0  0.27338858506E+02 -0.19845641046E+02 -0.29796824699E+02  0.46142318575E+02  0.10000007421E+02 0.  0.
        -12    1    1    2    0    0 -0.27338858506E+02  0.19845641046E+02  0.29796824699E+02  0.45045681425E+02  0.00000000000E+00 0.  1.
         11    1    3    3    0    0  0.88354222019E+01 -0.75890229716E+01 -0.16138023221E+02  0.19902104132E+02  0.51100000000E-03 0. -1.
        -11    1    3    3    0    0  0.14002820000E+02 -0.10532507282E+02 -0.11504709141E+02  0.20961178648E+02  0.51100000000E-03 0.  1.
         12    1    3    3    0    0  0.45006163031E+01 -0.17241107922E+01 -0.21540923372E+01  0.52790357954E+01  0.00000000000E+00 0. -1.
</event>
<event>
 7    1  0.3708346E-009  0.4614232E+02  0.7816164E-02  0.1320468E+00
        -11   -1    0    0    0    0  0.00000000000E+00  0.00000000000E+00  0.45593999997E+02  0.45594000000E+02  0.51100000000E-03 0.  1.
         11   -1    0    0    0    0 -0.00000000000E+00 -0.00000000000E+00 -0.45593999997E+02  0.45594000000E+02  0.51100000000E-03 0. -1.
    9900012    2    1    2    0    0 -0.11102945095E+02  0.34740230473E+02 -0.26437742687E+02  0.46142320501E+02  0.10000024988E+02 0.  0.
        -12    1    1    2    0    0  0.11102945095E+02 -0.34740230473E+02  0.26437742687E+02  0.45045679499E+02  0.00000000000E+00 0.  1.
         11    1    3    3    0    0 -0.41608419644E+01  0.14698103822E+02 -0.70286918942E+01  0.16815153041E+02  0.51100000000E-03 0. -1.
        -11    1    3    3    0    0 -0.21056446771E+00  0.93360088939E+01 -0.83683404153E+01  0.12539319002E+02  0.51100000000E-03 0.  1.
        -12    1    3    3    0    0 -0.67315386631E+01  0.10706117758E+02 -0.11040710377E+02  0.16787848458E+02  0.00000000000E+00 0.  1.
</event>
<event>
 7    1  0.3708346E-009  0.4614232E+02  0.7816164E-02  0.1320468E+00
        -11   -1    0    0    0    0  0.00000000000E+00  0.00000000000E+00  0.45593999997E+02  0.45594000000E+02  0.51100000000E-03 0.  1.
         11   -1    0    0    0    0 -0.00000000000E+00 -0.00000000000E+00 -0.45593999997E+02  0.45594000000E+02  0.51100000000E-03 0. -1.
    9900012    2    1    2    0    0  0.28186123860E+02 -0.15649234632E+02  0.31460409472E+02  0.46142317777E+02  0.10000000142E+02 0.  0.
        -12    1    1    2    0    0 -0.28186123860E+02  0.15649234632E+02 -0.31460409472E+02  0.45045682223E+02  0.00000000000E+00 0.  1.
         11    1    3    3    0    0  0.16810251621E+02 -0.12558017936E+02  0.20506886866E+02  0.29339747498E+02  0.51100000000E-03 0. -1.
        -11    1    3    3    0    0  0.54722913706E+01 -0.17068152476E+01  0.21700009900E+01  0.61292818252E+01  0.51100000000E-03 0.  1.
        -12    1    3    3    0    0  0.59035808684E+01 -0.13844014485E+01  0.87835216156E+01  0.10673288454E+02  0.00000000000E+00 0.  1.
</event>
<event>
 7    1  0.3708346E-009  0.4614232E+02  0.7816164E-02  0.1320468E+00
        -11   -1    0    0    0    0  0.00000000000E+00  0.00000000000E+00  0.45593999997E+02  0.45594000000E+02  0.51100000000E-03 0.  1.
         11   -1    0    0    0    0 -0.00000000000E+00 -0.00000000000E+00 -0.45593999997E+02  0.45594000000E+02  0.51100000000E-03 0. -1.
    9900012    2    1    2    0    0 -0.24555822159E+02  0.10803530202E+02 -0.36185755930E+02  0.46142316533E+02  0.99999888041E+01 0.  0.
        -12    1    1    2    0    0  0.24555822159E+02 -0.10803530202E+02  0.36185755930E+02  0.45045683467E+02  0.00000000000E+00 0.  1.
         11    1    3    3    0    0 -0.10481999224E+02 -0.41792739071E+00 -0.15319999573E+02  0.18567427345E+02  0.51100000000E-03 0. -1.
        -11    1    3    3    0    0 -0.37678754943E+01  0.35075572513E+01 -0.63035321039E+01  0.81384495364E+01  0.51100000000E-03 0.  1.
         12    1    3    3    0    0 -0.10305947441E+02  0.77139003417E+01 -0.14562224253E+02  0.19436439651E+02  0.00000000000E+00 0. -1.
</event>
<event>
 7    1  0.3708346E-009  0.4614232E+02  0.7816164E-02  0.1320468E+00
        -11   -1    0    0    0    0  0.00000000000E+00  0.00000000000E+00  0.45593999997E+02  0.45594000000E+02  0.51100000000E-03 0. -1.
         11   -1    0    0    0    0 -0.00000000000E+00 -0.00000000000E+00 -0.45593999997E+02  0.45594000000E+02  0.51100000000E-03 0.  1.
    9900012    2    1    2    0    0  0.25091955240E+02  0.29307653609E+02  0.23250135000E+02  0.46142317018E+02  0.99999932246E+01 0.  0.
        -12    1    1    2    0    0 -0.25091955240E+02 -0.29307653609E+02 -0.23250135000E+02  0.45045682982E+02  0.00000000000E+00 0.  1.
         11    1    3    3    0    0  0.16362425123E+02  0.15824032442E+02  0.14765336041E+02  0.27131975735E+02  0.51100000000E-03 0. -1.
        -11    1    3    3    0    0  0.57094264471E+01  0.10053588800E+02  0.86466511717E+01  0.14437339605E+02  0.51100000000E-03 0.  1.
        -12    1    3    3    0    0  0.30201036696E+01  0.34300323664E+01 -0.16185221261E+00  0.45730016781E+01  0.00000000000E+00 0.  1.
</event>
<event>
 7    1  0.3708346E-009  0.4614232E+02  0.7816164E-02  0.1320468E+00
        -11   -1    0    0    0    0  0.00000000000E+00  0.00000000000E+00  0.45593999997E+02  0.45594000000E+02  0.51100000000E-03 0. -1.
         11   -1    0    0    0    0 -0.00000000000E+00 -0.00000000000E+00 -0.45593999997E+02  0.45594000000E+02  0.51100000000E-03 0.  1.
    9900012    2    1    2    0    0 -0.94137761866E+01  0.13713945776E+02  0.41861939289E+02  0.46142318166E+02  0.10000003691E+02 0.  0.
        -12    1    1    2    0    0  0.94137761866E+01 -0.13713945776E+02 -0.41861939289E+02  0.45045681834E+02  0.00000000000E+00 0.  1.
         11    1    3    3    0    0 -0.29894407409E+01  0.38791546329E+01  0.21459526831E+02  0.22011267312E+02  0.51100000000E-03 0. -1.
        -11    1    3    3    0    0 -0.22538383934E+01  0.56700819079E+01  0.59474115387E+01  0.85206408572E+01  0.51100000000E-03 0.  1.
        -12    1    3    3    0    0 -0.41704970523E+01  0.41647092353E+01  0.14455000919E+02  0.15610409996E+02  0.00000000000E+00 0.  1.
</event>
<event>
 7    1  0.3708346E-009  0.4614232E+02  0.7816164E-02  0.1320468E+00
        -11   -1    0    0    0    0  0.00000000000E+00  0.00000000000E+00  0.45593999997E+02  0.45594000000E+02  0.51100000000E-03 0. -1.
         11   -1    0    0    0    0 -0.00000000000E+00 -0.00000000000E+00 -0.45593999997E+02  0.45594000000E+02  0.51100000000E-03 0.  1.
    9900012    2    1    2    0    0 -0.34259211609E+02  0.16480671298E+02  0.24162103331E+02  0.46142319365E+02  0.10000014627E+02 0.  0.
        -12    1    1    2    0    0  0.34259211609E+02 -0.16480671298E+02 -0.24162103331E+02  0.45045680635E+02  0.00000000000E+00 0.  1.
         11    1    3    3    0    0 -0.76366652027E+01  0.15262456298E+01  0.33876407670E+01  0.84925962678E+01  0.51100000000E-03 0. -1.
        -11    1    3    3    0    0 -0.19717406657E+02  0.72091576903E+01  0.13135237916E+02  0.24764542298E+02  0.51100000000E-03 0.  1.
        -12    1    3    3    0    0 -0.69051397495E+01  0.77452679780E+01  0.76392246471E+01  0.12885180799E+02  0.00000000000E+00 0.  1.
</event>
<event>
 7    1  0.3708346E-009  0.4614232E+02  0.7816164E-02  0.1320468E+00
        -11   -1    0    0    0    0  0.00000000000E+00  0.00000000000E+00  0.45593999997E+02  0.45594000000E+02  0.51100000000E-03 0. -1.
         11   -1    0    0    0    0 -0.00000000000E+00 -0.00000000000E+00 -0.45593999997E+02  0.45594000000E+02  0.51100000000E-03 0.  1.
    9900012    2    1    2    0    0  0.90978153767E+01 -0.30608948953E+02  0.31771613590E+02  0.46142318400E+02  0.10000005829E+02 0.  0.
        -12    1    1    2    0    0 -0.90978153767E+01  0.30608948953E+02 -0.31771613590E+02  0.45045681600E+02  0.00000000000E+00 0.  1.
         11    1    3    3    0    0  0.93182207234E+00 -0.49538233805E+01  0.93743077223E+01  0.10643603901E+02  0.51100000000E-03 0. -1.
        -11    1    3    3    0    0  0.78916904621E+01 -0.24551573990E+02  0.19334663067E+02  0.32231781830E+02  0.51100000000E-03 0.  1.
        -12    1    3    3    0    0  0.27430284225E+00 -0.11035515827E+01  0.30626428004E+01  0.32669326696E+01  0.00000000000E+00 0.  1.
</event>
<event>
 7    1  0.3708346E-009  0.4614232E+02  0.7816164E-02  0.1320468E+00
        -11   -1    0    0    0    0  0.00000000000E+00  0.00000000000E+00  0.45593999997E+02  0.45594000000E+02  0.51100000000E-03 0.  1.
         11   -1    0    0    0    0 -0.00000000000E+00 -0.00000000000E+00 -0.45593999997E+02  0.45594000000E+02  0.51100000000E-03 0. -1.
    9900012    2    1    2    0    0 -0.32353157177E+02  0.21911016484E+02 -0.22411916927E+02  0.46142318264E+02  0.10000004583E+02 0.  0.
        -12    1    1    2    0    0  0.32353157177E+02 -0.21911016484E+02  0.22411916927E+02  0.45045681736E+02  0.00000000000E+00 0.  1.
         11    1    3    3    0    0 -0.25199340262E+02  0.12683388832E+02 -0.16456765734E+02  0.32660377226E+02  0.51100000000E-03 0. -1.
        -11    1    3    3    0    0 -0.18826678766E+01  0.34260374458E+01 -0.52069528052E+00  0.39437665689E+01  0.51100000000E-03 0.  1.
         12    1    3    3    0    0 -0.52711490389E+01  0.58015902067E+01 -0.54344559133E+01  0.95381744684E+01  0.00000000000E+00 0. -1.
</event>
<event>
 7    1  0.3708346E-009  0.4614232E+02  0.7816164E-02  0.1320468E+00
        -11   -1    0    0    0    0  0.00000000000E+00  0.00000000000E+00  0.45593999997E+02  0.45594000000E+02  0.51100000000E-03 0.  1.
         11   -1    0    0    0    0 -0.00000000000E+00 -0.00000000000E+00 -0.45593999997E+02  0.45594000000E+02  0.51100000000E-03 0. -1.
    9900012    2    1    2    0    0  0.26176684461E+00 -0.42722000772E+02  0.14278496388E+02  0.46142319509E+02  0.10000015935E+02 0.  0.
        -12    1    1    2    0    0 -0.26176684461E+00  0.42722000772E+02 -0.14278496388E+02  0.45045680491E+02  0.00000000000E+00 0.  1.
         11    1    3    3    0    0 -0.23300685648E+01 -0.37085359175E+01  0.21347425226E+01  0.48723284030E+01  0.51100000000E-03 0. -1.
        -11    1    3    3    0    0  0.63970404952E+00 -0.63038612425E+00 -0.16749503580E+00  0.91359880952E+00  0.51100000000E-03 0.  1.
         12    1    3    3    0    0  0.19521313598E+01 -0.38383078730E+02  0.12311248901E+02  0.40356392296E+02  0.00000000000E+00 0. -1.
</event>
<event>
 7    1  0.3708346E-009  0.4614232E+02  0.7816164E-02  0.1320468E+00
        -11   -1    0    0    0    0  0.00000000000E+00  0.00000000000E+00  0.45593999997E+02  0.45594000000E+02  0.51100000000E-03 0.  1.
         11   -1    0    0    0    0 -0.00000000000E+00 -0.00000000000E+00 -0.45593999997E+02  0.45594000000E+02  0.51100000000E-03 0. -1.
    9900012    2    1    2    0    0  0.95172740992E+01  0.31377619477E+02 -0.30886566997E+02  0.46142317286E+02  0.99999956634E+01 0.  0.
        -12    1    1    2    0    0 -0.95172740992E+01 -0.31377619477E+02  0.30886566997E+02  0.45045682714E+02  0.00000000000E+00 0.  1.
         11    1    3    3    0    0  0.25889451170E+01  0.16400520101E+01 -0.38452363057E+01  0.49171383876E+01  0.51100000000E-03 0.  1.
        -11    1    3    3    0    0  0.54354787705E+01  0.23238035269E+02 -0.17542275254E+02  0.29618948901E+02  0.51100000000E-03 0. -1.
         12    1    3    3    0    0  0.14928502117E+01  0.64995321983E+01 -0.94990554372E+01  0.11606229997E+02  0.00000000000E+00 0. -1.
</event>
<event>
 7    1  0.3708346E-009  0.4614232E+02  0.7816164E-02  0.1320468E+00
        -11   -1    0    0    0    0  0.00000000000E+00  0.00000000000E+00  0.45593999997E+02  0.45594000000E+02  0.51100000000E-03 0.  1.
         11   -1    0    0    0    0 -0.00000000000E+00 -0.00000000000E+00 -0.45593999997E+02  0.45594000000E+02  0.51100000000E-03 0. -1.
    9900012    2    1    2    0    0 -0.17281615865E+02 -0.34081467656E+02 -0.23851892891E+02  0.46142317865E+02  0.10000000950E+02 0.  0.
        -12    1    1    2    0    0  0.17281615865E+02  0.34081467656E+02  0.23851892891E+02  0.45045682135E+02  0.00000000000E+00 0.  1.
         11    1    3    3    0    0 -0.52119196051E+01 -0.20564512031E+02 -0.13144506817E+02  0.24956789071E+02  0.51100000000E-03 0. -1.
        -11    1    3    3    0    0 -0.49644480280E+01 -0.73091169886E+01 -0.55239606601E+01  0.10420320389E+02  0.51100000000E-03 0.  1.
         12    1    3    3    0    0 -0.71052482318E+01 -0.62078386367E+01 -0.51834254139E+01  0.10765208405E+02  0.00000000000E+00 0. -1.
</event>
<event>
 7    1  0.3708346E-009  0.4614232E+02  0.7816164E-02  0.1320468E+00
        -11   -1    0    0    0    0  0.00000000000E+00  0.00000000000E+00  0.45593999997E+02  0.45594000000E+02  0.51100000000E-03 0.  1.
         11   -1    0    0    0    0 -0.00000000000E+00 -0.00000000000E+00 -0.45593999997E+02  0.45594000000E+02  0.51100000000E-03 0. -1.
    9900012    2    1    2    0    0 -0.55595969084E+01  0.20549609064E+02 -0.39697833043E+02  0.46142317646E+02  0.99999989491E+01 0.  0.
        -12    1    1    2    0    0  0.55595969084E+01 -0.20549609064E+02  0.39697833043E+02  0.45045682354E+02  0.00000000000E+00 0.  1.
         11    1    3    3    0    0  0.32497375955E+00  0.10148946913E+02 -0.15537844889E+02  0.18561555847E+02  0.51100000000E-03 0. -1.
        -11    1    3    3    0    0 -0.25343654296E+01  0.43565878165E+00 -0.29874942081E+01  0.39418179320E+01  0.51100000000E-03 0.  1.
        -12    1    3    3    0    0 -0.33502052384E+01  0.99650033696E+01 -0.21172493945E+02  0.23638943867E+02  0.00000000000E+00 0.  1.
</event>
<event>
 7    1  0.3708346E-009  0.4614232E+02  0.7816164E-02  0.1320468E+00
        -11   -1    0    0    0    0  0.00000000000E+00  0.00000000000E+00  0.45593999997E+02  0.45594000000E+02  0.51100000000E-03 0.  1.
         11   -1    0    0    0    0 -0.00000000000E+00 -0.00000000000E+00 -0.45593999997E+02  0.45594000000E+02  0.51100000000E-03 0. -1.
    9900012    2    1    2    0    0  0.31139466564E+01  0.43712147229E+02  0.10424249472E+02  0.46142318118E+02  0.10000003252E+02 0.  0.
        -12    1    1    2    0    0 -0.31139466564E+01 -0.43712147229E+02 -0.10424249472E+02  0.45045681882E+02  0.00000000000E+00 0.  1.
         11    1    3    3    0    0  0.19763826749E+01  0.53867305269E+01  0.32644671194E+01  0.66014922617E+01  0.51100000000E-03 0. -1.
        -11    1    3    3    0    0  0.21422479561E+01  0.19817449172E+02  0.81433453884E+00  0.19949527789E+02  0.51100000000E-03 0.  1.
        -12    1    3    3    0    0 -0.10046839746E+01  0.18507967530E+02  0.63454478140E+01  0.19591298067E+02  0.00000000000E+00 0.  1.
</event>
<event>
 7    1  0.3708346E-009  0.4614232E+02  0.7816164E-02  0.1320468E+00
        -11   -1    0    0    0    0  0.00000000000E+00  0.00000000000E+00  0.45593999997E+02  0.45594000000E+02  0.51100000000E-03 0.  1.
         11   -1    0    0    0    0 -0.00000000000E+00 -0.00000000000E+00 -0.45593999997E+02  0.45594000000E+02  0.51100000000E-03 0. -1.
    9900012    2    1    2    0    0 -0.35755301937E+02 -0.25078562222E+02  0.11033450863E+02  0.46142323874E+02  0.10000055738E+02 0.  0.
        -12    1    1    2    0    0  0.35755301937E+02  0.25078562222E+02 -0.11033450863E+02  0.45045676126E+02  0.00000000000E+00 0.  1.
         11    1    3    3    0    0 -0.38629253968E+01 -0.19537109112E+01  0.69649708894E+00  0.43845509921E+01  0.51100000000E-03 0. -1.
        -11    1    3    3    0    0 -0.19396642454E+02 -0.11558026826E+02  0.10083489795E+02  0.24728414613E+02  0.51100000000E-03 0.  1.
        -12    1    3    3    0    0 -0.12495734087E+02 -0.11566824485E+02  0.25346397882E+00  0.17029358268E+02  0.00000000000E+00 0.  1.
</event>
<event>
 7    1  0.3708346E-009  0.4614232E+02  0.7816164E-02  0.1320468E+00
        -11   -1    0    0    0    0  0.00000000000E+00  0.00000000000E+00  0.45593999997E+02  0.45594000000E+02  0.51100000000E-03 0.  1.
         11   -1    0    0    0    0 -0.00000000000E+00 -0.00000000000E+00 -0.45593999997E+02  0.45594000000E+02  0.51100000000E-03 0. -1.
    9900012    2    1    2    0    0 -0.37524074824E+02 -0.15531628467E+02 -0.19489120304E+02  0.46142317805E+02  0.10000000398E+02 0.  0.
        -12    1    1    2    0    0  0.37524074824E+02  0.15531628467E+02  0.19489120304E+02  0.45045682195E+02  0.00000000000E+00 0.  1.
         11    1    3    3    0    0 -0.56591022570E+01 -0.49549014336E+00 -0.12205572963E+01  0.58103966485E+01  0.51100000000E-03 0. -1.
        -11    1    3    3    0    0 -0.13989492520E+02 -0.57156972775E+01 -0.11757236131E+02  0.19147002324E+02  0.51100000000E-03 0.  1.
         12    1    3    3    0    0 -0.17875480047E+02 -0.93204410458E+01 -0.65113268770E+01  0.21184918832E+02  0.00000000000E+00 0. -1.
</event>
<event>
 7    1  0.3708346E-009  0.4614232E+02  0.7816164E-02  0.1320468E+00
        -11   -1    0    0    0    0  0.00000000000E+00  0.00000000000E+00  0.45593999997E+02  0.45594000000E+02  0.51100000000E-03 0. -1.
         11   -1    0    0    0    0 -0.00000000000E+00 -0.00000000000E+00 -0.45593999997E+02  0.45594000000E+02  0.51100000000E-03 0.  1.
    9900012    2    1    2    0    0 -0.21316080504E+02  0.33640994391E+01  0.39540119376E+02  0.46142317705E+02  0.99999994910E+01 0.  0.
        -12    1    1    2    0    0  0.21316080504E+02 -0.33640994391E+01 -0.39540119376E+02  0.45045682295E+02  0.00000000000E+00 0.  1.
         11    1    3    3    0    0 -0.16749352239E+02  0.15267071724E+01  0.24622981938E+02  0.29818834233E+02  0.51100000000E-03 0. -1.
        -11    1    3    3    0    0 -0.54671712989E+01  0.16045755868E+01  0.12751364101E+02  0.13966456656E+02  0.51100000000E-03 0.  1.
         12    1    3    3    0    0  0.90044303422E+00  0.23281668002E+00  0.21657733370E+01  0.23570268160E+01  0.00000000000E+00 0. -1.
</event>
<event>
 7    1  0.3708346E-009  0.4614232E+02  0.7816164E-02  0.1320468E+00
        -11   -1    0    0    0    0  0.00000000000E+00  0.00000000000E+00  0.45593999997E+02  0.45594000000E+02  0.51100000000E-03 0. -1.
         11   -1    0    0    0    0 -0.00000000000E+00 -0.00000000000E+00 -0.45593999997E+02  0.45594000000E+02  0.51100000000E-03 0.  1.
    9900012    2    1    2    0    0 -0.26588527372E+01  0.99047964158E+01  0.43862729317E+02  0.46142317487E+02  0.99999975049E+01 0.  0.
        -12    1    1    2    0    0  0.26588527372E+01 -0.99047964158E+01 -0.43862729317E+02  0.45045682513E+02  0.00000000000E+00 0.  1.
         11    1    3    3    0    0  0.73130650477E+00  0.22444668413E+01  0.61158143922E+01  0.65555798025E+01  0.51100000000E-03 0. -1.
        -11    1    3    3    0    0  0.12710379430E+01 -0.13006996298E+01  0.63216752370E+01  0.65780646883E+01  0.51100000000E-03 0.  1.
        -12    1    3    3    0    0 -0.46611971850E+01  0.89610292043E+01  0.31425239687E+02  0.33008672997E+02  0.00000000000E+00 0.  1.
</event>
<event>
 7    1  0.3708346E-009  0.4614232E+02  0.7816164E-02  0.1320468E+00
        -11   -1    0    0    0    0  0.00000000000E+00  0.00000000000E+00  0.45593999997E+02  0.45594000000E+02  0.51100000000E-03 0. -1.
         11   -1    0    0    0    0 -0.00000000000E+00 -0.00000000000E+00 -0.45593999997E+02  0.45594000000E+02  0.51100000000E-03 0.  1.
    9900012    2    1    2    0    0  0.25058751481E+02 -0.32995931255E+02  0.17676003023E+02  0.46142316655E+02  0.99999899107E+01 0.  0.
        -12    1    1    2    0    0 -0.25058751481E+02  0.32995931255E+02 -0.17676003023E+02  0.45045683345E+02  0.00000000000E+00 0.  1.
         11    1    3    3    0    0  0.91722034764E+01 -0.10879446138E+02  0.95515292340E+01  0.17138359777E+02  0.51100000000E-03 0. -1.
        -11    1    3    3    0    0  0.24435863119E+01 -0.54627275331E+01  0.40263808841E+01  0.72127837517E+01  0.51100000000E-03 0.  1.
        -12    1    3    3    0    0  0.13442961692E+02 -0.16653757584E+02  0.40980929046E+01  0.21791173126E+02  0.00000000000E+00 0.  1.
</event>
<event>
 7    1  0.3708346E-009  0.4614232E+02  0.7816164E-02  0.1320468E+00
        -11   -1    0    0    0    0  0.00000000000E+00  0.00000000000E+00  0.45593999997E+02  0.45594000000E+02  0.51100000000E-03 0.  1.
         11   -1    0    0    0    0 -0.00000000000E+00 -0.00000000000E+00 -0.45593999997E+02  0.45594000000E+02  0.51100000000E-03 0. -1.
    9900012    2    1    2    0    0  0.24831537123E+02 -0.55251275502E+01 -0.37175007433E+02  0.46142318209E+02  0.10000004088E+02 0.  0.
        -12    1    1    2    0    0 -0.24831537123E+02  0.55251275502E+01  0.37175007433E+02  0.45045681791E+02  0.00000000000E+00 0.  1.
         11    1    3    3    0    0  0.87069458091E+01 -0.24769899103E+01 -0.18347482878E+02  0.20459142517E+02  0.51100000000E-03 0. -1.
        -11    1    3    3    0    0  0.61294651549E+01 -0.39400867928E+01 -0.63029807079E+01  0.96344274913E+01  0.51100000000E-03 0.  1.
        -12    1    3    3    0    0  0.99951261593E+01  0.89194915300E+00 -0.12524543847E+02  0.16048748201E+02  0.00000000000E+00 0.  1.
</event>
<event>
 7    1  0.3708346E-009  0.4614232E+02  0.7816164E-02  0.1320468E+00
        -11   -1    0    0    0    0  0.00000000000E+00  0.00000000000E+00  0.45593999997E+02  0.45594000000E+02  0.51100000000E-03 0.  1.
         11   -1    0    0    0    0 -0.00000000000E+00 -0.00000000000E+00 -0.45593999997E+02  0.45594000000E+02  0.51100000000E-03 0. -1.
    9900012    2    1    2    0    0  0.13598827643E+02 -0.13678216204E+02 -0.40707393366E+02  0.46142316672E+02  0.99999900700E+01 0.  0.
        -12    1    1    2    0    0 -0.13598827643E+02  0.13678216204E+02  0.40707393366E+02  0.45045683328E+02  0.00000000000E+00 0.  1.
         11    1    3    3    0    0  0.32319707082E+01 -0.66430919474E-01 -0.11357015968E+02  0.11808126849E+02  0.51100000000E-03 0.  1.
        -11    1    3    3    0    0  0.48240895881E+01 -0.10193061360E+02 -0.17697066593E+02  0.20984673133E+02  0.51100000000E-03 0. -1.
         12    1    3    3    0    0  0.55427673467E+01 -0.34187239249E+01 -0.11653310805E+02  0.13349516690E+02  0.00000000000E+00 0. -1.
</event>
<event>
 7    1  0.3708346E-009  0.4614232E+02  0.7816164E-02  0.1320468E+00
        -11   -1    0    0    0    0  0.00000000000E+00  0.00000000000E+00  0.45593999997E+02  0.45594000000E+02  0.51100000000E-03 0.  1.
         11   -1    0    0    0    0 -0.00000000000E+00 -0.00000000000E+00 -0.45593999997E+02  0.45594000000E+02  0.51100000000E-03 0. -1.
    9900012    2    1    2    0    0 -0.78975803699E+01  0.25346364192E+02 -0.36390980777E+02  0.46142318349E+02  0.10000005364E+02 0.  0.
        -12    1    1    2    0    0  0.78975803699E+01 -0.25346364192E+02  0.36390980777E+02  0.45045681651E+02  0.00000000000E+00 0.  1.
         11    1    3    3    0    0 -0.40539610824E+01  0.17683408720E+02 -0.22267741759E+02  0.28722636852E+02  0.51100000000E-03 0. -1.
        -11    1    3    3    0    0  0.10603365336E+01  0.58257109212E+00 -0.51502671191E+00  0.13148974930E+01  0.51100000000E-03 0.  1.
        -12    1    3    3    0    0 -0.49039558211E+01  0.70803843801E+01 -0.13608212306E+02  0.16104784005E+02  0.00000000000E+00 0.  1.
</event>
<event>
 7    1  0.3708346E-009  0.4614232E+02  0.7816164E-02  0.1320468E+00
        -11   -1    0    0    0    0  0.00000000000E+00  0.00000000000E+00  0.45593999997E+02  0.45594000000E+02  0.51100000000E-03 0.  1.
         11   -1    0    0    0    0 -0.00000000000E+00 -0.00000000000E+00 -0.45593999997E+02  0.45594000000E+02  0.51100000000E-03 0. -1.
    9900012    2    1    2    0    0 -0.22619031567E+02 -0.35113342471E+02 -0.16868492585E+02  0.46142318180E+02  0.10000003823E+02 0.  0.
        -12    1    1    2    0    0  0.22619031567E+02  0.35113342471E+02  0.16868492585E+02  0.45045681820E+02  0.00000000000E+00 0.  1.
         11    1    3    3    0    0 -0.51790350893E+00 -0.11873892434E+01 -0.96350001355E+00  0.16144503081E+01  0.51100000000E-03 0. -1.
        -11    1    3    3    0    0 -0.15171532373E+02 -0.22020997839E+02 -0.15144537547E+02  0.30732015199E+02  0.51100000000E-03 0.  1.
        -12    1    3    3    0    0 -0.69295956847E+01 -0.11904955388E+02 -0.76045502461E+00  0.13795852674E+02  0.00000000000E+00 0.  1.
</event>
<event>
 7    1  0.3708346E-009  0.4614232E+02  0.7816164E-02  0.1320468E+00
        -11   -1    0    0    0    0  0.00000000000E+00  0.00000000000E+00  0.45593999997E+02  0.45594000000E+02  0.51100000000E-03 0. -1.
         11   -1    0    0    0    0 -0.00000000000E+00 -0.00000000000E+00 -0.45593999997E+02  0.45594000000E+02  0.51100000000E-03 0.  1.
    9900012    2    1    2    0    0 -0.29820071184E+01 -0.39381676335E+02  0.21663441236E+02  0.46142317814E+02  0.10000000484E+02 0.  0.
        -12    1    1    2    0    0  0.29820071184E+01  0.39381676335E+02 -0.21663441236E+02  0.45045682186E+02  0.00000000000E+00 0.  1.
         11    1    3    3    0    0 -0.13309986803E+01 -0.12625592735E+01 -0.35442939591E+00  0.18684843762E+01  0.51100000000E-03 0. -1.
        -11    1    3    3    0    0  0.93118744492E+00 -0.10267694655E+02  0.43479538996E+01  0.11189162925E+02  0.51100000000E-03 0.  1.
         12    1    3    3    0    0 -0.25821958830E+01 -0.27851422407E+02  0.17669916733E+02  0.33084670513E+02  0.00000000000E+00 0. -1.
</event>
<event>
 7    1  0.3708346E-009  0.4614232E+02  0.7816164E-02  0.1320468E+00
        -11   -1    0    0    0    0  0.00000000000E+00  0.00000000000E+00  0.45593999997E+02  0.45594000000E+02  0.51100000000E-03 0.  1.
         11   -1    0    0    0    0 -0.00000000000E+00 -0.00000000000E+00 -0.45593999997E+02  0.45594000000E+02  0.51100000000E-03 0. -1.
    9900012    2    1    2    0    0  0.22518829354E+02 -0.33620750807E+02 -0.19790423003E+02  0.46142318709E+02  0.10000008647E+02 0.  0.
        -12    1    1    2    0    0 -0.22518829354E+02  0.33620750807E+02  0.19790423003E+02  0.45045681291E+02  0.00000000000E+00 0.  1.
         11    1    3    3    0    0  0.56848449585E+01 -0.37117358417E+01 -0.22552783990E+01  0.71540705950E+01  0.51100000000E-03 0.  1.
        -11    1    3    3    0    0  0.56670548391E+01 -0.96949296128E+01 -0.89155740532E+01  0.14338571467E+02  0.51100000000E-03 0. -1.
         12    1    3    3    0    0  0.11166929557E+02 -0.20214085352E+02 -0.86195705513E+01  0.24649676648E+02  0.00000000000E+00 0. -1.
</event>
<event>
 7    1  0.3708346E-009  0.4614231E+02  0.7816164E-02  0.1320468E+00
        -11   -1    0    0    0    0  0.00000000000E+00  0.00000000000E+00  0.45593999997E+02  0.45594000000E+02  0.51100000000E-03 0.  1.
         11   -1    0    0    0    0 -0.00000000000E+00 -0.00000000000E+00 -0.45593999997E+02  0.45594000000E+02  0.51100000000E-03 0. -1.
    9900012    2    1    2    0    0  0.11445356133E+02  0.40470335326E+02 -0.16132872034E+02  0.46142314540E+02  0.99999706299E+01 0.  0.
        -12    1    1    2    0    0 -0.11445356133E+02 -0.40470335326E+02  0.16132872034E+02  0.45045685460E+02  0.00000000000E+00 0.  1.
         11    1    3    3    0    0  0.66324869507E+01  0.25150525226E+02 -0.79796974691E+01  0.27206881009E+02  0.51100000000E-03 0. -1.
        -11    1    3    3    0    0  0.15479759701E+01  0.58018789754E+01 -0.32361023379E-01  0.60049210441E+01  0.51100000000E-03 0.  1.
         12    1    3    3    0    0  0.32648932125E+01  0.95179311254E+01 -0.81208135420E+01  0.12930512487E+02  0.00000000000E+00 0. -1.
</event>
<event>
 7    1  0.3708346E-009  0.4614232E+02  0.7816164E-02  0.1320468E+00
        -11   -1    0    0    0    0  0.00000000000E+00  0.00000000000E+00  0.45593999997E+02  0.45594000000E+02  0.51100000000E-03 0. -1.
         11   -1    0    0    0    0 -0.00000000000E+00 -0.00000000000E+00 -0.45593999997E+02  0.45594000000E+02  0.51100000000E-03 0.  1.
    9900012    2    1    2    0    0 -0.61624650088E+01  0.38799032340E+02  0.22040249790E+02  0.46142317673E+02  0.99999991947E+01 0.  0.
        -12    1    1    2    0    0  0.61624650088E+01 -0.38799032340E+02 -0.22040249790E+02  0.45045682327E+02  0.00000000000E+00 0.  1.
         11    1    3    3    0    0 -0.29922485395E+01  0.50635820076E+01  0.34028925818E+01  0.67950785319E+01  0.51100000000E-03 0.  1.
        -11    1    3    3    0    0  0.34362166132E+00  0.74831782059E+01  0.10762549772E+01  0.75679823563E+01  0.51100000000E-03 0. -1.
         12    1    3    3    0    0 -0.35138381306E+01  0.26252272127E+02  0.17561102231E+02  0.31779256785E+02  0.00000000000E+00 0. -1.
</event>
<event>
 7    1  0.3708346E-009  0.4614232E+02  0.7816164E-02  0.1320468E+00
        -11   -1    0    0    0    0  0.00000000000E+00  0.00000000000E+00  0.45593999997E+02  0.45594000000E+02  0.51100000000E-03 0.  1.
         11   -1    0    0    0    0 -0.00000000000E+00 -0.00000000000E+00 -0.45593999997E+02  0.45594000000E+02  0.51100000000E-03 0. -1.
    9900012    2    1    2    0    0 -0.36031297447E+02  0.25637567973E+02 -0.85775491078E+01  0.46142316123E+02  0.99999850586E+01 0.  0.
        -12    1    1    2    0    0  0.36031297447E+02 -0.25637567973E+02  0.85775491078E+01  0.45045683877E+02  0.00000000000E+00 0.  1.
         11    1    3    3    0    0 -0.33553175783E+01  0.19835496115E+01 -0.35300068998E+00  0.39137239122E+01  0.51100000000E-03 0. -1.
        -11    1    3    3    0    0 -0.18711114692E+02  0.19079210000E+02 -0.54925110270E+01  0.27281674159E+02  0.51100000000E-03 0.  1.
        -12    1    3    3    0    0 -0.13964865176E+02  0.45748083612E+01 -0.27320373908E+01  0.14946918051E+02  0.00000000000E+00 0.  1.
</event>
<event>
 7    1  0.3708346E-009  0.4614232E+02  0.7816164E-02  0.1320468E+00
        -11   -1    0    0    0    0  0.00000000000E+00  0.00000000000E+00  0.45593999997E+02  0.45594000000E+02  0.51100000000E-03 0.  1.
         11   -1    0    0    0    0 -0.00000000000E+00 -0.00000000000E+00 -0.45593999997E+02  0.45594000000E+02  0.51100000000E-03 0. -1.
    9900012    2    1    2    0    0  0.36095796092E+02 -0.15319219104E+02 -0.22170447238E+02  0.46142315409E+02  0.99999785552E+01 0.  0.
        -12    1    1    2    0    0 -0.36095796092E+02  0.15319219104E+02  0.22170447238E+02  0.45045684591E+02  0.00000000000E+00 0.  1.
         11    1    3    3    0    0  0.32181707002E+01 -0.11275155154E+01 -0.35829017638E+01  0.49462206990E+01  0.51100000000E-03 0. -1.
        -11    1    3    3    0    0  0.13822276412E+02 -0.20952052435E+01 -0.92907791530E+01  0.16785821033E+02  0.51100000000E-03 0.  1.
        -12    1    3    3    0    0  0.19055348980E+02 -0.12096498345E+02 -0.92967663211E+01  0.24410273677E+02  0.00000000000E+00 0.  1.
</event>
<event>
 7    1  0.3708346E-009  0.4614232E+02  0.7816164E-02  0.1320468E+00
        -11   -1    0    0    0    0  0.00000000000E+00  0.00000000000E+00  0.45593999997E+02  0.45594000000E+02  0.51100000000E-03 0.  1.
         11   -1    0    0    0    0 -0.00000000000E+00 -0.00000000000E+00 -0.45593999997E+02  0.45594000000E+02  0.51100000000E-03 0. -1.
    9900012    2    1    2    0    0 -0.22439989824E+02  0.35726282764E+02 -0.15785838762E+02  0.46142321752E+02  0.10000036389E+02 0.  0.
        -12    1    1    2    0    0  0.22439989824E+02 -0.35726282764E+02  0.15785838762E+02  0.45045678248E+02  0.00000000000E+00 0.  1.
         11    1    3    3    0    0 -0.10871239356E+01  0.12276689933E+01  0.39810389294E+00  0.16874526894E+01  0.51100000000E-03 0. -1.
        -11    1    3    3    0    0 -0.28304828329E+01  0.14837769549E+01 -0.29595605573E+01  0.43557118905E+01  0.51100000000E-03 0.  1.
        -12    1    3    3    0    0 -0.18522383056E+02  0.33014836816E+02 -0.13224382098E+02  0.40099157172E+02  0.00000000000E+00 0.  1.
</event>
<event>
 7    1  0.3708346E-009  0.4614232E+02  0.7816164E-02  0.1320468E+00
        -11   -1    0    0    0    0  0.00000000000E+00  0.00000000000E+00  0.45593999997E+02  0.45594000000E+02  0.51100000000E-03 0. -1.
         11   -1    0    0    0    0 -0.00000000000E+00 -0.00000000000E+00 -0.45593999997E+02  0.45594000000E+02  0.51100000000E-03 0.  1.
    9900012    2    1    2    0    0 -0.30232339322E+02  0.18168317918E+02 -0.28018410454E+02  0.46142318284E+02  0.10000004770E+02 0.  0.
        -12    1    1    2    0    0  0.30232339322E+02 -0.18168317918E+02  0.28018410454E+02  0.45045681716E+02  0.00000000000E+00 0.  1.
         11    1    3    3    0    0 -0.15115547478E+02  0.96980620472E+01 -0.11142230589E+02  0.21134840567E+02  0.51100000000E-03 0. -1.
        -11    1    3    3    0    0 -0.12082313767E+02  0.73100386750E+01 -0.97055627950E+01  0.17135253743E+02  0.51100000000E-03 0.  1.
        -12    1    3    3    0    0 -0.30344780777E+01  0.11602171954E+01 -0.71706170698E+01  0.78722239747E+01  0.00000000000E+00 0.  1.
</event>
<event>
 7    1  0.3708346E-009  0.4614232E+02  0.7816164E-02  0.1320468E+00
        -11   -1    0    0    0    0  0.00000000000E+00  0.00000000000E+00  0.45593999997E+02  0.45594000000E+02  0.51100000000E-03 0.  1.
         11   -1    0    0    0    0 -0.00000000000E+00 -0.00000000000E+00 -0.45593999997E+02  0.45594000000E+02  0.51100000000E-03 0. -1.
    9900012    2    1    2    0    0  0.16226387823E+02 -0.32691994837E+02 -0.26401729784E+02  0.46142317368E+02  0.99999964141E+01 0.  0.
        -12    1    1    2    0    0 -0.16226387823E+02  0.32691994837E+02  0.26401729784E+02  0.45045682632E+02  0.00000000000E+00 0.  1.
         11    1    3    3    0    0  0.11174172223E+02 -0.19782515829E+02 -0.20531180096E+02  0.30622531146E+02  0.51100000000E-03 0. -1.
        -11    1    3    3    0    0  0.61913104556E-01 -0.25192157091E+00  0.44856906339E+00  0.51818160538E+00  0.51100000000E-03 0.  1.
         12    1    3    3    0    0  0.49903024952E+01 -0.12657557437E+02 -0.63191187509E+01  0.15001604616E+02  0.00000000000E+00 0. -1.
</event>
<event>
 7    1  0.3708346E-009  0.4614232E+02  0.7816164E-02  0.1320468E+00
        -11   -1    0    0    0    0  0.00000000000E+00  0.00000000000E+00  0.45593999997E+02  0.45594000000E+02  0.51100000000E-03 0.  1.
         11   -1    0    0    0    0 -0.00000000000E+00 -0.00000000000E+00 -0.45593999997E+02  0.45594000000E+02  0.51100000000E-03 0. -1.
    9900012    2    1    2    0    0 -0.14636454023E+02 -0.11231664192E+02 -0.41094249961E+02  0.46142318223E+02  0.10000004216E+02 0.  0.
        -12    1    1    2    0    0  0.14636454023E+02  0.11231664192E+02  0.41094249961E+02  0.45045681777E+02  0.00000000000E+00 0.  1.
         11    1    3    3    0    0 -0.16984739940E+01 -0.46158559299E+01 -0.15397920284E+02  0.16164370981E+02  0.51100000000E-03 0. -1.
        -11    1    3    3    0    0 -0.11396296094E+02 -0.71124496558E+01 -0.24578068986E+02  0.28009712246E+02  0.51100000000E-03 0.  1.
        -12    1    3    3    0    0 -0.15416839351E+01  0.49664139381E+00 -0.11182606913E+01  0.19682349970E+01  0.00000000000E+00 0.  1.
</event>
<event>
 7    1  0.3708346E-009  0.4614232E+02  0.7816164E-02  0.1320468E+00
        -11   -1    0    0    0    0  0.00000000000E+00  0.00000000000E+00  0.45593999997E+02  0.45594000000E+02  0.51100000000E-03 0. -1.
         11   -1    0    0    0    0 -0.00000000000E+00 -0.00000000000E+00 -0.45593999997E+02  0.45594000000E+02  0.51100000000E-03 0.  1.
    9900012    2    1    2    0    0 -0.10354907409E+02  0.43832216203E+02  0.79130219016E+00  0.46142318255E+02  0.10000004499E+02 0.  0.
        -12    1    1    2    0    0  0.10354907409E+02 -0.43832216203E+02 -0.79130219016E+00  0.45045681745E+02  0.00000000000E+00 0.  1.
         11    1    3    3    0    0 -0.40975836905E+01  0.20218405899E+02 -0.14017775769E+00  0.20629924364E+02  0.51100000000E-03 0. -1.
        -11    1    3    3    0    0  0.92338222408E+00  0.47936798524E+01  0.21452792585E+01  0.53323751385E+01  0.51100000000E-03 0.  1.
         12    1    3    3    0    0 -0.71807059426E+01  0.18820130452E+02 -0.12137993107E+01  0.20180018752E+02  0.00000000000E+00 0. -1.
</event>
<event>
 7    1  0.3708346E-009  0.4614232E+02  0.7816164E-02  0.1320468E+00
        -11   -1    0    0    0    0  0.00000000000E+00  0.00000000000E+00  0.45593999997E+02  0.45594000000E+02  0.51100000000E-03 0. -1.
         11   -1    0    0    0    0 -0.00000000000E+00 -0.00000000000E+00 -0.45593999997E+02  0.45594000000E+02  0.51100000000E-03 0.  1.
    9900012    2    1    2    0    0  0.12065584076E+02  0.36389760184E+02  0.23649959120E+02  0.46142317280E+02  0.99999956121E+01 0.  0.
        -12    1    1    2    0    0 -0.12065584076E+02 -0.36389760184E+02 -0.23649959120E+02  0.45045682720E+02  0.00000000000E+00 0.  1.
         11    1    3    3    0    0 -0.22960480228E+00  0.44936177803E+01  0.23336064250E+01  0.50686327869E+01  0.51100000000E-03 0. -1.
        -11    1    3    3    0    0  0.69564698694E+00  0.41078987823E+01 -0.23935110264E-01  0.41664529623E+01  0.51100000000E-03 0.  1.
        -12    1    3    3    0    0  0.11599541892E+02  0.27788243621E+02  0.21340287806E+02  0.36907231531E+02  0.00000000000E+00 0.  1.
</event>
<event>
 7    1  0.3708346E-009  0.4614232E+02  0.7816164E-02  0.1320468E+00
        -11   -1    0    0    0    0  0.00000000000E+00  0.00000000000E+00  0.45593999997E+02  0.45594000000E+02  0.51100000000E-03 0. -1.
         11   -1    0    0    0    0 -0.00000000000E+00 -0.00000000000E+00 -0.45593999997E+02  0.45594000000E+02  0.51100000000E-03 0.  1.
    9900012    2    1    2    0    0  0.10338831720E+02 -0.43101627904E+02 -0.80294274613E+01  0.46142317913E+02  0.10000001388E+02 0.  0.
        -12    1    1    2    0    0 -0.10338831720E+02  0.43101627904E+02  0.80294274613E+01  0.45045682087E+02  0.00000000000E+00 0.  1.
         11    1    3    3    0    0  0.68612985752E+01 -0.27555713003E+02 -0.54381443611E+01  0.28913113835E+02  0.51100000000E-03 0. -1.
        -11    1    3    3    0    0  0.36430477099E+01 -0.82040622307E+01 -0.38695572643E+01  0.97750655949E+01  0.51100000000E-03 0.  1.
         12    1    3    3    0    0 -0.16551456549E+00 -0.73418526697E+01  0.12782741641E+01  0.74541384836E+01  0.00000000000E+00 0. -1.
</event>
<event>
 7    1  0.3708346E-009  0.4614232E+02  0.7816164E-02  0.1320468E+00
        -11   -1    0    0    0    0  0.00000000000E+00  0.00000000000E+00  0.45593999997E+02  0.45594000000E+02  0.51100000000E-03 0. -1.
         11   -1    0    0    0    0 -0.00000000000E+00 -0.00000000000E+00 -0.45593999997E+02  0.45594000000E+02  0.51100000000E-03 0.  1.
    9900012    2    1    2    0    0  0.36380519162E+02 -0.20466473481E+02  0.16932062052E+02  0.46142318336E+02  0.10000005244E+02 0.  0.
        -12    1    1    2    0    0 -0.36380519162E+02  0.20466473481E+02 -0.16932062052E+02  0.45045681664E+02  0.00000000000E+00 0.  1.
         11    1    3    3    0    0  0.30387610433E+02 -0.13213116241E+02  0.10600994814E+02  0.34790435466E+02  0.51100000000E-03 0. -1.
        -11    1    3    3    0    0  0.32288636829E+01 -0.37083725791E+01  0.35707306889E+01  0.60768170765E+01  0.51100000000E-03 0.  1.
         12    1    3    3    0    0  0.27640450463E+01 -0.35449846610E+01  0.27603365494E+01  0.52750657940E+01  0.00000000000E+00 0. -1.
</event>
<event>
 7    1  0.3708346E-009  0.4614232E+02  0.7816164E-02  0.1320468E+00
        -11   -1    0    0    0    0  0.00000000000E+00  0.00000000000E+00  0.45593999997E+02  0.45594000000E+02  0.51100000000E-03 0.  1.
         11   -1    0    0    0    0 -0.00000000000E+00 -0.00000000000E+00 -0.45593999997E+02  0.45594000000E+02  0.51100000000E-03 0. -1.
    9900012    2    1    2    0    0 -0.78268043012E+01 -0.48148069881E+00 -0.44357894539E+02  0.46142317664E+02  0.99999991138E+01 0.  0.
        -12    1    1    2    0    0  0.78268043012E+01  0.48148069881E+00  0.44357894539E+02  0.45045682336E+02  0.00000000000E+00 0.  1.
         11    1    3    3    0    0 -0.25165040552E+00 -0.15177389853E+01 -0.17798765709E+02  0.17865131417E+02  0.51100000000E-03 0. -1.
        -11    1    3    3    0    0 -0.39271624114E+01  0.22677113432E+01 -0.69850409218E+01  0.83280199497E+01  0.51100000000E-03 0.  1.
        -12    1    3    3    0    0 -0.36479914843E+01 -0.12314530567E+01 -0.19574087908E+02  0.19949166297E+02  0.00000000000E+00 0.  1.
</event>
<event>
 7    1  0.3708346E-009  0.4614232E+02  0.7816164E-02  0.1320468E+00
        -11   -1    0    0    0    0  0.00000000000E+00  0.00000000000E+00  0.45593999997E+02  0.45594000000E+02  0.51100000000E-03 0.  1.
         11   -1    0    0    0    0 -0.00000000000E+00 -0.00000000000E+00 -0.45593999997E+02  0.45594000000E+02  0.51100000000E-03 0. -1.
    9900012    2    1    2    0    0  0.26458879854E+02  0.18582978507E+02 -0.31364218694E+02  0.46142316216E+02  0.99999859066E+01 0.  0.
        -12    1    1    2    0    0 -0.26458879854E+02 -0.18582978507E+02  0.31364218694E+02  0.45045683784E+02  0.00000000000E+00 0.  1.
         11    1    3    3    0    0  0.63547611377E+01  0.25704556664E+01 -0.58013619013E+01  0.89803135592E+01  0.51100000000E-03 0. -1.
        -11    1    3    3    0    0  0.15302088207E+01  0.48339532581E+00  0.40887936956E+00  0.16560171122E+01  0.51100000000E-03 0.  1.
        -12    1    3    3    0    0  0.18573909895E+02  0.15529127515E+02 -0.25971736162E+02  0.35505985544E+02  0.00000000000E+00 0.  1.
</event>
<event>
 7    1  0.3895313E-009  0.4614232E+02  0.7816164E-02  0.1320468E+00
        -11   -1    0    0    0    0  0.00000000000E+00  0.00000000000E+00  0.45593999997E+02  0.45594000000E+02  0.51100000000E-03 0.  1.
         11   -1    0    0    0    0 -0.00000000000E+00 -0.00000000000E+00 -0.45593999997E+02  0.45594000000E+02  0.51100000000E-03 0. -1.
    9900012    2    1    2    0    0 -0.36902661279E+00  0.40993104744E+02 -0.18669294606E+02  0.46142318983E+02  0.10000011144E+02 0.  0.
        -12    1    1    2    0    0  0.36902661279E+00 -0.40993104744E+02  0.18669294606E+02  0.45045681017E+02  0.00000000000E+00 0.  1.
         11    1    3    3    0    0 -0.23837427497E+01  0.18580927802E+02 -0.79876715845E+01  0.20365068256E+02  0.51100000000E-03 0. -1.
        -11    1    3    3    0    0  0.33794527815E+01  0.16769484143E+02 -0.54266585228E+01  0.17946724562E+02  0.51100000000E-03 0.  1.
        -12    1    3    3    0    0 -0.13647366446E+01  0.56426927987E+01 -0.52549644991E+01  0.78305261647E+01  0.00000000000E+00 0.  1.
</event>
<event>
 7    1  0.3708346E-009  0.4614232E+02  0.7816164E-02  0.1320468E+00
        -11   -1    0    0    0    0  0.00000000000E+00  0.00000000000E+00  0.45593999997E+02  0.45594000000E+02  0.51100000000E-03 0.  1.
         11   -1    0    0    0    0 -0.00000000000E+00 -0.00000000000E+00 -0.45593999997E+02  0.45594000000E+02  0.51100000000E-03 0. -1.
    9900012    2    1    2    0    0  0.15013521313E+02 -0.18934542438E+02 -0.38015665886E+02  0.46142316830E+02  0.99999915095E+01 0.  0.
        -12    1    1    2    0    0 -0.15013521313E+02  0.18934542438E+02  0.38015665886E+02  0.45045683170E+02  0.00000000000E+00 0.  1.
         11    1    3    3    0    0  0.25782489449E+01 -0.30750748602E+01 -0.87445186180E+01  0.96213335427E+01  0.51100000000E-03 0. -1.
        -11    1    3    3    0    0  0.12250271273E+02 -0.14388720269E+02 -0.29487345159E+02  0.35022963068E+02  0.51100000000E-03 0.  1.
        -12    1    3    3    0    0  0.18500109497E+00 -0.14707473084E+01  0.21619789164E+00  0.14980202197E+01  0.00000000000E+00 0.  1.
</event>
<event>
 7    1  0.3708346E-009  0.4614232E+02  0.7816164E-02  0.1320468E+00
        -11   -1    0    0    0    0  0.00000000000E+00  0.00000000000E+00  0.45593999997E+02  0.45594000000E+02  0.51100000000E-03 0.  1.
         11   -1    0    0    0    0 -0.00000000000E+00 -0.00000000000E+00 -0.45593999997E+02  0.45594000000E+02  0.51100000000E-03 0. -1.
    9900012    2    1    2    0    0  0.32556092771E+02  0.30819863923E+02  0.43988913844E+01  0.46142318363E+02  0.10000005488E+02 0.  0.
        -12    1    1    2    0    0 -0.32556092771E+02 -0.30819863923E+02 -0.43988913844E+01  0.45045681637E+02  0.00000000000E+00 0.  1.
         11    1    3    3    0    0  0.15517703817E+02  0.14417581364E+02 -0.20216676339E+01  0.21277991550E+02  0.51100000000E-03 0.  1.
        -11    1    3    3    0    0  0.17168979584E+02  0.15730338077E+02  0.64985778051E+01  0.24175378171E+02  0.51100000000E-03 0. -1.
         12    1    3    3    0    0 -0.13059062987E+00  0.67194448184E+00 -0.78018786889E-01  0.68894864133E+00  0.00000000000E+00 0. -1.
</event>
<event>
 7    1  0.3708346E-009  0.4614232E+02  0.7816164E-02  0.1320468E+00
        -11   -1    0    0    0    0  0.00000000000E+00  0.00000000000E+00  0.45593999997E+02  0.45594000000E+02  0.51100000000E-03 0. -1.
         11   -1    0    0    0    0 -0.00000000000E+00 -0.00000000000E+00 -0.45593999997E+02  0.45594000000E+02  0.51100000000E-03 0.  1.
    9900012    2    1    2    0    0 -0.11629813085E+02 -0.25938361250E+02  0.34943700887E+02  0.46142319093E+02  0.10000012141E+02 0.  0.
        -12    1    1    2    0    0  0.11629813085E+02  0.25938361250E+02 -0.34943700887E+02  0.45045680907E+02  0.00000000000E+00 0.  1.
         11    1    3    3    0    0 -0.58125010885E+01 -0.19709369198E+02  0.20184335955E+02  0.28803677218E+02  0.51100000000E-03 0. -1.
        -11    1    3    3    0    0 -0.44527147894E+01 -0.39653935928E+01  0.73041847505E+01  0.94287926307E+01  0.51100000000E-03 0.  1.
        -12    1    3    3    0    0 -0.13645972067E+01 -0.22635984601E+01  0.74551801811E+01  0.79098492437E+01  0.00000000000E+00 0.  1.
</event>
<event>
 7    1  0.3708346E-009  0.4614232E+02  0.7816164E-02  0.1320468E+00
        -11   -1    0    0    0    0  0.00000000000E+00  0.00000000000E+00  0.45593999997E+02  0.45594000000E+02  0.51100000000E-03 0.  1.
         11   -1    0    0    0    0 -0.00000000000E+00 -0.00000000000E+00 -0.45593999997E+02  0.45594000000E+02  0.51100000000E-03 0. -1.
    9900012    2    1    2    0    0 -0.15552554205E+02  0.26943652456E+02 -0.32577159236E+02  0.46142315924E+02  0.99999832492E+01 0.  0.
        -12    1    1    2    0    0  0.15552554205E+02 -0.26943652456E+02  0.32577159236E+02  0.45045684076E+02  0.00000000000E+00 0.  1.
         11    1    3    3    0    0 -0.34289525063E+01  0.10927220185E+02 -0.10090702100E+02  0.15263817524E+02  0.51100000000E-03 0. -1.
        -11    1    3    3    0    0 -0.11148514177E+02  0.14315067592E+02 -0.16306665650E+02  0.24395037885E+02  0.51100000000E-03 0.  1.
        -12    1    3    3    0    0 -0.97508752114E+00  0.17013646785E+01 -0.61797914855E+01  0.64834605148E+01  0.00000000000E+00 0.  1.
</event>
<event>
 7    1  0.3708346E-009  0.4614232E+02  0.7816164E-02  0.1320468E+00
        -11   -1    0    0    0    0  0.00000000000E+00  0.00000000000E+00  0.45593999997E+02  0.45594000000E+02  0.51100000000E-03 0. -1.
         11   -1    0    0    0    0 -0.00000000000E+00 -0.00000000000E+00 -0.45593999997E+02  0.45594000000E+02  0.51100000000E-03 0.  1.
    9900012    2    1    2    0    0 -0.61930607050E+01 -0.36011849542E+02  0.26342099659E+02  0.46142317379E+02  0.99999965190E+01 0.  0.
        -12    1    1    2    0    0  0.61930607050E+01  0.36011849542E+02 -0.26342099659E+02  0.45045682621E+02  0.00000000000E+00 0.  1.
         11    1    3    3    0    0 -0.25223988512E+01 -0.18809655318E+02  0.19007117641E+02  0.26859563482E+02  0.51100000000E-03 0. -1.
        -11    1    3    3    0    0 -0.39105507838E+01 -0.12576203672E+02  0.59177307455E+01  0.14438588701E+02  0.51100000000E-03 0.  1.
         12    1    3    3    0    0  0.23988892997E+00 -0.46259905520E+01  0.14172512720E+01  0.48441651968E+01  0.00000000000E+00 0. -1.
</event>
<event>
 7    1  0.3708346E-009  0.4614232E+02  0.7816164E-02  0.1320468E+00
        -11   -1    0    0    0    0  0.00000000000E+00  0.00000000000E+00  0.45593999997E+02  0.45594000000E+02  0.51100000000E-03 0.  1.
         11   -1    0    0    0    0 -0.00000000000E+00 -0.00000000000E+00 -0.45593999997E+02  0.45594000000E+02  0.51100000000E-03 0. -1.
    9900012    2    1    2    0    0  0.34644140837E+02  0.14530566456E+01 -0.28753882997E+02  0.46142315908E+02  0.99999831002E+01 0.  0.
        -12    1    1    2    0    0 -0.34644140837E+02 -0.14530566456E+01  0.28753882997E+02  0.45045684092E+02  0.00000000000E+00 0.  1.
         11    1    3    3    0    0  0.11919344677E+02  0.22905280834E+01 -0.60421266197E+01  0.13558192755E+02  0.51100000000E-03 0. -1.
        -11    1    3    3    0    0  0.82674992562E+01  0.16381023914E+01 -0.10731933188E+02  0.13645853348E+02  0.51100000000E-03 0.  1.
         12    1    3    3    0    0  0.14457296903E+02 -0.24755738292E+01 -0.11979823189E+02  0.18938269805E+02  0.00000000000E+00 0. -1.
</event>
<event>
 7    1  0.3708346E-009  0.4614232E+02  0.7816164E-02  0.1320468E+00
        -11   -1    0    0    0    0  0.00000000000E+00  0.00000000000E+00  0.45593999997E+02  0.45594000000E+02  0.51100000000E-03 0.  1.
         11   -1    0    0    0    0 -0.00000000000E+00 -0.00000000000E+00 -0.45593999997E+02  0.45594000000E+02  0.51100000000E-03 0. -1.
    9900012    2    1    2    0    0 -0.10442851917E+01 -0.14888524759E+02 -0.42501233015E+02  0.46142317533E+02  0.99999979240E+01 0.  0.
        -12    1    1    2    0    0  0.10442851917E+01  0.14888524759E+02  0.42501233015E+02  0.45045682467E+02  0.00000000000E+00 0.  1.
         11    1    3    3    0    0  0.27441340319E+00  0.40586509942E+00  0.38053161693E-01  0.49140360094E+00  0.51100000000E-03 0. -1.
        -11    1    3    3    0    0 -0.24912283768E+01 -0.20910204490E+01 -0.99878650034E+01  0.10504096007E+02  0.51100000000E-03 0.  1.
         12    1    3    3    0    0  0.11725297820E+01 -0.13203369409E+02 -0.32551421174E+02  0.35146817925E+02  0.00000000000E+00 0. -1.
</event>
<event>
 7    1  0.3708346E-009  0.4614232E+02  0.7816164E-02  0.1320468E+00
        -11   -1    0    0    0    0  0.00000000000E+00  0.00000000000E+00  0.45593999997E+02  0.45594000000E+02  0.51100000000E-03 0. -1.
         11   -1    0    0    0    0 -0.00000000000E+00 -0.00000000000E+00 -0.45593999997E+02  0.45594000000E+02  0.51100000000E-03 0.  1.
    9900012    2    1    2    0    0 -0.23327667257E+02  0.26504589449E+02 -0.27972132393E+02  0.46142317498E+02  0.99999975970E+01 0.  0.
        -12    1    1    2    0    0  0.23327667257E+02 -0.26504589449E+02  0.27972132393E+02  0.45045682502E+02  0.00000000000E+00 0.  1.
         11    1    3    3    0    0 -0.54401288206E+01  0.37856147923E+01 -0.41040248373E+01  0.77954410438E+01  0.51100000000E-03 0. -1.
        -11    1    3    3    0    0 -0.86509266530E+01  0.63960017778E+01 -0.54496117207E+01  0.12060084530E+02  0.51100000000E-03 0.  1.
        -12    1    3    3    0    0 -0.92366117830E+01  0.16322972879E+02 -0.18418495835E+02  0.26286791924E+02  0.00000000000E+00 0.  1.
</event>
<event>
 7    1  0.3708346E-009  0.4614232E+02  0.7816164E-02  0.1320468E+00
        -11   -1    0    0    0    0  0.00000000000E+00  0.00000000000E+00  0.45593999997E+02  0.45594000000E+02  0.51100000000E-03 0.  1.
         11   -1    0    0    0    0 -0.00000000000E+00 -0.00000000000E+00 -0.45593999997E+02  0.45594000000E+02  0.51100000000E-03 0. -1.
    9900012    2    1    2    0    0  0.24122981802E+02 -0.35506618109E+02 -0.13655598231E+02  0.46142317148E+02  0.99999944130E+01 0.  0.
        -12    1    1    2    0    0 -0.24122981802E+02  0.35506618109E+02  0.13655598231E+02  0.45045682852E+02  0.00000000000E+00 0.  1.
         11    1    3    3    0    0  0.60477198273E+01 -0.14931291111E+02 -0.43871072284E+01  0.16696259445E+02  0.51100000000E-03 0. -1.
        -11    1    3    3    0    0  0.12774765464E+02 -0.13615360061E+02 -0.35785168652E+01  0.19009956483E+02  0.51100000000E-03 0.  1.
        -12    1    3    3    0    0  0.53004965107E+01 -0.69599669366E+01 -0.56899741370E+01  0.10436101221E+02  0.00000000000E+00 0.  1.
</event>
<event>
 7    1  0.3708346E-009  0.4614232E+02  0.7816164E-02  0.1320468E+00
        -11   -1    0    0    0    0  0.00000000000E+00  0.00000000000E+00  0.45593999997E+02  0.45594000000E+02  0.51100000000E-03 0.  1.
         11   -1    0    0    0    0 -0.00000000000E+00 -0.00000000000E+00 -0.45593999997E+02  0.45594000000E+02  0.51100000000E-03 0. -1.
    9900012    2    1    2    0    0 -0.11554114985E+02 -0.42128905455E+02 -0.10989599437E+02  0.46142317147E+02  0.99999943982E+01 0.  0.
        -12    1    1    2    0    0  0.11554114985E+02  0.42128905455E+02  0.10989599437E+02  0.45045682853E+02  0.00000000000E+00 0.  1.
         11    1    3    3    0    0  0.11089542736E+00  0.18647477911E+00  0.42776309899E+00  0.47963753923E+00  0.51100000000E-03 0.  1.
        -11    1    3    3    0    0 -0.81111681582E+01 -0.21691643564E+02 -0.77163144738E+01  0.24410242906E+02  0.51100000000E-03 0. -1.
        -12    1    3    3    0    0 -0.35538422544E+01 -0.20623736670E+02 -0.37010480623E+01  0.21252436702E+02  0.00000000000E+00 0.  1.
</event>
<event>
 7    1  0.3708346E-009  0.4614232E+02  0.7816164E-02  0.1320468E+00
        -11   -1    0    0    0    0  0.00000000000E+00  0.00000000000E+00  0.45593999997E+02  0.45594000000E+02  0.51100000000E-03 0.  1.
         11   -1    0    0    0    0 -0.00000000000E+00 -0.00000000000E+00 -0.45593999997E+02  0.45594000000E+02  0.51100000000E-03 0. -1.
    9900012    2    1    2    0    0  0.14604107206E+02 -0.36067199414E+02 -0.22693404568E+02  0.46142318389E+02  0.10000005727E+02 0.  0.
        -12    1    1    2    0    0 -0.14604107206E+02  0.36067199414E+02  0.22693404568E+02  0.45045681611E+02  0.00000000000E+00 0.  1.
         11    1    3    3    0    0  0.39644653811E+01 -0.14326720100E+02 -0.61446547411E+01  0.16085045127E+02  0.51100000000E-03 0. -1.
        -11    1    3    3    0    0  0.33798905635E+01 -0.10126332714E+02 -0.10853810952E+02  0.15224043053E+02  0.51100000000E-03 0.  1.
        -12    1    3    3    0    0  0.72597512616E+01 -0.11614146601E+02 -0.56949388752E+01  0.14833230209E+02  0.00000000000E+00 0.  1.
</event>
<event>
 7    1  0.3708346E-009  0.4614232E+02  0.7816164E-02  0.1320468E+00
        -11   -1    0    0    0    0  0.00000000000E+00  0.00000000000E+00  0.45593999997E+02  0.45594000000E+02  0.51100000000E-03 0.  1.
         11   -1    0    0    0    0 -0.00000000000E+00 -0.00000000000E+00 -0.45593999997E+02  0.45594000000E+02  0.51100000000E-03 0. -1.
    9900012    2    1    2    0    0  0.18330024616E+02  0.37419365721E+02 -0.17114750001E+02  0.46142318731E+02  0.10000008846E+02 0.  0.
        -12    1    1    2    0    0 -0.18330024616E+02 -0.37419365721E+02  0.17114750001E+02  0.45045681269E+02  0.00000000000E+00 0.  1.
         11    1    3    3    0    0 -0.74220353704E+00  0.39904514251E+01 -0.15585816808E+01  0.43478438085E+01  0.51100000000E-03 0. -1.
        -11    1    3    3    0    0  0.77677501036E+01  0.91573293283E+01 -0.52206032205E+01  0.13093865753E+02  0.51100000000E-03 0.  1.
         12    1    3    3    0    0  0.11304478050E+02  0.24271584967E+02 -0.10335565100E+02  0.28700609170E+02  0.00000000000E+00 0. -1.
</event>
<event>
 7    1  0.3708346E-009  0.4614232E+02  0.7816164E-02  0.1320468E+00
        -11   -1    0    0    0    0  0.00000000000E+00  0.00000000000E+00  0.45593999997E+02  0.45594000000E+02  0.51100000000E-03 0. -1.
         11   -1    0    0    0    0 -0.00000000000E+00 -0.00000000000E+00 -0.45593999997E+02  0.45594000000E+02  0.51100000000E-03 0.  1.
    9900012    2    1    2    0    0 -0.40310760471E+02  0.92901778186E+01 -0.17828303749E+02  0.46142320649E+02  0.10000026331E+02 0.  0.
        -12    1    1    2    0    0  0.40310760471E+02 -0.92901778186E+01  0.17828303749E+02  0.45045679351E+02  0.00000000000E+00 0.  1.
         11    1    3    3    0    0 -0.23308120880E+02  0.91138457832E+01 -0.88299204077E+01  0.26538616742E+02  0.51100000000E-03 0. -1.
        -11    1    3    3    0    0 -0.54526563406E+01 -0.15211513155E+01 -0.20637654431E+01  0.60253207847E+01  0.51100000000E-03 0.  1.
         12    1    3    3    0    0 -0.11549983250E+02  0.16974833509E+01 -0.69346178981E+01  0.13578383122E+02  0.00000000000E+00 0. -1.
</event>
<event>
 7    1  0.3708346E-009  0.4614232E+02  0.7816164E-02  0.1320468E+00
        -11   -1    0    0    0    0  0.00000000000E+00  0.00000000000E+00  0.45593999997E+02  0.45594000000E+02  0.51100000000E-03 0.  1.
         11   -1    0    0    0    0 -0.00000000000E+00 -0.00000000000E+00 -0.45593999997E+02  0.45594000000E+02  0.51100000000E-03 0. -1.
    9900012    2    1    2    0    0  0.42561452768E+02  0.12174627702E+02 -0.83315459702E+01  0.46142317858E+02  0.10000000881E+02 0.  0.
        -12    1    1    2    0    0 -0.42561452768E+02 -0.12174627702E+02  0.83315459702E+01  0.45045682142E+02  0.00000000000E+00 0.  1.
         11    1    3    3    0    0  0.22615498228E+02  0.65104500404E+01 -0.23764911237E+01  0.23653634608E+02  0.51100000000E-03 0. -1.
        -11    1    3    3    0    0  0.15657040688E+02  0.15881003265E+01 -0.48655251337E+01  0.16472350192E+02  0.51100000000E-03 0.  1.
         12    1    3    3    0    0  0.42889138515E+01  0.40760773353E+01 -0.10895297128E+01  0.60163330579E+01  0.00000000000E+00 0. -1.
</event>
<event>
 7    1  0.3708346E-009  0.4614232E+02  0.7816164E-02  0.1320468E+00
        -11   -1    0    0    0    0  0.00000000000E+00  0.00000000000E+00  0.45593999997E+02  0.45594000000E+02  0.51100000000E-03 0.  1.
         11   -1    0    0    0    0 -0.00000000000E+00 -0.00000000000E+00 -0.45593999997E+02  0.45594000000E+02  0.51100000000E-03 0. -1.
    9900012    2    1    2    0    0 -0.34081686452E+02  0.19770894744E+02 -0.21832633081E+02  0.46142317658E+02  0.99999990625E+01 0.  0.
        -12    1    1    2    0    0  0.34081686452E+02 -0.19770894744E+02  0.21832633081E+02  0.45045682342E+02  0.00000000000E+00 0.  1.
         11    1    3    3    0    0 -0.28779825553E+02  0.14969393983E+02 -0.18262856602E+02  0.37227584485E+02  0.51100000000E-03 0. -1.
        -11    1    3    3    0    0 -0.50805092546E+01  0.51482999555E+01 -0.23153542021E+01  0.75945659560E+01  0.51100000000E-03 0.  1.
         12    1    3    3    0    0 -0.22135164429E+00 -0.34679919435E+00 -0.12544222776E+01  0.13201672175E+01  0.00000000000E+00 0. -1.
</event>
<event>
 7    1  0.3708346E-009  0.4614232E+02  0.7816164E-02  0.1320468E+00
        -11   -1    0    0    0    0  0.00000000000E+00  0.00000000000E+00  0.45593999997E+02  0.45594000000E+02  0.51100000000E-03 0. -1.
         11   -1    0    0    0    0 -0.00000000000E+00 -0.00000000000E+00 -0.45593999997E+02  0.45594000000E+02  0.51100000000E-03 0.  1.
    9900012    2    1    2    0    0  0.22750992198E+02 -0.36786963647E+02  0.12578755559E+02  0.46142318389E+02  0.10000005727E+02 0.  0.
        -12    1    1    2    0    0 -0.22750992198E+02  0.36786963647E+02 -0.12578755559E+02  0.45045681611E+02  0.00000000000E+00 0.  1.
         11    1    3    3    0    0  0.11177984893E+02 -0.24599430997E+02  0.56716140948E+01  0.27608813056E+02  0.51100000000E-03 0. -1.
        -11    1    3    3    0    0  0.76756848233E+01 -0.89254787593E+01  0.64689027187E+01  0.13432312207E+02  0.51100000000E-03 0.  1.
         12    1    3    3    0    0  0.38973224813E+01 -0.32620538911E+01  0.43823874570E+00  0.51011931261E+01  0.00000000000E+00 0. -1.
</event>
<event>
 7    1  0.3708346E-009  0.4614232E+02  0.7816164E-02  0.1320468E+00
        -11   -1    0    0    0    0  0.00000000000E+00  0.00000000000E+00  0.45593999997E+02  0.45594000000E+02  0.51100000000E-03 0. -1.
         11   -1    0    0    0    0 -0.00000000000E+00 -0.00000000000E+00 -0.45593999997E+02  0.45594000000E+02  0.51100000000E-03 0.  1.
    9900012    2    1    2    0    0  0.19695955349E+02 -0.40508776680E+02 -0.47043200576E+00  0.46142323721E+02  0.10000054345E+02 0.  0.
        -12    1    1    2    0    0 -0.19695955349E+02  0.40508776680E+02  0.47043200576E+00  0.45045676279E+02  0.00000000000E+00 0.  1.
         11    1    3    3    0    0  0.82380882779E+01 -0.14775866257E+02  0.19841768933E+01  0.17033181744E+02  0.51100000000E-03 0. -1.
        -11    1    3    3    0    0  0.71349384108E+01 -0.87432459565E+01  0.65699350540E+00  0.11304129188E+02  0.51100000000E-03 0.  1.
         12    1    3    3    0    0  0.43229286600E+01 -0.16989664466E+02 -0.31116024044E+01  0.17805012788E+02  0.00000000000E+00 0. -1.
</event>
<event>
 7    1  0.3708346E-009  0.4614232E+02  0.7816164E-02  0.1320468E+00
        -11   -1    0    0    0    0  0.00000000000E+00  0.00000000000E+00  0.45593999997E+02  0.45594000000E+02  0.51100000000E-03 0.  1.
         11   -1    0    0    0    0 -0.00000000000E+00 -0.00000000000E+00 -0.45593999997E+02  0.45594000000E+02  0.51100000000E-03 0. -1.
    9900012    2    1    2    0    0  0.89874540876E+01 -0.32676447580E+02 -0.29674718586E+02  0.46142317847E+02  0.10000000787E+02 0.  0.
        -12    1    1    2    0    0 -0.89874540876E+01  0.32676447580E+02  0.29674718586E+02  0.45045682153E+02  0.00000000000E+00 0.  1.
         11    1    3    3    0    0  0.58141886221E+01 -0.28130567454E+02 -0.23816079660E+02  0.37314062567E+02  0.51100000000E-03 0. -1.
        -11    1    3    3    0    0  0.11717949016E+01 -0.10507530242E+01 -0.41769451364E+01  0.44636370981E+01  0.51100000000E-03 0.  1.
         12    1    3    3    0    0  0.20014705638E+01 -0.34951271021E+01 -0.16816937900E+01  0.43646181827E+01  0.00000000000E+00 0. -1.
</event>
<event>
 7    1  0.3708346E-009  0.4614232E+02  0.7816164E-02  0.1320468E+00
        -11   -1    0    0    0    0  0.00000000000E+00  0.00000000000E+00  0.45593999997E+02  0.45594000000E+02  0.51100000000E-03 0.  1.
         11   -1    0    0    0    0 -0.00000000000E+00 -0.00000000000E+00 -0.45593999997E+02  0.45594000000E+02  0.51100000000E-03 0. -1.
    9900012    2    1    2    0    0  0.32757213864E+02 -0.45358857904E+01 -0.30586012391E+02  0.46142317920E+02  0.10000001453E+02 0.  0.
        -12    1    1    2    0    0 -0.32757213864E+02  0.45358857904E+01  0.30586012391E+02  0.45045682080E+02  0.00000000000E+00 0.  1.
         11    1    3    3    0    0  0.14407318770E+02 -0.24789202466E+01 -0.18898748718E+02  0.23893065586E+02  0.51100000000E-03 0. -1.
        -11    1    3    3    0    0  0.99810388139E+01  0.97758406100E+00 -0.60470114247E+01  0.11710813543E+02  0.51100000000E-03 0.  1.
         12    1    3    3    0    0  0.83688562803E+01 -0.30345496048E+01 -0.56402522478E+01  0.10538438792E+02  0.00000000000E+00 0. -1.
</event>
<event>
 7    1  0.3708346E-009  0.4614231E+02  0.7816164E-02  0.1320468E+00
        -11   -1    0    0    0    0  0.00000000000E+00  0.00000000000E+00  0.45593999997E+02  0.45594000000E+02  0.51100000000E-03 0.  1.
         11   -1    0    0    0    0 -0.00000000000E+00 -0.00000000000E+00 -0.45593999997E+02  0.45594000000E+02  0.51100000000E-03 0. -1.
    9900012    2    1    2    0    0 -0.86880323433E+01  0.23431779314E+02 -0.37477774809E+02  0.46142314386E+02  0.99999692207E+01 0.  0.
        -12    1    1    2    0    0  0.86880323433E+01 -0.23431779314E+02  0.37477774809E+02  0.45045685614E+02  0.00000000000E+00 0.  1.
         11    1    3    3    0    0 -0.15197424839E+01 -0.69298975352E+00 -0.18140865316E+01  0.24659201570E+01  0.51100000000E-03 0. -1.
        -11    1    3    3    0    0 -0.10470590396E+01  0.31238736628E+01 -0.38409539868E+01  0.50604196549E+01  0.51100000000E-03 0.  1.
         12    1    3    3    0    0 -0.61212308198E+01  0.21000895405E+02 -0.31822734290E+02  0.38615974574E+02  0.00000000000E+00 0. -1.
</event>
<event>
 7    1  0.3708346E-009  0.4614232E+02  0.7816164E-02  0.1320468E+00
        -11   -1    0    0    0    0  0.00000000000E+00  0.00000000000E+00  0.45593999997E+02  0.45594000000E+02  0.51100000000E-03 0. -1.
         11   -1    0    0    0    0 -0.00000000000E+00 -0.00000000000E+00 -0.45593999997E+02  0.45594000000E+02  0.51100000000E-03 0.  1.
    9900012    2    1    2    0    0  0.31086494948E+02  0.32566582846E+02 -0.14700670611E+01  0.46142316704E+02  0.99999903620E+01 0.  0.
        -12    1    1    2    0    0 -0.31086494948E+02 -0.32566582846E+02  0.14700670611E+01  0.45045683296E+02  0.00000000000E+00 0.  1.
         11    1    3    3    0    0  0.13196645070E+02  0.10871729740E+02 -0.25279740740E+01  0.17283998432E+02  0.51100000000E-03 0. -1.
        -11    1    3    3    0    0  0.50430917669E+01  0.10510868406E+02  0.18647576689E+01  0.11806288606E+02  0.51100000000E-03 0.  1.
        -12    1    3    3    0    0  0.12846758111E+02  0.11183984700E+02 -0.80685065602E+00  0.17052029666E+02  0.00000000000E+00 0.  1.
</event>
<event>
 7    1  0.3708346E-009  0.4614232E+02  0.7816164E-02  0.1320468E+00
        -11   -1    0    0    0    0  0.00000000000E+00  0.00000000000E+00  0.45593999997E+02  0.45594000000E+02  0.51100000000E-03 0.  1.
         11   -1    0    0    0    0 -0.00000000000E+00 -0.00000000000E+00 -0.45593999997E+02  0.45594000000E+02  0.51100000000E-03 0. -1.
    9900012    2    1    2    0    0 -0.18735891590E+02  0.40802872735E+02 -0.36339263252E+01  0.46142317880E+02  0.10000001083E+02 0.  0.
        -12    1    1    2    0    0  0.18735891590E+02 -0.40802872735E+02  0.36339263252E+01  0.45045682120E+02  0.00000000000E+00 0.  1.
         11    1    3    3    0    0 -0.53910351665E+00  0.25522864464E+01  0.75172718432E+00  0.27147546347E+01  0.51100000000E-03 0. -1.
        -11    1    3    3    0    0 -0.16422742022E+02  0.33794647220E+02 -0.65931948039E+01  0.38147802745E+02  0.51100000000E-03 0.  1.
        -12    1    3    3    0    0 -0.17740460509E+01  0.44559390686E+01  0.22075412944E+01  0.52797605003E+01  0.00000000000E+00 0.  1.
</event>
<event>
 7    1  0.3708346E-009  0.4614232E+02  0.7816164E-02  0.1320468E+00
        -11   -1    0    0    0    0  0.00000000000E+00  0.00000000000E+00  0.45593999997E+02  0.45594000000E+02  0.51100000000E-03 0. -1.
         11   -1    0    0    0    0 -0.00000000000E+00 -0.00000000000E+00 -0.45593999997E+02  0.45594000000E+02  0.51100000000E-03 0.  1.
    9900012    2    1    2    0    0  0.57496291563E+01  0.22204164911E+02  0.38768936041E+02  0.46142316782E+02  0.99999910715E+01 0.  0.
        -12    1    1    2    0    0 -0.57496291563E+01 -0.22204164911E+02 -0.38768936041E+02  0.45045683218E+02  0.00000000000E+00 0.  1.
         11    1    3    3    0    0 -0.14249924643E+01  0.55159868241E+01  0.81315037509E+01  0.99286488345E+01  0.51100000000E-03 0. -1.
        -11    1    3    3    0    0  0.60975504744E+00  0.32616110622E+00 -0.17571496028E+00  0.71348321177E+00  0.51100000000E-03 0.  1.
        -12    1    3    3    0    0  0.65648665731E+01  0.16362016981E+02  0.30813147250E+02  0.35500184736E+02  0.00000000000E+00 0.  1.
</event>
<event>
 7    1  0.3708346E-009  0.4614232E+02  0.7816164E-02  0.1320468E+00
        -11   -1    0    0    0    0  0.00000000000E+00  0.00000000000E+00  0.45593999997E+02  0.45594000000E+02  0.51100000000E-03 0.  1.
         11   -1    0    0    0    0 -0.00000000000E+00 -0.00000000000E+00 -0.45593999997E+02  0.45594000000E+02  0.51100000000E-03 0. -1.
    9900012    2    1    2    0    0 -0.18426227961E+02 -0.36030391184E+02 -0.19783796666E+02  0.46142316786E+02  0.99999911066E+01 0.  0.
        -12    1    1    2    0    0  0.18426227961E+02  0.36030391184E+02  0.19783796666E+02  0.45045683214E+02  0.00000000000E+00 0.  1.
         11    1    3    3    0    0  0.53267553850E+00 -0.42591164145E+01 -0.82878572823E+00  0.43715788802E+01  0.51100000000E-03 0. -1.
        -11    1    3    3    0    0 -0.10172789520E+02 -0.16917029396E+02 -0.12388720916E+02  0.23305620274E+02  0.51100000000E-03 0.  1.
         12    1    3    3    0    0 -0.87861139797E+01 -0.14854245374E+02 -0.65662900215E+01  0.18465117631E+02  0.00000000000E+00 0. -1.
</event>
<event>
 7    1  0.3708346E-009  0.4614232E+02  0.7816164E-02  0.1320468E+00
        -11   -1    0    0    0    0  0.00000000000E+00  0.00000000000E+00  0.45593999997E+02  0.45594000000E+02  0.51100000000E-03 0.  1.
         11   -1    0    0    0    0 -0.00000000000E+00 -0.00000000000E+00 -0.45593999997E+02  0.45594000000E+02  0.51100000000E-03 0. -1.
    9900012    2    1    2    0    0  0.12587873180E+02 -0.42857092320E+02 -0.58248253450E+01  0.46142317592E+02  0.99999984560E+01 0.  0.
        -12    1    1    2    0    0 -0.12587873180E+02  0.42857092320E+02  0.58248253450E+01  0.45045682408E+02  0.00000000000E+00 0.  1.
         11    1    3    3    0    0  0.53978325435E+01 -0.82871036714E+01 -0.40571829259E+00  0.98983478936E+01  0.51100000000E-03 0.  1.
        -11    1    3    3    0    0  0.71839799867E+01 -0.34262180562E+02 -0.60647424359E+01  0.35528688216E+02  0.51100000000E-03 0. -1.
        -12    1    3    3    0    0  0.60606495273E-02 -0.30780808688E+00  0.64563538351E+00  0.71528148184E+00  0.00000000000E+00 0.  1.
</event>
<event>
 7    1  0.3708346E-009  0.4614232E+02  0.7816164E-02  0.1320468E+00
        -11   -1    0    0    0    0  0.00000000000E+00  0.00000000000E+00  0.45593999997E+02  0.45594000000E+02  0.51100000000E-03 0.  1.
         11   -1    0    0    0    0 -0.00000000000E+00 -0.00000000000E+00 -0.45593999997E+02  0.45594000000E+02  0.51100000000E-03 0. -1.
    9900012    2    1    2    0    0  0.92754054213E+01  0.41716652775E+02  0.14240828883E+02  0.46142317945E+02  0.10000001680E+02 0.  0.
        -12    1    1    2    0    0 -0.92754054213E+01 -0.41716652775E+02 -0.14240828883E+02  0.45045682055E+02  0.00000000000E+00 0.  1.
         11    1    3    3    0    0  0.18370521185E+01  0.17427967872E+02  0.43758231519E+01  0.18062576038E+02  0.51100000000E-03 0. -1.
        -11    1    3    3    0    0  0.55463605731E+01  0.10525151551E+02  0.72817588129E+01  0.13948653786E+02  0.51100000000E-03 0.  1.
        -12    1    3    3    0    0  0.18919927296E+01  0.13763533352E+02  0.25832469178E+01  0.14131088121E+02  0.00000000000E+00 0.  1.
</event>
<event>
 7    1  0.3708346E-009  0.4614232E+02  0.7816164E-02  0.1320468E+00
        -11   -1    0    0    0    0  0.00000000000E+00  0.00000000000E+00  0.45593999997E+02  0.45594000000E+02  0.51100000000E-03 0.  1.
         11   -1    0    0    0    0 -0.00000000000E+00 -0.00000000000E+00 -0.45593999997E+02  0.45594000000E+02  0.51100000000E-03 0. -1.
    9900012    2    1    2    0    0  0.34327805496E+02 -0.24003884543E+02  0.16568910846E+02  0.46142317521E+02  0.99999978145E+01 0.  0.
        -12    1    1    2    0    0 -0.34327805496E+02  0.24003884543E+02 -0.16568910846E+02  0.45045682479E+02  0.00000000000E+00 0.  1.
         11    1    3    3    0    0  0.15477127093E+02 -0.10982651011E+02  0.75900541022E+01  0.20439398422E+02  0.51100000000E-03 0. -1.
        -11    1    3    3    0    0  0.10679530085E+02 -0.90644290747E+01  0.17880158994E+01  0.14121375230E+02  0.51100000000E-03 0.  1.
        -12    1    3    3    0    0  0.81711483178E+01 -0.39568044569E+01  0.71908408448E+01  0.11581543869E+02  0.00000000000E+00 0.  1.
</event>
<event>
 7    1  0.3708346E-009  0.4614232E+02  0.7816164E-02  0.1320468E+00
        -11   -1    0    0    0    0  0.00000000000E+00  0.00000000000E+00  0.45593999997E+02  0.45594000000E+02  0.51100000000E-03 0.  1.
         11   -1    0    0    0    0 -0.00000000000E+00 -0.00000000000E+00 -0.45593999997E+02  0.45594000000E+02  0.51100000000E-03 0. -1.
    9900012    2    1    2    0    0  0.38259663787E+02  0.18439129966E+02 -0.15010331476E+02  0.46142318320E+02  0.10000005099E+02 0.  0.
        -12    1    1    2    0    0 -0.38259663787E+02 -0.18439129966E+02  0.15010331476E+02  0.45045681680E+02  0.00000000000E+00 0.  1.
         11    1    3    3    0    0  0.18572069219E+02  0.62761938937E+01 -0.77849441161E+01  0.21093072797E+02  0.51100000000E-03 0. -1.
        -11    1    3    3    0    0  0.94433637376E+00  0.10195360360E+01  0.10336362495E+01  0.17319437268E+01  0.51100000000E-03 0.  1.
        -12    1    3    3    0    0  0.18743258194E+02  0.11143400036E+02 -0.82590236093E+01  0.23317301797E+02  0.00000000000E+00 0.  1.
</event>
<event>
 7    1  0.3708346E-009  0.4614232E+02  0.7816164E-02  0.1320468E+00
        -11   -1    0    0    0    0  0.00000000000E+00  0.00000000000E+00  0.45593999997E+02  0.45594000000E+02  0.51100000000E-03 0. -1.
         11   -1    0    0    0    0 -0.00000000000E+00 -0.00000000000E+00 -0.45593999997E+02  0.45594000000E+02  0.51100000000E-03 0.  1.
    9900012    2    1    2    0    0 -0.77207509971E+01 -0.36545431471E+02  0.25178065660E+02  0.46142317102E+02  0.99999939876E+01 0.  0.
        -12    1    1    2    0    0  0.77207509971E+01  0.36545431471E+02 -0.25178065660E+02  0.45045682898E+02  0.00000000000E+00 0.  1.
         11    1    3    3    0    0  0.31282435380E+00 -0.47045994958E+01  0.52603634809E+01  0.70641729668E+01  0.51100000000E-03 0. -1.
        -11    1    3    3    0    0 -0.13692544574E+01 -0.19296950607E+01  0.37396016636E+01  0.44252911385E+01  0.51100000000E-03 0.  1.
         12    1    3    3    0    0 -0.66643208935E+01 -0.29911136915E+02  0.16178100515E+02  0.34652852996E+02  0.00000000000E+00 0. -1.
</event>
<event>
 7    1  0.3708346E-009  0.4614232E+02  0.7816164E-02  0.1320468E+00
        -11   -1    0    0    0    0  0.00000000000E+00  0.00000000000E+00  0.45593999997E+02  0.45594000000E+02  0.51100000000E-03 0.  1.
         11   -1    0    0    0    0 -0.00000000000E+00 -0.00000000000E+00 -0.45593999997E+02  0.45594000000E+02  0.51100000000E-03 0. -1.
    9900012    2    1    2    0    0  0.37218689755E+02  0.23600204291E+02  0.93227242150E+01  0.46142315451E+02  0.99999789356E+01 0.  0.
        -12    1    1    2    0    0 -0.37218689755E+02 -0.23600204291E+02 -0.93227242150E+01  0.45045684549E+02  0.00000000000E+00 0.  1.
         11    1    3    3    0    0  0.11005172196E+02  0.89838105783E+01 -0.10970997839E+01  0.14248729619E+02  0.51100000000E-03 0. -1.
        -11    1    3    3    0    0  0.16222000825E+02  0.78578398042E+01  0.52876730086E+01  0.18784526698E+02  0.51100000000E-03 0.  1.
         12    1    3    3    0    0  0.99915167351E+01  0.67585539085E+01  0.51321509903E+01  0.13109059134E+02  0.00000000000E+00 0. -1.
</event>
<event>
 7    1  0.3708346E-009  0.4614232E+02  0.7816164E-02  0.1320468E+00
        -11   -1    0    0    0    0  0.00000000000E+00  0.00000000000E+00  0.45593999997E+02  0.45594000000E+02  0.51100000000E-03 0. -1.
         11   -1    0    0    0    0 -0.00000000000E+00 -0.00000000000E+00 -0.45593999997E+02  0.45594000000E+02  0.51100000000E-03 0.  1.
    9900012    2    1    2    0    0 -0.44270212469E+02 -0.21001014387E+01  0.80530243816E+01  0.46142319411E+02  0.10000015043E+02 0.  0.
        -12    1    1    2    0    0  0.44270212469E+02  0.21001014387E+01 -0.80530243816E+01  0.45045680589E+02  0.00000000000E+00 0.  1.
         11    1    3    3    0    0 -0.32913770301E+02  0.12586788697E+01  0.77766473660E+01  0.33843415791E+02  0.51100000000E-03 0. -1.
        -11    1    3    3    0    0 -0.13728398385E+01 -0.13243148498E+01 -0.76893092467E+00  0.20566365920E+01  0.51100000000E-03 0.  1.
         12    1    3    3    0    0 -0.99836023294E+01 -0.20344654587E+01  0.10453079403E+01  0.10242267028E+02  0.00000000000E+00 0. -1.
</event>
<event>
 7    1  0.3708346E-009  0.4614232E+02  0.7816164E-02  0.1320468E+00
        -11   -1    0    0    0    0  0.00000000000E+00  0.00000000000E+00  0.45593999997E+02  0.45594000000E+02  0.51100000000E-03 0. -1.
         11   -1    0    0    0    0 -0.00000000000E+00 -0.00000000000E+00 -0.45593999997E+02  0.45594000000E+02  0.51100000000E-03 0.  1.
    9900012    2    1    2    0    0  0.27300387355E+02  0.52186345593E+01  0.35448105121E+02  0.46142318153E+02  0.10000003571E+02 0.  0.
        -12    1    1    2    0    0 -0.27300387355E+02 -0.52186345593E+01 -0.35448105121E+02  0.45045681847E+02  0.00000000000E+00 0.  1.
         11    1    3    3    0    0  0.46141369639E+01 -0.11634662412E+01  0.69187424221E+01  0.83971965905E+01  0.51100000000E-03 0.  1.
        -11    1    3    3    0    0  0.19590719245E+02  0.80690950839E+01  0.24575394769E+02  0.32447751915E+02  0.51100000000E-03 0. -1.
         12    1    3    3    0    0  0.30955311460E+01 -0.16869942835E+01  0.39539679296E+01  0.52973696470E+01  0.00000000000E+00 0. -1.
</event>
<event>
 7    1  0.3708346E-009  0.4614232E+02  0.7816164E-02  0.1320468E+00
        -11   -1    0    0    0    0  0.00000000000E+00  0.00000000000E+00  0.45593999997E+02  0.45594000000E+02  0.51100000000E-03 0.  1.
         11   -1    0    0    0    0 -0.00000000000E+00 -0.00000000000E+00 -0.45593999997E+02  0.45594000000E+02  0.51100000000E-03 0. -1.
    9900012    2    1    2    0    0 -0.12004955671E+02  0.25520318348E+02 -0.35124178748E+02  0.46142317166E+02  0.99999945718E+01 0.  0.
        -12    1    1    2    0    0  0.12004955671E+02 -0.25520318348E+02  0.35124178748E+02  0.45045682834E+02  0.00000000000E+00 0.  1.
         11    1    3    3    0    0 -0.85769398317E+01  0.18312745916E+02 -0.22737574502E+02  0.30428898343E+02  0.51100000000E-03 0. -1.
        -11    1    3    3    0    0 -0.47392013413E+01  0.40088722938E+01 -0.81799706075E+01  0.10268544484E+02  0.51100000000E-03 0.  1.
        -12    1    3    3    0    0  0.13111855020E+01  0.31987001381E+01 -0.42066336387E+01  0.54448743387E+01  0.00000000000E+00 0.  1.
</event>
<event>
 7    1  0.3708346E-009  0.4614232E+02  0.7816164E-02  0.1320468E+00
        -11   -1    0    0    0    0  0.00000000000E+00  0.00000000000E+00  0.45593999997E+02  0.45594000000E+02  0.51100000000E-03 0.  1.
         11   -1    0    0    0    0 -0.00000000000E+00 -0.00000000000E+00 -0.45593999997E+02  0.45594000000E+02  0.51100000000E-03 0. -1.
    9900012    2    1    2    0    0  0.17846166854E+02  0.21819831109E+02 -0.35135776407E+02  0.46142317801E+02  0.10000000367E+02 0.  0.
        -12    1    1    2    0    0 -0.17846166854E+02 -0.21819831109E+02  0.35135776407E+02  0.45045682199E+02  0.00000000000E+00 0.  1.
         11    1    3    3    0    0  0.64396070626E+01  0.97552704932E+01 -0.11240596795E+02  0.16216807889E+02  0.51100000000E-03 0. -1.
        -11    1    3    3    0    0  0.17827247811E+01  0.67724273221E+01 -0.84794147110E+01  0.10997470326E+02  0.51100000000E-03 0.  1.
         12    1    3    3    0    0  0.96238350107E+01  0.52921332938E+01 -0.15415764900E+02  0.18928039586E+02  0.00000000000E+00 0. -1.
</event>
<event>
 7    1  0.3708346E-009  0.4614232E+02  0.7816164E-02  0.1320468E+00
        -11   -1    0    0    0    0  0.00000000000E+00  0.00000000000E+00  0.45593999997E+02  0.45594000000E+02  0.51100000000E-03 0. -1.
         11   -1    0    0    0    0 -0.00000000000E+00 -0.00000000000E+00 -0.45593999997E+02  0.45594000000E+02  0.51100000000E-03 0.  1.
    9900012    2    1    2    0    0  0.27373962221E+02  0.34961082158E+02  0.75830380332E+01  0.46142317197E+02  0.99999948604E+01 0.  0.
        -12    1    1    2    0    0 -0.27373962221E+02 -0.34961082158E+02 -0.75830380332E+01  0.45045682803E+02  0.00000000000E+00 0.  1.
         11    1    3    3    0    0  0.97353163031E+01  0.19654515693E+02  0.32703328599E+01  0.22175920452E+02  0.51100000000E-03 0. -1.
        -11    1    3    3    0    0  0.52993160549E+01  0.36719340170E+01 -0.78560204729E-01  0.64476369348E+01  0.51100000000E-03 0.  1.
         12    1    3    3    0    0  0.12339329863E+02  0.11634632448E+02  0.43912653779E+01  0.17518759810E+02  0.00000000000E+00 0. -1.
</event>
<event>
 7    1  0.3708346E-009  0.4614231E+02  0.7816164E-02  0.1320468E+00
        -11   -1    0    0    0    0  0.00000000000E+00  0.00000000000E+00  0.45593999997E+02  0.45594000000E+02  0.51100000000E-03 0.  1.
         11   -1    0    0    0    0 -0.00000000000E+00 -0.00000000000E+00 -0.45593999997E+02  0.45594000000E+02  0.51100000000E-03 0. -1.
    9900012    2    1    2    0    0 -0.20312307910E+02  0.56957091936E+01 -0.39800542224E+02  0.46142310782E+02  0.99999363555E+01 0.  0.
        -12    1    1    2    0    0  0.20312307910E+02 -0.56957091936E+01  0.39800542224E+02  0.45045689218E+02  0.00000000000E+00 0.  1.
         11    1    3    3    0    0 -0.12604189056E+02 -0.35777600362E+00 -0.23774788187E+02  0.26911598597E+02  0.51100000000E-03 0. -1.
        -11    1    3    3    0    0 -0.75894399794E+01  0.43535524247E+01 -0.14541844890E+02  0.16971101054E+02  0.51100000000E-03 0.  1.
        -12    1    3    3    0    0 -0.11867887401E+00  0.16999327725E+01 -0.14839091461E+01  0.22596111303E+01  0.00000000000E+00 0.  1.
</event>
<event>
 7    1  0.3708346E-009  0.4614232E+02  0.7816164E-02  0.1320468E+00
        -11   -1    0    0    0    0  0.00000000000E+00  0.00000000000E+00  0.45593999997E+02  0.45594000000E+02  0.51100000000E-03 0.  1.
         11   -1    0    0    0    0 -0.00000000000E+00 -0.00000000000E+00 -0.45593999997E+02  0.45594000000E+02  0.51100000000E-03 0. -1.
    9900012    2    1    2    0    0 -0.42095540084E+02  0.99566795521E+01  0.12567556231E+02  0.46142318383E+02  0.10000005675E+02 0.  0.
        -12    1    1    2    0    0  0.42095540084E+02 -0.99566795521E+01 -0.12567556231E+02  0.45045681617E+02  0.00000000000E+00 0.  1.
         11    1    3    3    0    0 -0.45986414138E+01  0.11879537170E+01  0.13483569484E+01  0.49372870696E+01  0.51100000000E-03 0. -1.
        -11    1    3    3    0    0 -0.18713224817E+02  0.85044242183E+01  0.84171399285E+01  0.22211669437E+02  0.51100000000E-03 0.  1.
        -12    1    3    3    0    0 -0.18783673853E+02  0.26430161685E+00  0.28020593546E+01  0.18993361877E+02  0.00000000000E+00 0.  1.
</event>
<event>
 7    1  0.3708346E-009  0.4614232E+02  0.7816164E-02  0.1320468E+00
        -11   -1    0    0    0    0  0.00000000000E+00  0.00000000000E+00  0.45593999997E+02  0.45594000000E+02  0.51100000000E-03 0. -1.
         11   -1    0    0    0    0 -0.00000000000E+00 -0.00000000000E+00 -0.45593999997E+02  0.45594000000E+02  0.51100000000E-03 0.  1.
    9900012    2    1    2    0    0 -0.20949878455E+02  0.22653366628E+02  0.32818304746E+02  0.46142317041E+02  0.99999934293E+01 0.  0.
        -12    1    1    2    0    0  0.20949878455E+02 -0.22653366628E+02 -0.32818304746E+02  0.45045682959E+02  0.00000000000E+00 0.  1.
         11    1    3    3    0    0 -0.13296998370E+02  0.11635422226E+02  0.24936369767E+02  0.30561671313E+02  0.51100000000E-03 0. -1.
        -11    1    3    3    0    0 -0.45565520921E+01  0.63062802579E+01  0.50053527981E+01  0.92512104372E+01  0.51100000000E-03 0.  1.
         12    1    3    3    0    0 -0.30963279927E+01  0.47116641447E+01  0.28765821813E+01  0.63294352905E+01  0.00000000000E+00 0. -1.
</event>
<event>
 7    1  0.3708346E-009  0.4614232E+02  0.7816164E-02  0.1320468E+00
        -11   -1    0    0    0    0  0.00000000000E+00  0.00000000000E+00  0.45593999997E+02  0.45594000000E+02  0.51100000000E-03 0. -1.
         11   -1    0    0    0    0 -0.00000000000E+00 -0.00000000000E+00 -0.45593999997E+02  0.45594000000E+02  0.51100000000E-03 0.  1.
    9900012    2    1    2    0    0  0.42585238653E+02  0.76621112678E+01  0.12526090644E+02  0.46142318220E+02  0.10000004185E+02 0.  0.
        -12    1    1    2    0    0 -0.42585238653E+02 -0.76621112678E+01 -0.12526090644E+02  0.45045681780E+02  0.00000000000E+00 0.  1.
         11    1    3    3    0    0  0.56712932814E+01 -0.10825282407E+01  0.33479651559E+01  0.66741520676E+01  0.51100000000E-03 0. -1.
        -11    1    3    3    0    0  0.30892241130E+02  0.64449801769E+01  0.54582697199E+01  0.32025943235E+02  0.51100000000E-03 0.  1.
        -12    1    3    3    0    0  0.60217042415E+01  0.22996593316E+01  0.37198557678E+01  0.74422229170E+01  0.00000000000E+00 0.  1.
</event>
<event>
 7    1  0.3708346E-009  0.4614232E+02  0.7816164E-02  0.1320468E+00
        -11   -1    0    0    0    0  0.00000000000E+00  0.00000000000E+00  0.45593999997E+02  0.45594000000E+02  0.51100000000E-03 0.  1.
         11   -1    0    0    0    0 -0.00000000000E+00 -0.00000000000E+00 -0.45593999997E+02  0.45594000000E+02  0.51100000000E-03 0. -1.
    9900012    2    1    2    0    0  0.26878775231E+02 -0.36077661737E+02 -0.22466026017E+01  0.46142318103E+02  0.10000003116E+02 0.  0.
        -12    1    1    2    0    0 -0.26878775231E+02  0.36077661737E+02  0.22466026017E+01  0.45045681897E+02  0.00000000000E+00 0.  1.
         11    1    3    3    0    0  0.13851594564E+02 -0.17292406864E+02 -0.17370802784E+01  0.22224118774E+02  0.51100000000E-03 0. -1.
        -11    1    3    3    0    0  0.67918538824E+01 -0.68903823151E+01 -0.32596868717E+01  0.10209417533E+02  0.51100000000E-03 0.  1.
        -12    1    3    3    0    0  0.62353267851E+01 -0.11894872557E+02  0.27501645483E+01  0.13708781796E+02  0.00000000000E+00 0.  1.
</event>
<event>
 7    1  0.3708346E-009  0.4614232E+02  0.7816164E-02  0.1320468E+00
        -11   -1    0    0    0    0  0.00000000000E+00  0.00000000000E+00  0.45593999997E+02  0.45594000000E+02  0.51100000000E-03 0.  1.
         11   -1    0    0    0    0 -0.00000000000E+00 -0.00000000000E+00 -0.45593999997E+02  0.45594000000E+02  0.51100000000E-03 0. -1.
    9900012    2    1    2    0    0 -0.12697087039E+02  0.17763794314E+02 -0.39399811137E+02  0.46142317350E+02  0.99999962549E+01 0.  0.
        -12    1    1    2    0    0  0.12697087039E+02 -0.17763794314E+02  0.39399811137E+02  0.45045682650E+02  0.00000000000E+00 0.  1.
         11    1    3    3    0    0 -0.80691101359E+01  0.63114016588E+01 -0.21731933754E+02  0.24025429741E+02  0.51100000000E-03 0. -1.
        -11    1    3    3    0    0 -0.47957359803E+01  0.11666029255E+02 -0.15741807721E+02  0.20171758296E+02  0.51100000000E-03 0.  1.
        -12    1    3    3    0    0  0.16775907669E+00 -0.21363659888E+00 -0.19260696620E+01  0.19451293137E+01  0.00000000000E+00 0.  1.
</event>
<event>
 7    1  0.3708346E-009  0.4614232E+02  0.7816164E-02  0.1320468E+00
        -11   -1    0    0    0    0  0.00000000000E+00  0.00000000000E+00  0.45593999997E+02  0.45594000000E+02  0.51100000000E-03 0. -1.
         11   -1    0    0    0    0 -0.00000000000E+00 -0.00000000000E+00 -0.45593999997E+02  0.45594000000E+02  0.51100000000E-03 0.  1.
    9900012    2    1    2    0    0 -0.26846493975E+02 -0.27338010028E+02  0.23685699537E+02  0.46142318813E+02  0.10000009589E+02 0.  0.
        -12    1    1    2    0    0  0.26846493975E+02  0.27338010028E+02 -0.23685699537E+02  0.45045681187E+02  0.00000000000E+00 0.  1.
         11    1    3    3    0    0 -0.19290733306E+01 -0.24436513247E+01  0.30802929022E+01  0.43796073267E+01  0.51100000000E-03 0. -1.
        -11    1    3    3    0    0 -0.61754825792E+01 -0.10964735698E+02  0.43680599516E+01  0.13320734290E+02  0.51100000000E-03 0.  1.
        -12    1    3    3    0    0 -0.18741938065E+02 -0.13929623005E+02  0.16237346683E+02  0.28441977196E+02  0.00000000000E+00 0.  1.
</event>
<event>
 7    1  0.3708346E-009  0.4614232E+02  0.7816164E-02  0.1320468E+00
        -11   -1    0    0    0    0  0.00000000000E+00  0.00000000000E+00  0.45593999997E+02  0.45594000000E+02  0.51100000000E-03 0. -1.
         11   -1    0    0    0    0 -0.00000000000E+00 -0.00000000000E+00 -0.45593999997E+02  0.45594000000E+02  0.51100000000E-03 0.  1.
    9900012    2    1    2    0    0  0.25573728432E+02  0.25848483019E+02  0.26588602698E+02  0.46142318146E+02  0.10000003509E+02 0.  0.
        -12    1    1    2    0    0 -0.25573728432E+02 -0.25848483019E+02 -0.26588602698E+02  0.45045681854E+02  0.00000000000E+00 0.  1.
         11    1    3    3    0    0  0.19247617824E+02  0.20575183692E+02  0.18504339631E+02  0.33707856077E+02  0.51100000000E-03 0. -1.
        -11    1    3    3    0    0 -0.73185316424E+00  0.78435727130E+00  0.73974283133E+00  0.13030905957E+01  0.51100000000E-03 0.  1.
        -12    1    3    3    0    0  0.70579637715E+01  0.44889420554E+01  0.73445202361E+01  0.11131371473E+02  0.00000000000E+00 0.  1.
</event>
<event>
 7    1  0.3708346E-009  0.4614232E+02  0.7816164E-02  0.1320468E+00
        -11   -1    0    0    0    0  0.00000000000E+00  0.00000000000E+00  0.45593999997E+02  0.45594000000E+02  0.51100000000E-03 0.  1.
         11   -1    0    0    0    0 -0.00000000000E+00 -0.00000000000E+00 -0.45593999997E+02  0.45594000000E+02  0.51100000000E-03 0. -1.
    9900012    2    1    2    0    0  0.20027854311E+01  0.43075245616E+02 -0.13024037158E+02  0.46142317874E+02  0.10000001027E+02 0.  0.
        -12    1    1    2    0    0 -0.20027854311E+01 -0.43075245616E+02  0.13024037158E+02  0.45045682126E+02  0.00000000000E+00 0.  1.
         11    1    3    3    0    0  0.25927332723E+01  0.27216483943E+02 -0.12458144585E+02  0.30044377690E+02  0.51100000000E-03 0. -1.
        -11    1    3    3    0    0 -0.30560731073E+00  0.12650306775E+02 -0.15040442287E+01  0.12743068964E+02  0.51100000000E-03 0.  1.
         12    1    3    3    0    0 -0.28434053053E+00  0.32084548979E+01  0.93815165545E+00  0.33548712193E+01  0.00000000000E+00 0. -1.
</event>
<event>
 7    1  0.3708346E-009  0.4614232E+02  0.7816164E-02  0.1320468E+00
        -11   -1    0    0    0    0  0.00000000000E+00  0.00000000000E+00  0.45593999997E+02  0.45594000000E+02  0.51100000000E-03 0. -1.
         11   -1    0    0    0    0 -0.00000000000E+00 -0.00000000000E+00 -0.45593999997E+02  0.45594000000E+02  0.51100000000E-03 0.  1.
    9900012    2    1    2    0    0 -0.25181647998E+01  0.32371231689E+02  0.31222999236E+02  0.46142317895E+02  0.10000001221E+02 0.  0.
        -12    1    1    2    0    0  0.25181647998E+01 -0.32371231689E+02 -0.31222999236E+02  0.45045682105E+02  0.00000000000E+00 0.  1.
         11    1    3    3    0    0  0.23008188171E+01  0.85212813250E+01  0.84686494358E+01  0.12232090017E+02  0.51100000000E-03 0. -1.
        -11    1    3    3    0    0  0.16077807714E-01 -0.39009452701E+00  0.15983559512E+00  0.42187665791E+00  0.51100000000E-03 0.  1.
         12    1    3    3    0    0 -0.48350614246E+01  0.24240044891E+02  0.22594514205E+02  0.33488351220E+02  0.00000000000E+00 0. -1.
</event>
<event>
 7    1  0.3708346E-009  0.4614233E+02  0.7816164E-02  0.1320468E+00
        -11   -1    0    0    0    0  0.00000000000E+00  0.00000000000E+00  0.45593999997E+02  0.45594000000E+02  0.51100000000E-03 0.  1.
         11   -1    0    0    0    0 -0.00000000000E+00 -0.00000000000E+00 -0.45593999997E+02  0.45594000000E+02  0.51100000000E-03 0. -1.
    9900012    2    1    2    0    0 -0.43116298210E+02  0.12209528402E+02 -0.45853047590E+01  0.46142325681E+02  0.10000072219E+02 0.  0.
        -12    1    1    2    0    0  0.43116298210E+02 -0.12209528402E+02  0.45853047590E+01  0.45045674319E+02  0.00000000000E+00 0.  1.
         11    1    3    3    0    0 -0.15012005203E+02  0.23014965248E+01  0.16666540169E+01  0.15278577235E+02  0.51100000000E-03 0. -1.
        -11    1    3    3    0    0 -0.13707666103E+02  0.72905743949E+01 -0.22039966352E+01  0.15681523728E+02  0.51100000000E-03 0.  1.
         12    1    3    3    0    0 -0.14396626904E+02  0.26174574820E+01 -0.40479621407E+01  0.15182224718E+02  0.00000000000E+00 0. -1.
</event>
<event>
 7    1  0.3708346E-009  0.4614232E+02  0.7816164E-02  0.1320468E+00
        -11   -1    0    0    0    0  0.00000000000E+00  0.00000000000E+00  0.45593999997E+02  0.45594000000E+02  0.51100000000E-03 0. -1.
         11   -1    0    0    0    0 -0.00000000000E+00 -0.00000000000E+00 -0.45593999997E+02  0.45594000000E+02  0.51100000000E-03 0.  1.
    9900012    2    1    2    0    0  0.20482532249E+01 -0.11696102818E+02  0.43452497610E+02  0.46142315290E+02  0.99999774690E+01 0.  0.
        -12    1    1    2    0    0 -0.20482532249E+01  0.11696102818E+02 -0.43452497610E+02  0.45045684710E+02  0.00000000000E+00 0.  1.
         11    1    3    3    0    0  0.23925640637E+00 -0.13813803964E+00  0.13384425497E+02  0.13387276492E+02  0.51100000000E-03 0. -1.
        -11    1    3    3    0    0  0.92441139813E+00 -0.54480779195E+00  0.48775671810E+00  0.11786682486E+01  0.51100000000E-03 0.  1.
        -12    1    3    3    0    0  0.88458542041E+00 -0.11013156986E+02  0.29580315396E+02  0.31576370549E+02  0.00000000000E+00 0.  1.
</event>
<event>
 7    1  0.3708346E-009  0.4614232E+02  0.7816164E-02  0.1320468E+00
        -11   -1    0    0    0    0  0.00000000000E+00  0.00000000000E+00  0.45593999997E+02  0.45594000000E+02  0.51100000000E-03 0.  1.
         11   -1    0    0    0    0 -0.00000000000E+00 -0.00000000000E+00 -0.45593999997E+02  0.45594000000E+02  0.51100000000E-03 0. -1.
    9900012    2    1    2    0    0 -0.16983737587E+01 -0.41677889984E+02 -0.17005369221E+02  0.46142316863E+02  0.99999918101E+01 0.  0.
        -12    1    1    2    0    0  0.16983737587E+01  0.41677889984E+02  0.17005369221E+02  0.45045683137E+02  0.00000000000E+00 0.  1.
         11    1    3    3    0    0 -0.14320351214E+01 -0.25513145594E+02 -0.10841104104E+02  0.27757897276E+02  0.51100000000E-03 0. -1.
        -11    1    3    3    0    0  0.16990788454E+01 -0.97760429545E+01 -0.10697196668E+01  0.99800894384E+01  0.51100000000E-03 0.  1.
        -12    1    3    3    0    0 -0.19654174826E+01 -0.63887014349E+01 -0.50945454504E+01  0.84043301489E+01  0.00000000000E+00 0.  1.
</event>
<event>
 7    1  0.3708346E-009  0.4614232E+02  0.7816164E-02  0.1320468E+00
        -11   -1    0    0    0    0  0.00000000000E+00  0.00000000000E+00  0.45593999997E+02  0.45594000000E+02  0.51100000000E-03 0. -1.
         11   -1    0    0    0    0 -0.00000000000E+00 -0.00000000000E+00 -0.45593999997E+02  0.45594000000E+02  0.51100000000E-03 0.  1.
    9900012    2    1    2    0    0  0.57592421615E+01  0.43929583628E+02 -0.81324253955E+01  0.46142317290E+02  0.99999957046E+01 0.  0.
        -12    1    1    2    0    0 -0.57592421615E+01 -0.43929583628E+02  0.81324253955E+01  0.45045682710E+02  0.00000000000E+00 0.  1.
         11    1    3    3    0    0  0.18228180885E+01  0.33317501586E+02 -0.70367520992E+01  0.34101238365E+02  0.51100000000E-03 0. -1.
        -11    1    3    3    0    0  0.44923838156E+01  0.87149572035E+01 -0.17480653847E+01  0.99593034021E+01  0.51100000000E-03 0.  1.
        -12    1    3    3    0    0 -0.55595974257E+00  0.18971248387E+01  0.65239208834E+00  0.20817755225E+01  0.00000000000E+00 0.  1.
</event>
<event>
 7    1  0.3708346E-009  0.4614232E+02  0.7816164E-02  0.1320468E+00
        -11   -1    0    0    0    0  0.00000000000E+00  0.00000000000E+00  0.45593999997E+02  0.45594000000E+02  0.51100000000E-03 0.  1.
         11   -1    0    0    0    0 -0.00000000000E+00 -0.00000000000E+00 -0.45593999997E+02  0.45594000000E+02  0.51100000000E-03 0. -1.
    9900012    2    1    2    0    0  0.23303712743E+02 -0.38542056578E+02 -0.74859736882E+00  0.46142317067E+02  0.99999936703E+01 0.  0.
        -12    1    1    2    0    0 -0.23303712743E+02  0.38542056578E+02  0.74859736882E+00  0.45045682933E+02  0.00000000000E+00 0.  1.
         11    1    3    3    0    0  0.18473960539E+01 -0.97108002725E+01  0.20321556942E+01  0.10091688221E+02  0.51100000000E-03 0.  1.
        -11    1    3    3    0    0  0.16520867739E+02 -0.22525034594E+02 -0.20415553800E+01  0.28008645147E+02  0.51100000000E-03 0. -1.
        -12    1    3    3    0    0  0.49354489504E+01 -0.63062217113E+01 -0.73919768304E+00  0.80419836999E+01  0.00000000000E+00 0.  1.
</event>
<event>
 7    1  0.3708346E-009  0.4614232E+02  0.7816164E-02  0.1320468E+00
        -11   -1    0    0    0    0  0.00000000000E+00  0.00000000000E+00  0.45593999997E+02  0.45594000000E+02  0.51100000000E-03 0.  1.
         11   -1    0    0    0    0 -0.00000000000E+00 -0.00000000000E+00 -0.45593999997E+02  0.45594000000E+02  0.51100000000E-03 0. -1.
    9900012    2    1    2    0    0  0.15307151300E+02 -0.28486165978E+02 -0.31358298315E+02  0.46142318673E+02  0.10000008311E+02 0.  0.
        -12    1    1    2    0    0 -0.15307151300E+02  0.28486165978E+02  0.31358298315E+02  0.45045681327E+02  0.00000000000E+00 0.  1.
         11    1    3    3    0    0  0.73581767035E+01 -0.15134400476E+02 -0.13909294033E+02  0.21832574354E+02  0.51100000000E-03 0. -1.
        -11    1    3    3    0    0  0.13746513185E+01 -0.87772677897E+01 -0.99288265119E+01  0.13323351390E+02  0.51100000000E-03 0.  1.
         12    1    3    3    0    0  0.65743232776E+01 -0.45744977117E+01 -0.75201777706E+01  0.10986392928E+02  0.00000000000E+00 0. -1.
</event>
<event>
 7    1  0.3708346E-009  0.4614232E+02  0.7816164E-02  0.1320468E+00
        -11   -1    0    0    0    0  0.00000000000E+00  0.00000000000E+00  0.45593999997E+02  0.45594000000E+02  0.51100000000E-03 0. -1.
         11   -1    0    0    0    0 -0.00000000000E+00 -0.00000000000E+00 -0.45593999997E+02  0.45594000000E+02  0.51100000000E-03 0.  1.
    9900012    2    1    2    0    0  0.24509848924E+02  0.37682418811E+02 -0.29010495048E+01  0.46142317966E+02  0.10000001868E+02 0.  0.
        -12    1    1    2    0    0 -0.24509848924E+02 -0.37682418811E+02  0.29010495048E+01  0.45045682034E+02  0.00000000000E+00 0.  1.
         11    1    3    3    0    0  0.22386663650E+02  0.34272848834E+02 -0.14103489030E+01  0.40960712407E+02  0.51100000000E-03 0.  1.
        -11    1    3    3    0    0  0.46106816594E+00  0.26678684618E+01  0.17674393397E+00  0.27131798065E+01  0.51100000000E-03 0. -1.
        -12    1    3    3    0    0  0.16621171076E+01  0.74170151471E+00 -0.16674445358E+01  0.24684257526E+01  0.00000000000E+00 0.  1.
</event>
<event>
 7    1  0.3708346E-009  0.4614232E+02  0.7816164E-02  0.1320468E+00
        -11   -1    0    0    0    0  0.00000000000E+00  0.00000000000E+00  0.45593999997E+02  0.45594000000E+02  0.51100000000E-03 0.  1.
         11   -1    0    0    0    0 -0.00000000000E+00 -0.00000000000E+00 -0.45593999997E+02  0.45594000000E+02  0.51100000000E-03 0. -1.
    9900012    2    1    2    0    0  0.86083378807E+01 -0.38917506864E+02 -0.20986606663E+02  0.46142317845E+02  0.10000000768E+02 0.  0.
        -12    1    1    2    0    0 -0.86083378807E+01  0.38917506864E+02  0.20986606663E+02  0.45045682155E+02  0.00000000000E+00 0.  1.
         11    1    3    3    0    0  0.62472481212E+01 -0.35021713887E+02 -0.15579088026E+02  0.38836278615E+02  0.51100000000E-03 0. -1.
        -11    1    3    3    0    0  0.16199029925E+01 -0.16375059566E+01 -0.15543058095E+01  0.27787368126E+01  0.51100000000E-03 0.  1.
         12    1    3    3    0    0  0.74118676701E+00 -0.22582870200E+01 -0.38532128276E+01  0.45273024179E+01  0.00000000000E+00 0. -1.
</event>
<event>
 7    1  0.3708346E-009  0.4614232E+02  0.7816164E-02  0.1320468E+00
        -11   -1    0    0    0    0  0.00000000000E+00  0.00000000000E+00  0.45593999997E+02  0.45594000000E+02  0.51100000000E-03 0.  1.
         11   -1    0    0    0    0 -0.00000000000E+00 -0.00000000000E+00 -0.45593999997E+02  0.45594000000E+02  0.51100000000E-03 0. -1.
    9900012    2    1    2    0    0 -0.40779817715E+02  0.19106355422E+02 -0.10331413968E+01  0.46142315061E+02  0.99999753826E+01 0.  0.
        -12    1    1    2    0    0  0.40779817715E+02 -0.19106355422E+02  0.10331413968E+01  0.45045684939E+02  0.00000000000E+00 0.  1.
         11    1    3    3    0    0 -0.17456136909E+02  0.69292451729E+01  0.20781969854E+01  0.18895768241E+02  0.51100000000E-03 0. -1.
        -11    1    3    3    0    0 -0.14094956193E+02  0.98327425795E+01  0.13567258509E+00  0.17186303384E+02  0.51100000000E-03 0.  1.
        -12    1    3    3    0    0 -0.92287246141E+01  0.23443676700E+01 -0.32470109673E+01  0.10060243436E+02  0.00000000000E+00 0.  1.
</event>
<event>
 7    1  0.3708346E-009  0.4614232E+02  0.7816164E-02  0.1320468E+00
        -11   -1    0    0    0    0  0.00000000000E+00  0.00000000000E+00  0.45593999997E+02  0.45594000000E+02  0.51100000000E-03 0.  1.
         11   -1    0    0    0    0 -0.00000000000E+00 -0.00000000000E+00 -0.45593999997E+02  0.45594000000E+02  0.51100000000E-03 0. -1.
    9900012    2    1    2    0    0  0.32028375520E+02  0.31220344237E+02 -0.53466596565E+01  0.46142317607E+02  0.99999985975E+01 0.  0.
        -12    1    1    2    0    0 -0.32028375520E+02 -0.31220344237E+02  0.53466596565E+01  0.45045682393E+02  0.00000000000E+00 0.  1.
         11    1    3    3    0    0  0.50892624163E+00  0.23303259880E+00 -0.12111389043E+01  0.13342292975E+01  0.51100000000E-03 0.  1.
        -11    1    3    3    0    0  0.15162602810E+02  0.11019808934E+02 -0.28968296560E+01  0.18966611063E+02  0.51100000000E-03 0. -1.
        -12    1    3    3    0    0  0.16356846468E+02  0.19967502705E+02 -0.12386910962E+01  0.25841477246E+02  0.00000000000E+00 0.  1.
</event>
<event>
 7    1  0.3708346E-009  0.4614232E+02  0.7816164E-02  0.1320468E+00
        -11   -1    0    0    0    0  0.00000000000E+00  0.00000000000E+00  0.45593999997E+02  0.45594000000E+02  0.51100000000E-03 0. -1.
         11   -1    0    0    0    0 -0.00000000000E+00 -0.00000000000E+00 -0.45593999997E+02  0.45594000000E+02  0.51100000000E-03 0.  1.
    9900012    2    1    2    0    0  0.76617788228E+01 -0.41946246911E+02 -0.14523183133E+02  0.46142319486E+02  0.10000015733E+02 0.  0.
        -12    1    1    2    0    0 -0.76617788228E+01  0.41946246911E+02  0.14523183133E+02  0.45045680514E+02  0.00000000000E+00 0.  1.
         11    1    3    3    0    0  0.80159869815E+00 -0.70719874282E+00 -0.23045457932E+01  0.25403980218E+01  0.51100000000E-03 0.  1.
        -11    1    3    3    0    0  0.40011623463E+01 -0.22430988340E+02 -0.76723621504E+01  0.24042123019E+02  0.51100000000E-03 0. -1.
        -12    1    3    3    0    0  0.28590177783E+01 -0.18808059828E+02 -0.45462751889E+01  0.19559798446E+02  0.00000000000E+00 0.  1.
</event>
<event>
 7    1  0.3708346E-009  0.4614232E+02  0.7816164E-02  0.1320468E+00
        -11   -1    0    0    0    0  0.00000000000E+00  0.00000000000E+00  0.45593999997E+02  0.45594000000E+02  0.51100000000E-03 0. -1.
         11   -1    0    0    0    0 -0.00000000000E+00 -0.00000000000E+00 -0.45593999997E+02  0.45594000000E+02  0.51100000000E-03 0.  1.
    9900012    2    1    2    0    0 -0.36189321575E+01  0.17207281812E+02  0.41471993666E+02  0.46142317899E+02  0.10000001258E+02 0.  0.
        -12    1    1    2    0    0  0.36189321575E+01 -0.17207281812E+02 -0.41471993666E+02  0.45045682101E+02  0.00000000000E+00 0.  1.
         11    1    3    3    0    0 -0.12015421417E+01  0.27338395366E+01  0.11539951755E+02  0.11920070004E+02  0.51100000000E-03 0. -1.
        -11    1    3    3    0    0 -0.99618110643E+00  0.13068241057E+02  0.18832209666E+02  0.22943919070E+02  0.51100000000E-03 0.  1.
        -12    1    3    3    0    0 -0.14212089093E+01  0.14052012185E+01  0.11099832244E+02  0.11278328825E+02  0.00000000000E+00 0.  1.
</event>
<event>
 7    1  0.3708346E-009  0.4614232E+02  0.7816164E-02  0.1320468E+00
        -11   -1    0    0    0    0  0.00000000000E+00  0.00000000000E+00  0.45593999997E+02  0.45594000000E+02  0.51100000000E-03 0.  1.
         11   -1    0    0    0    0 -0.00000000000E+00 -0.00000000000E+00 -0.45593999997E+02  0.45594000000E+02  0.51100000000E-03 0. -1.
    9900012    2    1    2    0    0 -0.68833233655E+01 -0.30151231405E+02 -0.32751130653E+02  0.46142318133E+02  0.10000003391E+02 0.  0.
        -12    1    1    2    0    0  0.68833233655E+01  0.30151231405E+02  0.32751130653E+02  0.45045681867E+02  0.00000000000E+00 0.  1.
         11    1    3    3    0    0 -0.18706085695E+01 -0.16298393751E+02 -0.18301976300E+02  0.24578428592E+02  0.51100000000E-03 0. -1.
        -11    1    3    3    0    0 -0.85890309422E+00 -0.67104964874E+01 -0.10287365371E+02  0.12312528748E+02  0.51100000000E-03 0.  1.
        -12    1    3    3    0    0 -0.41538117018E+01 -0.71423411668E+01 -0.41617889818E+01  0.92513607932E+01  0.00000000000E+00 0.  1.
</event>
<event>
 7    1  0.3708346E-009  0.4614232E+02  0.7816164E-02  0.1320468E+00
        -11   -1    0    0    0    0  0.00000000000E+00  0.00000000000E+00  0.45593999997E+02  0.45594000000E+02  0.51100000000E-03 0.  1.
         11   -1    0    0    0    0 -0.00000000000E+00 -0.00000000000E+00 -0.45593999997E+02  0.45594000000E+02  0.51100000000E-03 0. -1.
    9900012    2    1    2    0    0 -0.11931337513E+02 -0.26874750856E+02 -0.34124835690E+02  0.46142318084E+02  0.10000002946E+02 0.  0.
        -12    1    1    2    0    0  0.11931337513E+02  0.26874750856E+02  0.34124835690E+02  0.45045681916E+02  0.00000000000E+00 0.  1.
         11    1    3    3    0    0 -0.73711218239E+01 -0.15604507872E+02 -0.20926977967E+02  0.27125126911E+02  0.51100000000E-03 0. -1.
        -11    1    3    3    0    0 -0.26436890513E+01 -0.22000620432E+01 -0.79058585995E+00  0.35290779330E+01  0.51100000000E-03 0.  1.
        -12    1    3    3    0    0 -0.19165266380E+01 -0.90701809408E+01 -0.12407271863E+02  0.15488113240E+02  0.00000000000E+00 0.  1.
</event>
<event>
 7    1  0.3708346E-009  0.4614232E+02  0.7816164E-02  0.1320468E+00
        -11   -1    0    0    0    0  0.00000000000E+00  0.00000000000E+00  0.45593999997E+02  0.45594000000E+02  0.51100000000E-03 0.  1.
         11   -1    0    0    0    0 -0.00000000000E+00 -0.00000000000E+00 -0.45593999997E+02  0.45594000000E+02  0.51100000000E-03 0. -1.
    9900012    2    1    2    0    0  0.17437899518E+02  0.33353357614E+02 -0.24750488009E+02  0.46142318072E+02  0.10000002833E+02 0.  0.
        -12    1    1    2    0    0 -0.17437899518E+02 -0.33353357614E+02  0.24750488009E+02  0.45045681928E+02  0.00000000000E+00 0.  1.
         11    1    3    3    0    0  0.12450010639E+01  0.87313458780E+01 -0.32192078746E+01  0.93888086620E+01  0.51100000000E-03 0. -1.
        -11    1    3    3    0    0  0.66706356682E+01  0.10156389916E+02 -0.11550324174E+02  0.16764832989E+02  0.51100000000E-03 0.  1.
         12    1    3    3    0    0  0.95222627863E+01  0.14465621820E+02 -0.99809559599E+01  0.19988676421E+02  0.00000000000E+00 0. -1.
</event>
<event>
 7    1  0.3708346E-009  0.4614232E+02  0.7816164E-02  0.1320468E+00
        -11   -1    0    0    0    0  0.00000000000E+00  0.00000000000E+00  0.45593999997E+02  0.45594000000E+02  0.51100000000E-03 0.  1.
         11   -1    0    0    0    0 -0.00000000000E+00 -0.00000000000E+00 -0.45593999997E+02  0.45594000000E+02  0.51100000000E-03 0. -1.
    9900012    2    1    2    0    0 -0.25969201163E+02 -0.21687889253E+02 -0.29738015765E+02  0.46142317288E+02  0.99999956874E+01 0.  0.
        -12    1    1    2    0    0  0.25969201163E+02  0.21687889253E+02  0.29738015765E+02  0.45045682712E+02  0.00000000000E+00 0.  1.
         11    1    3    3    0    0 -0.65985702927E+01 -0.52716493976E+01 -0.10808176724E+02  0.13716708849E+02  0.51100000000E-03 0. -1.
        -11    1    3    3    0    0 -0.17174330115E+02 -0.10780580522E+02 -0.14505683220E+02  0.24931774450E+02  0.51100000000E-03 0.  1.
        -12    1    3    3    0    0 -0.21963007560E+01 -0.56356593333E+01 -0.44241558204E+01  0.74938339890E+01  0.00000000000E+00 0.  1.
</event>
<event>
 7    1  0.3708346E-009  0.4614232E+02  0.7816164E-02  0.1320468E+00
        -11   -1    0    0    0    0  0.00000000000E+00  0.00000000000E+00  0.45593999997E+02  0.45594000000E+02  0.51100000000E-03 0.  1.
         11   -1    0    0    0    0 -0.00000000000E+00 -0.00000000000E+00 -0.45593999997E+02  0.45594000000E+02  0.51100000000E-03 0. -1.
    9900012    2    1    2    0    0  0.47928645035E+01 -0.25559903935E+02 -0.36780881336E+02  0.46142317952E+02  0.10000001741E+02 0.  0.
        -12    1    1    2    0    0 -0.47928645035E+01  0.25559903935E+02  0.36780881336E+02  0.45045682048E+02  0.00000000000E+00 0.  1.
         11    1    3    3    0    0 -0.19405931015E+01 -0.85033287696E+01 -0.13621879576E+02  0.16174922108E+02  0.51100000000E-03 0. -1.
        -11    1    3    3    0    0  0.18091817712E+01 -0.19222074490E+01 -0.60479596074E+01  0.65989268698E+01  0.51100000000E-03 0.  1.
         12    1    3    3    0    0  0.49242758338E+01 -0.15134367716E+02 -0.17111042152E+02  0.23368468974E+02  0.00000000000E+00 0. -1.
</event>
<event>
 7    1  0.3708346E-009  0.4614232E+02  0.7816164E-02  0.1320468E+00
        -11   -1    0    0    0    0  0.00000000000E+00  0.00000000000E+00  0.45593999997E+02  0.45594000000E+02  0.51100000000E-03 0. -1.
         11   -1    0    0    0    0 -0.00000000000E+00 -0.00000000000E+00 -0.45593999997E+02  0.45594000000E+02  0.51100000000E-03 0.  1.
    9900012    2    1    2    0    0  0.18399194961E+02 -0.18749504897E+02  0.36592886227E+02  0.46142316172E+02  0.99999855125E+01 0.  0.
        -12    1    1    2    0    0 -0.18399194961E+02  0.18749504897E+02 -0.36592886227E+02  0.45045683828E+02  0.00000000000E+00 0.  1.
         11    1    3    3    0    0  0.63013105550E+01 -0.12860351273E+02  0.18785075031E+02  0.23621477383E+02  0.51100000000E-03 0. -1.
        -11    1    3    3    0    0  0.33791759862E+01 -0.95449070079E+00  0.66872016953E+01  0.75530490280E+01  0.51100000000E-03 0.  1.
         12    1    3    3    0    0  0.87187084203E+01 -0.49346629231E+01  0.11120609500E+02  0.14967789761E+02  0.00000000000E+00 0. -1.
</event>
<event>
 7    1  0.3708346E-009  0.4614232E+02  0.7816164E-02  0.1320468E+00
        -11   -1    0    0    0    0  0.00000000000E+00  0.00000000000E+00  0.45593999997E+02  0.45594000000E+02  0.51100000000E-03 0.  1.
         11   -1    0    0    0    0 -0.00000000000E+00 -0.00000000000E+00 -0.45593999997E+02  0.45594000000E+02  0.51100000000E-03 0. -1.
    9900012    2    1    2    0    0  0.28235140092E+02 -0.13381643871E+02 -0.32447218912E+02  0.46142317145E+02  0.99999943860E+01 0.  0.
        -12    1    1    2    0    0 -0.28235140092E+02  0.13381643871E+02  0.32447218912E+02  0.45045682855E+02  0.00000000000E+00 0.  1.
         11    1    3    3    0    0  0.14886901029E+02 -0.29467677426E+01 -0.17206931185E+02  0.22943010775E+02  0.51100000000E-03 0. -1.
        -11    1    3    3    0    0  0.40861490843E+01 -0.58996089544E+01 -0.64193613698E+01  0.96286136495E+01  0.51100000000E-03 0.  1.
         12    1    3    3    0    0  0.92620899788E+01 -0.45352671743E+01 -0.88209263571E+01  0.13570692721E+02  0.00000000000E+00 0. -1.
</event>
<event>
 7    1  0.3708346E-009  0.4614232E+02  0.7816164E-02  0.1320468E+00
        -11   -1    0    0    0    0  0.00000000000E+00  0.00000000000E+00  0.45593999997E+02  0.45594000000E+02  0.51100000000E-03 0.  1.
         11   -1    0    0    0    0 -0.00000000000E+00 -0.00000000000E+00 -0.45593999997E+02  0.45594000000E+02  0.51100000000E-03 0. -1.
    9900012    2    1    2    0    0 -0.10725354859E+02 -0.24697788144E+02 -0.36112317682E+02  0.46142318026E+02  0.10000002420E+02 0.  0.
        -12    1    1    2    0    0  0.10725354859E+02  0.24697788144E+02  0.36112317682E+02  0.45045681974E+02  0.00000000000E+00 0.  1.
         11    1    3    3    0    0 -0.58124797545E+01 -0.17781915307E+02 -0.24753784025E+02  0.31027910930E+02  0.51100000000E-03 0. -1.
        -11    1    3    3    0    0 -0.20309941970E+01 -0.59661355614E+01 -0.49154903393E+01  0.79926063648E+01  0.51100000000E-03 0.  1.
         12    1    3    3    0    0 -0.28818809078E+01 -0.94973727580E+00 -0.64430433185E+01  0.71218007319E+01  0.00000000000E+00 0. -1.
</event>
<event>
 7    1  0.3708346E-009  0.4614232E+02  0.7816164E-02  0.1320468E+00
        -11   -1    0    0    0    0  0.00000000000E+00  0.00000000000E+00  0.45593999997E+02  0.45594000000E+02  0.51100000000E-03 0.  1.
         11   -1    0    0    0    0 -0.00000000000E+00 -0.00000000000E+00 -0.45593999997E+02  0.45594000000E+02  0.51100000000E-03 0. -1.
    9900012    2    1    2    0    0 -0.57432112006E+00 -0.42046362744E+02 -0.16151998117E+02  0.46142317544E+02  0.99999980211E+01 0.  0.
        -12    1    1    2    0    0  0.57432112006E+00  0.42046362744E+02  0.16151998117E+02  0.45045682456E+02  0.00000000000E+00 0.  1.
         11    1    3    3    0    0 -0.59195945160E+00 -0.28518641989E+02 -0.14153154909E+02  0.31842976479E+02  0.51100000000E-03 0. -1.
        -11    1    3    3    0    0 -0.11061296482E+01 -0.95218606989E+01  0.21133029310E+00  0.95882227092E+01  0.51100000000E-03 0.  1.
         12    1    3    3    0    0  0.11237679797E+01 -0.40058600568E+01 -0.22101735002E+01  0.47111183564E+01  0.00000000000E+00 0. -1.
</event>
<event>
 7    1  0.3708346E-009  0.4614232E+02  0.7816164E-02  0.1320468E+00
        -11   -1    0    0    0    0  0.00000000000E+00  0.00000000000E+00  0.45593999997E+02  0.45594000000E+02  0.51100000000E-03 0.  1.
         11   -1    0    0    0    0 -0.00000000000E+00 -0.00000000000E+00 -0.45593999997E+02  0.45594000000E+02  0.51100000000E-03 0. -1.
    9900012    2    1    2    0    0 -0.16918720732E+01  0.43718299999E+02 -0.10721994113E+02  0.46142319367E+02  0.10000014646E+02 0.  0.
        -12    1    1    2    0    0  0.16918720732E+01 -0.43718299999E+02  0.10721994113E+02  0.45045680633E+02  0.00000000000E+00 0.  1.
         11    1    3    3    0    0 -0.18154135323E+01  0.12000507742E+02 -0.21748633789E+01  0.12330366716E+02  0.51100000000E-03 0.  1.
        -11    1    3    3    0    0 -0.36045371152E+01  0.21701378631E+02 -0.51004771994E+01  0.22582236165E+02  0.51100000000E-03 0. -1.
        -12    1    3    3    0    0  0.37280785743E+01  0.10016413625E+02 -0.34466535344E+01  0.11229716486E+02  0.00000000000E+00 0.  1.
</event>
<event>
 7    1  0.3708346E-009  0.4614232E+02  0.7816164E-02  0.1320468E+00
        -11   -1    0    0    0    0  0.00000000000E+00  0.00000000000E+00  0.45593999997E+02  0.45594000000E+02  0.51100000000E-03 0. -1.
         11   -1    0    0    0    0 -0.00000000000E+00 -0.00000000000E+00 -0.45593999997E+02  0.45594000000E+02  0.51100000000E-03 0.  1.
    9900012    2    1    2    0    0  0.23689361078E+02 -0.10312153102E+02  0.36899692420E+02  0.46142316183E+02  0.99999856054E+01 0.  0.
        -12    1    1    2    0    0 -0.23689361078E+02  0.10312153102E+02 -0.36899692420E+02  0.45045683817E+02  0.00000000000E+00 0.  1.
         11    1    3    3    0    0  0.40029820766E+01 -0.35394129546E+01  0.92376713689E+01  0.10671732856E+02  0.51100000000E-03 0. -1.
        -11    1    3    3    0    0  0.11475400672E+02 -0.71862900079E+01  0.13660252147E+02  0.19233566326E+02  0.51100000000E-03 0.  1.
        -12    1    3    3    0    0  0.82109783302E+01  0.41354986006E+00  0.14001768904E+02  0.16237017000E+02  0.00000000000E+00 0.  1.
</event>
<event>
 7    1  0.3708346E-009  0.4614232E+02  0.7816164E-02  0.1320468E+00
        -11   -1    0    0    0    0  0.00000000000E+00  0.00000000000E+00  0.45593999997E+02  0.45594000000E+02  0.51100000000E-03 0.  1.
         11   -1    0    0    0    0 -0.00000000000E+00 -0.00000000000E+00 -0.45593999997E+02  0.45594000000E+02  0.51100000000E-03 0. -1.
    9900012    2    1    2    0    0  0.16512995073E+02 -0.76156038275E+01 -0.41212099275E+02  0.46142317026E+02  0.99999933011E+01 0.  0.
        -12    1    1    2    0    0 -0.16512995073E+02  0.76156038275E+01  0.41212099275E+02  0.45045682974E+02  0.00000000000E+00 0.  1.
         11    1    3    3    0    0  0.85771045759E+01 -0.62069283019E+01 -0.32905225000E+02  0.34566551960E+02  0.51100000000E-03 0. -1.
        -11    1    3    3    0    0  0.22635233720E+01 -0.45730526735E+00 -0.22959656011E+01  0.32563974674E+01  0.51100000000E-03 0.  1.
         12    1    3    3    0    0  0.56723671247E+01 -0.95137025824E+00 -0.60109086739E+01  0.83193675992E+01  0.00000000000E+00 0. -1.
</event>
<event>
 7    1  0.3708346E-009  0.4614232E+02  0.7816164E-02  0.1320468E+00
        -11   -1    0    0    0    0  0.00000000000E+00  0.00000000000E+00  0.45593999997E+02  0.45594000000E+02  0.51100000000E-03 0. -1.
         11   -1    0    0    0    0 -0.00000000000E+00 -0.00000000000E+00 -0.45593999997E+02  0.45594000000E+02  0.51100000000E-03 0.  1.
    9900012    2    1    2    0    0 -0.12539974076E+02 -0.25410791572E+02  0.35016486198E+02  0.46142316702E+02  0.99999903390E+01 0.  0.
        -12    1    1    2    0    0  0.12539974076E+02  0.25410791572E+02 -0.35016486198E+02  0.45045683298E+02  0.00000000000E+00 0.  1.
         11    1    3    3    0    0 -0.64779668749E+01 -0.55588505439E+01  0.10862573120E+02  0.13815222375E+02  0.51100000000E-03 0. -1.
        -11    1    3    3    0    0 -0.16681217459E+01 -0.59501683367E+01  0.36793422273E+01  0.71919881036E+01  0.51100000000E-03 0.  1.
         12    1    3    3    0    0 -0.43938854553E+01 -0.13901772691E+02  0.20474570850E+02  0.25135106224E+02  0.00000000000E+00 0. -1.
</event>
<event>
 7    1  0.3708346E-009  0.4614232E+02  0.7816164E-02  0.1320468E+00
        -11   -1    0    0    0    0  0.00000000000E+00  0.00000000000E+00  0.45593999997E+02  0.45594000000E+02  0.51100000000E-03 0.  1.
         11   -1    0    0    0    0 -0.00000000000E+00 -0.00000000000E+00 -0.45593999997E+02  0.45594000000E+02  0.51100000000E-03 0. -1.
    9900012    2    1    2    0    0 -0.19948665482E+02 -0.19390988484E+02 -0.35428149511E+02  0.46142318002E+02  0.10000002199E+02 0.  0.
        -12    1    1    2    0    0  0.19948665482E+02  0.19390988484E+02  0.35428149511E+02  0.45045681998E+02  0.00000000000E+00 0.  1.
         11    1    3    3    0    0 -0.29375585938E+00  0.64018986787E+00 -0.63975155942E+00  0.95153449267E+00  0.51100000000E-03 0. -1.
        -11    1    3    3    0    0 -0.59589983755E+01 -0.25895930326E+01 -0.10053067204E+02  0.11969954644E+02  0.51100000000E-03 0.  1.
         12    1    3    3    0    0 -0.13695911247E+02 -0.17441585319E+02 -0.24735330747E+02  0.33220828865E+02  0.00000000000E+00 0. -1.
</event>
<event>
 7    1  0.3708346E-009  0.4614232E+02  0.7816164E-02  0.1320468E+00
        -11   -1    0    0    0    0  0.00000000000E+00  0.00000000000E+00  0.45593999997E+02  0.45594000000E+02  0.51100000000E-03 0.  1.
         11   -1    0    0    0    0 -0.00000000000E+00 -0.00000000000E+00 -0.45593999997E+02  0.45594000000E+02  0.51100000000E-03 0. -1.
    9900012    2    1    2    0    0 -0.62912195226E+01 -0.15695116085E+02 -0.41751610608E+02  0.46142322068E+02  0.10000039271E+02 0.  0.
        -12    1    1    2    0    0  0.62912195226E+01  0.15695116085E+02  0.41751610608E+02  0.45045677932E+02  0.00000000000E+00 0.  1.
         11    1    3    3    0    0 -0.73866349006E+01 -0.66592936388E+01 -0.27322852518E+02  0.29076568520E+02  0.51100000000E-03 0. -1.
        -11    1    3    3    0    0  0.55870007009E+00 -0.52058538211E+01 -0.78996473094E+01  0.94772088533E+01  0.51100000000E-03 0.  1.
         12    1    3    3    0    0  0.53671530792E+00 -0.38299686251E+01 -0.65291107805E+01  0.75885446942E+01  0.00000000000E+00 0. -1.
</event>
<event>
 7    1  0.3708346E-009  0.4614232E+02  0.7816164E-02  0.1320468E+00
        -11   -1    0    0    0    0  0.00000000000E+00  0.00000000000E+00  0.45593999997E+02  0.45594000000E+02  0.51100000000E-03 0. -1.
         11   -1    0    0    0    0 -0.00000000000E+00 -0.00000000000E+00 -0.45593999997E+02  0.45594000000E+02  0.51100000000E-03 0.  1.
    9900012    2    1    2    0    0  0.23611478703E+02 -0.36176830505E+02  0.12761209052E+02  0.46142318204E+02  0.10000004043E+02 0.  0.
        -12    1    1    2    0    0 -0.23611478703E+02  0.36176830505E+02 -0.12761209052E+02  0.45045681796E+02  0.00000000000E+00 0.  1.
         11    1    3    3    0    0  0.11803254195E+02 -0.16904438262E+02  0.92618073615E+01  0.22602166233E+02  0.51100000000E-03 0. -1.
        -11    1    3    3    0    0  0.12312322485E+02 -0.18689084939E+02  0.38223280060E+01  0.22704302951E+02  0.51100000000E-03 0.  1.
        -12    1    3    3    0    0 -0.50409797650E+00 -0.58330730370E+00 -0.32292631550E+00  0.83584902088E+00  0.00000000000E+00 0.  1.
</event>
<event>
 7    1  0.3708346E-009  0.4614232E+02  0.7816164E-02  0.1320468E+00
        -11   -1    0    0    0    0  0.00000000000E+00  0.00000000000E+00  0.45593999997E+02  0.45594000000E+02  0.51100000000E-03 0.  1.
         11   -1    0    0    0    0 -0.00000000000E+00 -0.00000000000E+00 -0.45593999997E+02  0.45594000000E+02  0.51100000000E-03 0. -1.
    9900012    2    1    2    0    0  0.42750428534E+02  0.36101938476E+01  0.13728824032E+02  0.46142320421E+02  0.10000024255E+02 0.  0.
        -12    1    1    2    0    0 -0.42750428534E+02 -0.36101938476E+01 -0.13728824032E+02  0.45045679579E+02  0.00000000000E+00 0.  1.
         11    1    3    3    0    0  0.28914281310E+02  0.99987478937E+00  0.12833407180E+02  0.31650146183E+02  0.51100000000E-03 0. -1.
        -11    1    3    3    0    0  0.14183031385E+01 -0.17369474321E-01 -0.88983652414E+00  0.16744237194E+01  0.51100000000E-03 0.  1.
         12    1    3    3    0    0  0.12417844085E+02  0.26276885325E+01  0.17852533762E+01  0.12817750519E+02  0.00000000000E+00 0. -1.
</event>
<event>
 7    1  0.3708346E-009  0.4614232E+02  0.7816164E-02  0.1320468E+00
        -11   -1    0    0    0    0  0.00000000000E+00  0.00000000000E+00  0.45593999997E+02  0.45594000000E+02  0.51100000000E-03 0.  1.
         11   -1    0    0    0    0 -0.00000000000E+00 -0.00000000000E+00 -0.45593999997E+02  0.45594000000E+02  0.51100000000E-03 0. -1.
    9900012    2    1    2    0    0 -0.28364552438E+02  0.95155297810E+01 -0.33675217979E+02  0.46142318210E+02  0.10000004093E+02 0.  0.
        -12    1    1    2    0    0  0.28364552438E+02 -0.95155297810E+01  0.33675217979E+02  0.45045681790E+02  0.00000000000E+00 0.  1.
         11    1    3    3    0    0 -0.54217078381E+01  0.51448311480E+01 -0.53028819870E+01  0.91643199994E+01  0.51100000000E-03 0. -1.
        -11    1    3    3    0    0 -0.77968630678E+01  0.14869955626E+01 -0.12820954241E+02  0.15079094715E+02  0.51100000000E-03 0.  1.
         12    1    3    3    0    0 -0.15145981532E+02  0.28837030704E+01 -0.15551381751E+02  0.21898903496E+02  0.00000000000E+00 0. -1.
</event>
<event>
 7    1  0.3708346E-009  0.4614232E+02  0.7816164E-02  0.1320468E+00
        -11   -1    0    0    0    0  0.00000000000E+00  0.00000000000E+00  0.45593999997E+02  0.45594000000E+02  0.51100000000E-03 0.  1.
         11   -1    0    0    0    0 -0.00000000000E+00 -0.00000000000E+00 -0.45593999997E+02  0.45594000000E+02  0.51100000000E-03 0. -1.
    9900012    2    1    2    0    0 -0.25482914902E+02 -0.29777071197E+02 -0.22204968263E+02  0.46142317227E+02  0.99999951265E+01 0.  0.
        -12    1    1    2    0    0  0.25482914902E+02  0.29777071197E+02  0.22204968263E+02  0.45045682773E+02  0.00000000000E+00 0.  1.
         11    1    3    3    0    0 -0.83868457826E+01 -0.10008827275E+02 -0.26940349686E+01  0.13333177801E+02  0.51100000000E-03 0. -1.
        -11    1    3    3    0    0 -0.79966444572E+01 -0.73964397235E+01 -0.96950145629E+01  0.14582419237E+02  0.51100000000E-03 0.  1.
        -12    1    3    3    0    0 -0.90994246622E+01 -0.12371804198E+02 -0.98159187313E+01  0.18226720189E+02  0.00000000000E+00 0.  1.
</event>
<event>
 7    1  0.3708346E-009  0.4614232E+02  0.7816164E-02  0.1320468E+00
        -11   -1    0    0    0    0  0.00000000000E+00  0.00000000000E+00  0.45593999997E+02  0.45594000000E+02  0.51100000000E-03 0. -1.
         11   -1    0    0    0    0 -0.00000000000E+00 -0.00000000000E+00 -0.45593999997E+02  0.45594000000E+02  0.51100000000E-03 0.  1.
    9900012    2    1    2    0    0  0.42524000858E+02  0.63116852377E+00 -0.14846699382E+02  0.46142317574E+02  0.99999982969E+01 0.  0.
        -12    1    1    2    0    0 -0.42524000858E+02 -0.63116852377E+00  0.14846699382E+02  0.45045682426E+02  0.00000000000E+00 0.  1.
         11    1    3    3    0    0  0.27178438565E+02  0.61753618399E+00 -0.58581016567E+01  0.27809462941E+02  0.51100000000E-03 0. -1.
        -11    1    3    3    0    0  0.50007384199E+01 -0.16730375877E+01 -0.44940608338E+01  0.69284213608E+01  0.51100000000E-03 0.  1.
        -12    1    3    3    0    0  0.10344823873E+02  0.16866699274E+01 -0.44945368919E+01  0.11404433273E+02  0.00000000000E+00 0.  1.
</event>
<event>
 7    1  0.3708346E-009  0.4614232E+02  0.7816164E-02  0.1320468E+00
        -11   -1    0    0    0    0  0.00000000000E+00  0.00000000000E+00  0.45593999997E+02  0.45594000000E+02  0.51100000000E-03 0. -1.
         11   -1    0    0    0    0 -0.00000000000E+00 -0.00000000000E+00 -0.45593999997E+02  0.45594000000E+02  0.51100000000E-03 0.  1.
    9900012    2    1    2    0    0  0.54195065504E+01 -0.39798059209E+02  0.20392565565E+02  0.46142319870E+02  0.10000019231E+02 0.  0.
        -12    1    1    2    0    0 -0.54195065504E+01  0.39798059209E+02 -0.20392565565E+02  0.45045680130E+02  0.00000000000E+00 0.  1.
         11    1    3    3    0    0  0.26732352939E+01 -0.12755296814E+02  0.28333709073E+01  0.13336857752E+02  0.51100000000E-03 0. -1.
        -11    1    3    3    0    0  0.36022572275E+01 -0.12781381765E+02  0.10131880945E+02  0.16703143079E+02  0.51100000000E-03 0.  1.
         12    1    3    3    0    0 -0.85598597099E+00 -0.14261380630E+02  0.74273137127E+01  0.16102319039E+02  0.00000000000E+00 0. -1.
</event>
<event>
 7    1  0.3708346E-009  0.4614232E+02  0.7816164E-02  0.1320468E+00
        -11   -1    0    0    0    0  0.00000000000E+00  0.00000000000E+00  0.45593999997E+02  0.45594000000E+02  0.51100000000E-03 0.  1.
         11   -1    0    0    0    0 -0.00000000000E+00 -0.00000000000E+00 -0.45593999997E+02  0.45594000000E+02  0.51100000000E-03 0. -1.
    9900012    2    1    2    0    0 -0.43593300183E+01 -0.39251143564E+02 -0.21666968524E+02  0.46142317029E+02  0.99999933216E+01 0.  0.
        -12    1    1    2    0    0  0.43593300183E+01  0.39251143564E+02  0.21666968524E+02  0.45045682971E+02  0.00000000000E+00 0.  1.
         11    1    3    3    0    0  0.19415776746E+01 -0.67332376728E+01 -0.55725301113E+01  0.89531729308E+01  0.51100000000E-03 0. -1.
        -11    1    3    3    0    0 -0.14939116071E+01 -0.14842924597E+01 -0.73471163357E+00  0.22304029773E+01  0.51100000000E-03 0.  1.
        -12    1    3    3    0    0 -0.48069960858E+01 -0.31033613432E+02 -0.15359726779E+02  0.34958741121E+02  0.00000000000E+00 0.  1.
</event>
<event>
 7    1  0.3708346E-009  0.4614232E+02  0.7816164E-02  0.1320468E+00
        -11   -1    0    0    0    0  0.00000000000E+00  0.00000000000E+00  0.45593999997E+02  0.45594000000E+02  0.51100000000E-03 0.  1.
         11   -1    0    0    0    0 -0.00000000000E+00 -0.00000000000E+00 -0.45593999997E+02  0.45594000000E+02  0.51100000000E-03 0. -1.
    9900012    2    1    2    0    0  0.15010815153E+02  0.14045951008E+02 -0.40081169906E+02  0.46142317717E+02  0.99999995971E+01 0.  0.
        -12    1    1    2    0    0 -0.15010815153E+02 -0.14045951008E+02  0.40081169906E+02  0.45045682283E+02  0.00000000000E+00 0.  1.
         11    1    3    3    0    0  0.37187200872E+01  0.14135160970E+01 -0.77944850164E+01  0.87510515812E+01  0.51100000000E-03 0. -1.
        -11    1    3    3    0    0  0.30001997071E+01  0.86520205705E+01 -0.11815768070E+02  0.14948947574E+02  0.51100000000E-03 0.  1.
        -12    1    3    3    0    0  0.82918953590E+01  0.39804143407E+01 -0.20470916820E+02  0.22442318561E+02  0.00000000000E+00 0.  1.
</event>
<event>
 7    1  0.3708346E-009  0.4614232E+02  0.7816164E-02  0.1320468E+00
        -11   -1    0    0    0    0  0.00000000000E+00  0.00000000000E+00  0.45593999997E+02  0.45594000000E+02  0.51100000000E-03 0.  1.
         11   -1    0    0    0    0 -0.00000000000E+00 -0.00000000000E+00 -0.45593999997E+02  0.45594000000E+02  0.51100000000E-03 0. -1.
    9900012    2    1    2    0    0 -0.42313598419E+02 -0.63392212746E+01 -0.14088546393E+02  0.46142317887E+02  0.10000001149E+02 0.  0.
        -12    1    1    2    0    0  0.42313598419E+02  0.63392212746E+01  0.14088546393E+02  0.45045682113E+02  0.00000000000E+00 0.  1.
         11    1    3    3    0    0 -0.16616321664E+02 -0.59522777758E+01 -0.23354199739E+01  0.17804099053E+02  0.51100000000E-03 0. -1.
        -11    1    3    3    0    0 -0.13985633538E+02  0.82660433588E+00 -0.65446684556E+01  0.15463308367E+02  0.51100000000E-03 0.  1.
         12    1    3    3    0    0 -0.11711643217E+02 -0.12135478347E+01 -0.52084579638E+01  0.12874910467E+02  0.00000000000E+00 0. -1.
</event>
<event>
 7    1  0.3708346E-009  0.4614232E+02  0.7816164E-02  0.1320468E+00
        -11   -1    0    0    0    0  0.00000000000E+00  0.00000000000E+00  0.45593999997E+02  0.45594000000E+02  0.51100000000E-03 0. -1.
         11   -1    0    0    0    0 -0.00000000000E+00 -0.00000000000E+00 -0.45593999997E+02  0.45594000000E+02  0.51100000000E-03 0.  1.
    9900012    2    1    2    0    0  0.26229226663E+02  0.36621593422E+02  0.14830178613E-01  0.46142315900E+02  0.99999830284E+01 0.  0.
        -12    1    1    2    0    0 -0.26229226663E+02 -0.36621593422E+02 -0.14830178613E-01  0.45045684100E+02  0.00000000000E+00 0.  1.
         11    1    3    3    0    0  0.25781665386E+01  0.50140428826E+01 -0.18135116033E+01  0.59225326783E+01  0.51100000000E-03 0. -1.
        -11    1    3    3    0    0  0.60208064759E+01  0.13247925188E+02  0.24582886611E+01  0.14758076291E+02  0.51100000000E-03 0.  1.
         12    1    3    3    0    0  0.17630253648E+02  0.18359625352E+02 -0.62994687911E+00  0.25461706931E+02  0.00000000000E+00 0. -1.
</event>
<event>
 7    1  0.3708346E-009  0.4614232E+02  0.7816164E-02  0.1320468E+00
        -11   -1    0    0    0    0  0.00000000000E+00  0.00000000000E+00  0.45593999997E+02  0.45594000000E+02  0.51100000000E-03 0.  1.
         11   -1    0    0    0    0 -0.00000000000E+00 -0.00000000000E+00 -0.45593999997E+02  0.45594000000E+02  0.51100000000E-03 0. -1.
    9900012    2    1    2    0    0 -0.32467717442E+02  0.31188608762E+02 -0.14938369005E+01  0.46142317176E+02  0.99999946632E+01 0.  0.
        -12    1    1    2    0    0  0.32467717442E+02 -0.31188608762E+02  0.14938369005E+01  0.45045682824E+02  0.00000000000E+00 0.  1.
         11    1    3    3    0    0 -0.64843041834E+01  0.54004841949E+01 -0.18813337573E+01  0.86458572305E+01  0.51100000000E-03 0. -1.
        -11    1    3    3    0    0 -0.11422934553E+02  0.14309865752E+02  0.36517518507E+01  0.18670591407E+02  0.51100000000E-03 0.  1.
        -12    1    3    3    0    0 -0.14560478706E+02  0.11478258815E+02 -0.32642549939E+01  0.18825868539E+02  0.00000000000E+00 0.  1.
</event>
<event>
 7    1  0.3708346E-009  0.4614231E+02  0.7816164E-02  0.1320468E+00
        -11   -1    0    0    0    0  0.00000000000E+00  0.00000000000E+00  0.45593999997E+02  0.45594000000E+02  0.51100000000E-03 0.  1.
         11   -1    0    0    0    0 -0.00000000000E+00 -0.00000000000E+00 -0.45593999997E+02  0.45594000000E+02  0.51100000000E-03 0. -1.
    9900012    2    1    2    0    0  0.16911801764E+02  0.38025689722E+02 -0.17238108004E+02  0.46142306695E+02  0.99998990906E+01 0.  0.
        -12    1    1    2    0    0 -0.16911801764E+02 -0.38025689722E+02  0.17238108004E+02  0.45045693305E+02  0.00000000000E+00 0.  1.
         11    1    3    3    0    0  0.14688724250E+02  0.24057199278E+02 -0.10186439534E+02  0.29971169611E+02  0.51100000000E-03 0. -1.
        -11    1    3    3    0    0 -0.43094081812E+00  0.13869972448E+00 -0.36780345040E+00  0.58329001495E+00  0.51100000000E-03 0.  1.
         12    1    3    3    0    0  0.26540183325E+01  0.13829790720E+02 -0.66838650190E+01  0.15587847069E+02  0.00000000000E+00 0. -1.
</event>
<event>
 7    1  0.3708346E-009  0.4614232E+02  0.7816164E-02  0.1320468E+00
        -11   -1    0    0    0    0  0.00000000000E+00  0.00000000000E+00  0.45593999997E+02  0.45594000000E+02  0.51100000000E-03 0.  1.
         11   -1    0    0    0    0 -0.00000000000E+00 -0.00000000000E+00 -0.45593999997E+02  0.45594000000E+02  0.51100000000E-03 0. -1.
    9900012    2    1    2    0    0 -0.28398372832E+02 -0.34837144032E+02 -0.30032191170E+01  0.46142317534E+02  0.99999979251E+01 0.  0.
        -12    1    1    2    0    0  0.28398372832E+02  0.34837144032E+02  0.30032191170E+01  0.45045682466E+02  0.00000000000E+00 0.  1.
         11    1    3    3    0    0 -0.13516237466E+02 -0.11404456602E+02 -0.19200961217E+01  0.17788678282E+02  0.51100000000E-03 0. -1.
        -11    1    3    3    0    0 -0.25552036631E+01 -0.80550864372E+01  0.11111693763E+01  0.85233902242E+01  0.51100000000E-03 0.  1.
         12    1    3    3    0    0 -0.12326931703E+02 -0.15377600992E+02 -0.21942923716E+01  0.19830249028E+02  0.00000000000E+00 0. -1.
</event>
<event>
 7    1  0.3708346E-009  0.4614232E+02  0.7816164E-02  0.1320468E+00
        -11   -1    0    0    0    0  0.00000000000E+00  0.00000000000E+00  0.45593999997E+02  0.45594000000E+02  0.51100000000E-03 0.  1.
         11   -1    0    0    0    0 -0.00000000000E+00 -0.00000000000E+00 -0.45593999997E+02  0.45594000000E+02  0.51100000000E-03 0. -1.
    9900012    2    1    2    0    0 -0.32117832874E+02 -0.26423767412E+02 -0.17301531168E+02  0.46142315928E+02  0.99999832811E+01 0.  0.
        -12    1    1    2    0    0  0.32117832874E+02  0.26423767412E+02  0.17301531168E+02  0.45045684072E+02  0.00000000000E+00 0.  1.
         11    1    3    3    0    0 -0.86139513808E+01 -0.89540271370E+01 -0.63631785106E+01  0.13959398317E+02  0.51100000000E-03 0. -1.
        -11    1    3    3    0    0 -0.53011368416E+01 -0.71558850677E+01 -0.82080963316E+00  0.89432919906E+01  0.51100000000E-03 0.  1.
        -12    1    3    3    0    0 -0.18202744651E+02 -0.10313855208E+02 -0.10117543025E+02  0.23239625620E+02  0.00000000000E+00 0.  1.
</event>
<event>
 7    1  0.3708346E-009  0.4614233E+02  0.7816164E-02  0.1320468E+00
        -11   -1    0    0    0    0  0.00000000000E+00  0.00000000000E+00  0.45593999997E+02  0.45594000000E+02  0.51100000000E-03 0.  1.
         11   -1    0    0    0    0 -0.00000000000E+00 -0.00000000000E+00 -0.45593999997E+02  0.45594000000E+02  0.51100000000E-03 0. -1.
    9900012    2    1    2    0    0  0.26766066776E+02  0.34347718058E+02 -0.11529281078E+02  0.46142329968E+02  0.10000111314E+02 0.  0.
        -12    1    1    2    0    0 -0.26766066776E+02 -0.34347718058E+02  0.11529281078E+02  0.45045670032E+02  0.00000000000E+00 0.  1.
         11    1    3    3    0    0  0.22327946026E+02  0.23296309752E+02 -0.63622597007E+01  0.32889718311E+02  0.51100000000E-03 0. -1.
        -11    1    3    3    0    0  0.41959225264E+01  0.10212311778E+02 -0.38908869120E+01  0.11706241024E+02  0.51100000000E-03 0.  1.
        -12    1    3    3    0    0  0.24219822355E+00  0.83909652813E+00 -0.12761344650E+01  0.15463706334E+01  0.00000000000E+00 0.  1.
</event>
<event>
 7    1  0.3708346E-009  0.4614232E+02  0.7816164E-02  0.1320468E+00
        -11   -1    0    0    0    0  0.00000000000E+00  0.00000000000E+00  0.45593999997E+02  0.45594000000E+02  0.51100000000E-03 0. -1.
         11   -1    0    0    0    0 -0.00000000000E+00 -0.00000000000E+00 -0.45593999997E+02  0.45594000000E+02  0.51100000000E-03 0.  1.
    9900012    2    1    2    0    0 -0.23727422532E+02  0.15596647742E+02  0.34969520934E+02  0.46142318796E+02  0.10000009436E+02 0.  0.
        -12    1    1    2    0    0  0.23727422532E+02 -0.15596647742E+02 -0.34969520934E+02  0.45045681204E+02  0.00000000000E+00 0.  1.
         11    1    3    3    0    0 -0.11662767225E+02  0.60780766001E+01  0.97005827489E+01  0.16342106976E+02  0.51100000000E-03 0. -1.
        -11    1    3    3    0    0 -0.89647119911E+00  0.54866294748E+00  0.41543722592E+01  0.42852655425E+01  0.51100000000E-03 0.  1.
         12    1    3    3    0    0 -0.11168184108E+02  0.89699081940E+01  0.21114565926E+02  0.25514946277E+02  0.00000000000E+00 0. -1.
</event>
<event>
 7    1  0.3708346E-009  0.4614232E+02  0.7816164E-02  0.1320468E+00
        -11   -1    0    0    0    0  0.00000000000E+00  0.00000000000E+00  0.45593999997E+02  0.45594000000E+02  0.51100000000E-03 0.  1.
         11   -1    0    0    0    0 -0.00000000000E+00 -0.00000000000E+00 -0.45593999997E+02  0.45594000000E+02  0.51100000000E-03 0. -1.
    9900012    2    1    2    0    0 -0.29766131994E+01  0.41002421954E+02 -0.18413435408E+02  0.46142318345E+02  0.10000005321E+02 0.  0.
        -12    1    1    2    0    0  0.29766131994E+01 -0.41002421954E+02  0.18413435408E+02  0.45045681655E+02  0.00000000000E+00 0.  1.
         11    1    3    3    0    0 -0.24027525530E+01  0.16719841764E+02 -0.90071224326E+01  0.19143003506E+02  0.51100000000E-03 0. -1.
        -11    1    3    3    0    0 -0.18729512627E+01  0.71662103223E+01  0.38271012096E-01  0.74070224617E+01  0.51100000000E-03 0.  1.
         12    1    3    3    0    0  0.12990906163E+01  0.17116369868E+02 -0.94445839880E+01  0.19592292377E+02  0.00000000000E+00 0. -1.
</event>
<event>
 7    1  0.3708346E-009  0.4614232E+02  0.7816164E-02  0.1320468E+00
        -11   -1    0    0    0    0  0.00000000000E+00  0.00000000000E+00  0.45593999997E+02  0.45594000000E+02  0.51100000000E-03 0. -1.
         11   -1    0    0    0    0 -0.00000000000E+00 -0.00000000000E+00 -0.45593999997E+02  0.45594000000E+02  0.51100000000E-03 0.  1.
    9900012    2    1    2    0    0 -0.67287207234E+01  0.24178345227E+02  0.37406488310E+02  0.46142318429E+02  0.10000006090E+02 0.  0.
        -12    1    1    2    0    0  0.67287207234E+01 -0.24178345227E+02 -0.37406488310E+02  0.45045681571E+02  0.00000000000E+00 0.  1.
         11    1    3    3    0    0 -0.29765550100E+01  0.22866760664E+01  0.84402791276E+01  0.92372657845E+01  0.51100000000E-03 0. -1.
        -11    1    3    3    0    0 -0.25548776739E+01  0.17809879508E+02  0.19530569849E+02  0.26554893465E+02  0.51100000000E-03 0.  1.
         12    1    3    3    0    0 -0.11972880395E+01  0.40817896522E+01  0.94356393335E+01  0.10350159180E+02  0.00000000000E+00 0. -1.
</event>
<event>
 7    1  0.3708346E-009  0.4614232E+02  0.7816164E-02  0.1320468E+00
        -11   -1    0    0    0    0  0.00000000000E+00  0.00000000000E+00  0.45593999997E+02  0.45594000000E+02  0.51100000000E-03 0.  1.
         11   -1    0    0    0    0 -0.00000000000E+00 -0.00000000000E+00 -0.45593999997E+02  0.45594000000E+02  0.51100000000E-03 0. -1.
    9900012    2    1    2    0    0  0.39537594800E+02 -0.10404710280E+01 -0.21559445209E+02  0.46142315853E+02  0.99999826047E+01 0.  0.
        -12    1    1    2    0    0 -0.39537594800E+02  0.10404710280E+01  0.21559445209E+02  0.45045684147E+02  0.00000000000E+00 0.  1.
         11    1    3    3    0    0  0.62738406045E+01  0.22332484433E+01 -0.25565165766E+01  0.71333198307E+01  0.51100000000E-03 0. -1.
        -11    1    3    3    0    0  0.65379843671E+01 -0.23039109612E+01 -0.16393734305E+01  0.71232570364E+01  0.51100000000E-03 0.  1.
         12    1    3    3    0    0  0.26725769828E+02 -0.96980851015E+00 -0.17363555202E+02  0.31885738986E+02  0.00000000000E+00 0. -1.
</event>
<event>
 7    1  0.3708346E-009  0.4614232E+02  0.7816164E-02  0.1320468E+00
        -11   -1    0    0    0    0  0.00000000000E+00  0.00000000000E+00  0.45593999997E+02  0.45594000000E+02  0.51100000000E-03 0.  1.
         11   -1    0    0    0    0 -0.00000000000E+00 -0.00000000000E+00 -0.45593999997E+02  0.45594000000E+02  0.51100000000E-03 0. -1.
    9900012    2    1    2    0    0  0.34248231583E+02  0.34488740514E+01 -0.29056443415E+02  0.46142323151E+02  0.10000049153E+02 0.  0.
        -12    1    1    2    0    0 -0.34248231583E+02 -0.34488740514E+01  0.29056443415E+02  0.45045676849E+02  0.00000000000E+00 0.  1.
         11    1    3    3    0    0  0.77239837290E+01  0.16561186147E+01 -0.99472012304E+01  0.12702340969E+02  0.51100000000E-03 0. -1.
        -11    1    3    3    0    0  0.19166544485E+02 -0.17937926351E+01 -0.13073085368E+02  0.23269715959E+02  0.51100000000E-03 0.  1.
        -12    1    3    3    0    0  0.73577033699E+01  0.35865480717E+01 -0.60361568164E+01  0.10170266224E+02  0.00000000000E+00 0.  1.
</event>
<event>
 7    1  0.3708346E-009  0.4614232E+02  0.7816164E-02  0.1320468E+00
        -11   -1    0    0    0    0  0.00000000000E+00  0.00000000000E+00  0.45593999997E+02  0.45594000000E+02  0.51100000000E-03 0.  1.
         11   -1    0    0    0    0 -0.00000000000E+00 -0.00000000000E+00 -0.45593999997E+02  0.45594000000E+02  0.51100000000E-03 0. -1.
    9900012    2    1    2    0    0 -0.63081430364E+01  0.35687701884E+02 -0.26752734685E+02  0.46142317105E+02  0.99999940155E+01 0.  0.
        -12    1    1    2    0    0  0.63081430364E+01 -0.35687701884E+02  0.26752734685E+02  0.45045682895E+02  0.00000000000E+00 0.  1.
         11    1    3    3    0    0 -0.29454618570E+01  0.50204307423E+01 -0.48379801660E+01  0.75687860807E+01  0.51100000000E-03 0. -1.
        -11    1    3    3    0    0 -0.44201273661E+01  0.26253331075E+02 -0.15799818088E+02  0.30958184222E+02  0.51100000000E-03 0.  1.
        -12    1    3    3    0    0  0.10574461866E+01  0.44139400674E+01 -0.61149364316E+01  0.76153468022E+01  0.00000000000E+00 0.  1.
</event>
<event>
 7    1  0.3708346E-009  0.4614232E+02  0.7816164E-02  0.1320468E+00
        -11   -1    0    0    0    0  0.00000000000E+00  0.00000000000E+00  0.45593999997E+02  0.45594000000E+02  0.51100000000E-03 0.  1.
         11   -1    0    0    0    0 -0.00000000000E+00 -0.00000000000E+00 -0.45593999997E+02  0.45594000000E+02  0.51100000000E-03 0. -1.
    9900012    2    1    2    0    0 -0.36036078098E+02  0.17380105453E+02 -0.20698948251E+02  0.46142318199E+02  0.10000003990E+02 0.  0.
        -12    1    1    2    0    0  0.36036078098E+02 -0.17380105453E+02  0.20698948251E+02  0.45045681801E+02  0.00000000000E+00 0.  1.
         11    1    3    3    0    0 -0.86888756241E+01  0.59593217615E+01 -0.97956607405E+01  0.14386279751E+02  0.51100000000E-03 0. -1.
        -11    1    3    3    0    0 -0.15434718678E+02  0.79505307576E+01 -0.53978930968E+01  0.18181824170E+02  0.51100000000E-03 0.  1.
        -12    1    3    3    0    0 -0.11912483796E+02  0.34702529342E+01 -0.55053944139E+01  0.13574214278E+02  0.00000000000E+00 0.  1.
</event>
<event>
 7    1  0.3708346E-009  0.4614232E+02  0.7816164E-02  0.1320468E+00
        -11   -1    0    0    0    0  0.00000000000E+00  0.00000000000E+00  0.45593999997E+02  0.45594000000E+02  0.51100000000E-03 0. -1.
         11   -1    0    0    0    0 -0.00000000000E+00 -0.00000000000E+00 -0.45593999997E+02  0.45594000000E+02  0.51100000000E-03 0.  1.
    9900012    2    1    2    0    0 -0.44187238159E+02 -0.87389683291E+01 -0.48169834062E+00  0.46142316334E+02  0.99999869895E+01 0.  0.
        -12    1    1    2    0    0  0.44187238159E+02  0.87389683291E+01  0.48169834062E+00  0.45045683666E+02  0.00000000000E+00 0.  1.
         11    1    3    3    0    0 -0.35141150493E+01 -0.20756555160E+01  0.19677707353E+01  0.45309460743E+01  0.51100000000E-03 0.  1.
        -11    1    3    3    0    0 -0.21277501750E+02 -0.57394425438E+01  0.14898212589E-01  0.22038001353E+02  0.51100000000E-03 0. -1.
        -12    1    3    3    0    0 -0.19395621360E+02 -0.92387026926E+00 -0.24643672885E+01  0.19573368907E+02  0.00000000000E+00 0.  1.
</event>
<event>
 7    1  0.3708346E-009  0.4614232E+02  0.7816164E-02  0.1320468E+00
        -11   -1    0    0    0    0  0.00000000000E+00  0.00000000000E+00  0.45593999997E+02  0.45594000000E+02  0.51100000000E-03 0.  1.
         11   -1    0    0    0    0 -0.00000000000E+00 -0.00000000000E+00 -0.45593999997E+02  0.45594000000E+02  0.51100000000E-03 0. -1.
    9900012    2    1    2    0    0 -0.12210487002E+02  0.40493221225E+02 -0.15502145326E+02  0.46142317991E+02  0.10000002095E+02 0.  0.
        -12    1    1    2    0    0  0.12210487002E+02 -0.40493221225E+02  0.15502145326E+02  0.45045682009E+02  0.00000000000E+00 0.  1.
         11    1    3    3    0    0 -0.52259855617E+01  0.27716808902E+02 -0.12921799877E+02  0.31024270066E+02  0.51100000000E-03 0. -1.
        -11    1    3    3    0    0 -0.61699051426E-01  0.16389992215E+01 -0.97101460882E+00  0.19060416713E+01  0.51100000000E-03 0.  1.
         12    1    3    3    0    0 -0.69228023887E+01  0.11137413101E+02 -0.16093308405E+01  0.13212006254E+02  0.00000000000E+00 0. -1.
</event>
<event>
 7    1  0.3708346E-009  0.4614232E+02  0.7816164E-02  0.1320468E+00
        -11   -1    0    0    0    0  0.00000000000E+00  0.00000000000E+00  0.45593999997E+02  0.45594000000E+02  0.51100000000E-03 0. -1.
         11   -1    0    0    0    0 -0.00000000000E+00 -0.00000000000E+00 -0.45593999997E+02  0.45594000000E+02  0.51100000000E-03 0.  1.
    9900012    2    1    2    0    0 -0.22177302636E+01  0.43070543932E+02  0.13004747046E+02  0.46142317323E+02  0.99999960054E+01 0.  0.
        -12    1    1    2    0    0  0.22177302636E+01 -0.43070543932E+02 -0.13004747046E+02  0.45045682677E+02  0.00000000000E+00 0.  1.
         11    1    3    3    0    0 -0.41589730387E+01  0.25910091113E+02  0.86113722931E+01  0.27618573665E+02  0.51100000000E-03 0. -1.
        -11    1    3    3    0    0  0.29372889935E+01  0.82575542519E+01  0.37785433973E+01  0.95442264915E+01  0.51100000000E-03 0.  1.
        -12    1    3    3    0    0 -0.99604621829E+00  0.89028985665E+01  0.61483135560E+00  0.89795171668E+01  0.00000000000E+00 0.  1.
</event>
<event>
 7    1  0.3708346E-009  0.4614232E+02  0.7816164E-02  0.1320468E+00
        -11   -1    0    0    0    0  0.00000000000E+00  0.00000000000E+00  0.45593999997E+02  0.45594000000E+02  0.51100000000E-03 0.  1.
         11   -1    0    0    0    0 -0.00000000000E+00 -0.00000000000E+00 -0.45593999997E+02  0.45594000000E+02  0.51100000000E-03 0. -1.
    9900012    2    1    2    0    0 -0.19373187929E+02  0.27207882334E+02 -0.30224562547E+02  0.46142318156E+02  0.10000003604E+02 0.  0.
        -12    1    1    2    0    0  0.19373187929E+02 -0.27207882334E+02  0.30224562547E+02  0.45045681844E+02  0.00000000000E+00 0.  1.
         11    1    3    3    0    0 -0.85156244941E+01  0.12170607251E+02 -0.81553497498E+01  0.16945479373E+02  0.51100000000E-03 0. -1.
        -11    1    3    3    0    0 -0.14498775139E+00 -0.26151231728E+00 -0.18376061970E-01  0.29957984064E+00  0.51100000000E-03 0.  1.
         12    1    3    3    0    0 -0.10712575684E+02  0.15298787400E+02 -0.22050836735E+02  0.28897258943E+02  0.00000000000E+00 0. -1.
</event>
<event>
 7    1  0.3708346E-009  0.4614232E+02  0.7816164E-02  0.1320468E+00
        -11   -1    0    0    0    0  0.00000000000E+00  0.00000000000E+00  0.45593999997E+02  0.45594000000E+02  0.51100000000E-03 0.  1.
         11   -1    0    0    0    0 -0.00000000000E+00 -0.00000000000E+00 -0.45593999997E+02  0.45594000000E+02  0.51100000000E-03 0. -1.
    9900012    2    1    2    0    0 -0.19174591890E+02 -0.39460930509E+02 -0.10211928937E+02  0.46142317594E+02  0.99999984805E+01 0.  0.
        -12    1    1    2    0    0  0.19174591890E+02  0.39460930509E+02  0.10211928937E+02  0.45045682406E+02  0.00000000000E+00 0.  1.
         11    1    3    3    0    0 -0.10596723691E+01 -0.15085457271E+01 -0.24296771416E+01  0.30499093453E+01  0.51100000000E-03 0. -1.
        -11    1    3    3    0    0 -0.11001229649E+02 -0.16960494847E+02 -0.34388067742E+01  0.20506360758E+02  0.51100000000E-03 0.  1.
         12    1    3    3    0    0 -0.71136898713E+01 -0.20991889935E+02 -0.43434450215E+01  0.22586047491E+02  0.00000000000E+00 0. -1.
</event>
<event>
 7    1  0.3708346E-009  0.4614232E+02  0.7816164E-02  0.1320468E+00
        -11   -1    0    0    0    0  0.00000000000E+00  0.00000000000E+00  0.45593999997E+02  0.45594000000E+02  0.51100000000E-03 0.  1.
         11   -1    0    0    0    0 -0.00000000000E+00 -0.00000000000E+00 -0.45593999997E+02  0.45594000000E+02  0.51100000000E-03 0. -1.
    9900012    2    1    2    0    0 -0.41272922882E+02  0.11121460175E+02 -0.14211701588E+02  0.46142317613E+02  0.99999986514E+01 0.  0.
        -12    1    1    2    0    0  0.41272922882E+02 -0.11121460175E+02  0.14211701588E+02  0.45045682387E+02  0.00000000000E+00 0.  1.
         11    1    3    3    0    0 -0.27516775354E+02  0.93970519486E+01 -0.98242967717E+01  0.30691925950E+02  0.51100000000E-03 0. -1.
        -11    1    3    3    0    0 -0.71983826699E+01  0.32803164247E+01 -0.12225364792E+01  0.80044852809E+01  0.51100000000E-03 0.  1.
        -12    1    3    3    0    0 -0.65577648587E+01 -0.15559081987E+01 -0.31648683373E+01  0.74459063826E+01  0.00000000000E+00 0.  1.
</event>
<event>
 7    1  0.3708346E-009  0.4614232E+02  0.7816164E-02  0.1320468E+00
        -11   -1    0    0    0    0  0.00000000000E+00  0.00000000000E+00  0.45593999997E+02  0.45594000000E+02  0.51100000000E-03 0.  1.
         11   -1    0    0    0    0 -0.00000000000E+00 -0.00000000000E+00 -0.45593999997E+02  0.45594000000E+02  0.51100000000E-03 0. -1.
    9900012    2    1    2    0    0 -0.29499062526E+02  0.21349791343E+02 -0.26516130801E+02  0.46142317932E+02  0.10000001562E+02 0.  0.
        -12    1    1    2    0    0  0.29499062526E+02 -0.21349791343E+02  0.26516130801E+02  0.45045682068E+02  0.00000000000E+00 0.  1.
         11    1    3    3    0    0 -0.13435097265E+02  0.93807654182E+01 -0.12632817346E+02  0.20690303833E+02  0.51100000000E-03 0. -1.
        -11    1    3    3    0    0 -0.53338356197E+01  0.85308800705E+01 -0.67794703644E+01  0.12132062309E+02  0.51100000000E-03 0.  1.
         12    1    3    3    0    0 -0.10730129641E+02  0.34381458539E+01 -0.71038430908E+01  0.13319951790E+02  0.00000000000E+00 0. -1.
</event>
<event>
 7    1  0.3708346E-009  0.4614233E+02  0.7816164E-02  0.1320468E+00
        -11   -1    0    0    0    0  0.00000000000E+00  0.00000000000E+00  0.45593999997E+02  0.45594000000E+02  0.51100000000E-03 0.  1.
         11   -1    0    0    0    0 -0.00000000000E+00 -0.00000000000E+00 -0.45593999997E+02  0.45594000000E+02  0.51100000000E-03 0. -1.
    9900012    2    1    2    0    0  0.49913337115E+01  0.29603748564E+02 -0.33582991684E+02  0.46142326827E+02  0.10000082666E+02 0.  0.
        -12    1    1    2    0    0 -0.49913337115E+01 -0.29603748564E+02  0.33582991684E+02  0.45045673173E+02  0.00000000000E+00 0.  1.
         11    1    3    3    0    0  0.28813510664E+01  0.51488812721E+01 -0.89216200876E+01  0.10696189395E+02  0.51100000000E-03 0.  1.
        -11    1    3    3    0    0 -0.16368606059E+01  0.20494314303E+01 -0.37064168568E+01  0.45405955566E+01  0.51100000000E-03 0. -1.
         12    1    3    3    0    0  0.37468432511E+01  0.22405435861E+02 -0.20954954739E+02  0.30905541875E+02  0.00000000000E+00 0. -1.
</event>
<event>
 7    1  0.3708346E-009  0.4614232E+02  0.7816164E-02  0.1320468E+00
        -11   -1    0    0    0    0  0.00000000000E+00  0.00000000000E+00  0.45593999997E+02  0.45594000000E+02  0.51100000000E-03 0.  1.
         11   -1    0    0    0    0 -0.00000000000E+00 -0.00000000000E+00 -0.45593999997E+02  0.45594000000E+02  0.51100000000E-03 0. -1.
    9900012    2    1    2    0    0 -0.23122962327E+00 -0.43007865236E+02 -0.13393415165E+02  0.46142317531E+02  0.99999979026E+01 0.  0.
        -12    1    1    2    0    0  0.23122962327E+00  0.43007865236E+02  0.13393415165E+02  0.45045682469E+02  0.00000000000E+00 0.  1.
         11    1    3    3    0    0 -0.19885720867E+01 -0.31251560107E+02 -0.59834800251E+01  0.31881287012E+02  0.51100000000E-03 0. -1.
        -11    1    3    3    0    0  0.11105540448E+01 -0.21769588773E+01 -0.68201938806E+00  0.25372486963E+01  0.51100000000E-03 0.  1.
         12    1    3    3    0    0  0.64678841864E+00 -0.95793462520E+01 -0.67279157514E+01  0.11723781823E+02  0.00000000000E+00 0. -1.
</event>
<event>
 7    1  0.3708346E-009  0.4614232E+02  0.7816164E-02  0.1320468E+00
        -11   -1    0    0    0    0  0.00000000000E+00  0.00000000000E+00  0.45593999997E+02  0.45594000000E+02  0.51100000000E-03 0.  1.
         11   -1    0    0    0    0 -0.00000000000E+00 -0.00000000000E+00 -0.45593999997E+02  0.45594000000E+02  0.51100000000E-03 0. -1.
    9900012    2    1    2    0    0 -0.31441338120E+02 -0.30687427373E+02 -0.99417119690E+01  0.46142316761E+02  0.99999908836E+01 0.  0.
        -12    1    1    2    0    0  0.31441338120E+02  0.30687427373E+02  0.99417119690E+01  0.45045683239E+02  0.00000000000E+00 0.  1.
         11    1    3    3    0    0 -0.16571874879E+02 -0.15496217388E+02 -0.58116534051E+01  0.23420826328E+02  0.51100000000E-03 0. -1.
        -11    1    3    3    0    0 -0.15442656363E+02 -0.14254436267E+02 -0.31519897950E+01  0.21250873600E+02  0.51100000000E-03 0.  1.
        -12    1    3    3    0    0  0.57319312154E+00 -0.93677371789E+00 -0.97806876891E+00  0.14706168331E+01  0.00000000000E+00 0.  1.
</event>
<event>
 7    1  0.3708346E-009  0.4614232E+02  0.7816164E-02  0.1320468E+00
        -11   -1    0    0    0    0  0.00000000000E+00  0.00000000000E+00  0.45593999997E+02  0.45594000000E+02  0.51100000000E-03 0.  1.
         11   -1    0    0    0    0 -0.00000000000E+00 -0.00000000000E+00 -0.45593999997E+02  0.45594000000E+02  0.51100000000E-03 0. -1.
    9900012    2    1    2    0    0 -0.13533762041E+02  0.21483841218E+02 -0.37207463724E+02  0.46142317574E+02  0.99999982966E+01 0.  0.
        -12    1    1    2    0    0  0.13533762041E+02 -0.21483841218E+02  0.37207463724E+02  0.45045682426E+02  0.00000000000E+00 0.  1.
         11    1    3    3    0    0 -0.17408807610E+01  0.41904842674E+01 -0.72639594350E+01  0.85648077126E+01  0.51100000000E-03 0. -1.
        -11    1    3    3    0    0 -0.37832080809E+01  0.12004815393E+02 -0.20856216845E+02  0.24360008976E+02  0.51100000000E-03 0.  1.
        -12    1    3    3    0    0 -0.80096731992E+01  0.52885415574E+01 -0.90872874440E+01  0.13217500885E+02  0.00000000000E+00 0.  1.
</event>
<event>
 7    1  0.3708346E-009  0.4614232E+02  0.7816164E-02  0.1320468E+00
        -11   -1    0    0    0    0  0.00000000000E+00  0.00000000000E+00  0.45593999997E+02  0.45594000000E+02  0.51100000000E-03 0. -1.
         11   -1    0    0    0    0 -0.00000000000E+00 -0.00000000000E+00 -0.45593999997E+02  0.45594000000E+02  0.51100000000E-03 0.  1.
    9900012    2    1    2    0    0  0.49863062023E+01  0.44421101118E+02  0.55692095696E+01  0.46142316863E+02  0.99999918071E+01 0.  0.
        -12    1    1    2    0    0 -0.49863062023E+01 -0.44421101118E+02 -0.55692095696E+01  0.45045683137E+02  0.00000000000E+00 0.  1.
         11    1    3    3    0    0 -0.28272564729E+01  0.12353236457E+02  0.17306174106E+01  0.12790264540E+02  0.51100000000E-03 0.  1.
        -11    1    3    3    0    0  0.68903876110E+01  0.28574749209E+02  0.43111110688E+01  0.29708238129E+02  0.51100000000E-03 0. -1.
        -12    1    3    3    0    0  0.92317506420E+00  0.34931154519E+01 -0.47251890970E+00  0.36438141939E+01  0.00000000000E+00 0.  1.
</event>
<event>
 7    1  0.3708346E-009  0.4614232E+02  0.7816164E-02  0.1320468E+00
        -11   -1    0    0    0    0  0.00000000000E+00  0.00000000000E+00  0.45593999997E+02  0.45594000000E+02  0.51100000000E-03 0.  1.
         11   -1    0    0    0    0 -0.00000000000E+00 -0.00000000000E+00 -0.45593999997E+02  0.45594000000E+02  0.51100000000E-03 0. -1.
    9900012    2    1    2    0    0 -0.72692689657E+01  0.43695483883E+02 -0.81838833810E+01  0.46142317296E+02  0.99999957565E+01 0.  0.
        -12    1    1    2    0    0  0.72692689657E+01 -0.43695483883E+02  0.81838833810E+01  0.45045682704E+02  0.00000000000E+00 0.  1.
         11    1    3    3    0    0 -0.18797500799E+01  0.15530086797E+02 -0.54190400505E+01  0.16555453833E+02  0.51100000000E-03 0. -1.
        -11    1    3    3    0    0 -0.39190978414E+01  0.16762512074E+02  0.16003294393E+01  0.17288788087E+02  0.51100000000E-03 0.  1.
        -12    1    3    3    0    0 -0.14704210444E+01  0.11402885012E+02 -0.43651727698E+01  0.12298075376E+02  0.00000000000E+00 0.  1.
</event>
<event>
 7    1  0.3708346E-009  0.4614232E+02  0.7816164E-02  0.1320468E+00
        -11   -1    0    0    0    0  0.00000000000E+00  0.00000000000E+00  0.45593999997E+02  0.45594000000E+02  0.51100000000E-03 0. -1.
         11   -1    0    0    0    0 -0.00000000000E+00 -0.00000000000E+00 -0.45593999997E+02  0.45594000000E+02  0.51100000000E-03 0.  1.
    9900012    2    1    2    0    0 -0.51754433790E+01  0.15637347674E+02  0.41926145650E+02  0.46142317126E+02  0.99999942126E+01 0.  0.
        -12    1    1    2    0    0  0.51754433790E+01 -0.15637347674E+02 -0.41926145650E+02  0.45045682874E+02  0.00000000000E+00 0.  1.
         11    1    3    3    0    0 -0.43597445714E+01  0.10556238359E+02  0.24172474403E+02  0.26734809893E+02  0.51100000000E-03 0. -1.
        -11    1    3    3    0    0 -0.31967794186E+00  0.81341789846E+00 -0.24135217307E+00  0.90669388253E+00  0.51100000000E-03 0.  1.
        -12    1    3    3    0    0 -0.49602086575E+00  0.42676914174E+01  0.17995023420E+02  0.18500813351E+02  0.00000000000E+00 0.  1.
</event>
<event>
 7    1  0.3708346E-009  0.4614232E+02  0.7816164E-02  0.1320468E+00
        -11   -1    0    0    0    0  0.00000000000E+00  0.00000000000E+00  0.45593999997E+02  0.45594000000E+02  0.51100000000E-03 0. -1.
         11   -1    0    0    0    0 -0.00000000000E+00 -0.00000000000E+00 -0.45593999997E+02  0.45594000000E+02  0.51100000000E-03 0.  1.
    9900012    2    1    2    0    0  0.13273627546E+02 -0.62783084126E+01  0.42585292996E+02  0.46142317363E+02  0.99999963652E+01 0.  0.
        -12    1    1    2    0    0 -0.13273627546E+02  0.62783084126E+01 -0.42585292996E+02  0.45045682637E+02  0.00000000000E+00 0.  1.
         11    1    3    3    0    0  0.12746528703E+01  0.15260294433E+01  0.39345521457E+01  0.44084245088E+01  0.51100000000E-03 0. -1.
        -11    1    3    3    0    0  0.82859825654E+01 -0.70653885156E+01  0.20712706313E+02  0.23400714199E+02  0.51100000000E-03 0.  1.
         12    1    3    3    0    0  0.37129921107E+01 -0.73894934027E+00  0.17938034537E+02  0.18333178655E+02  0.00000000000E+00 0. -1.
</event>
<event>
 7    1  0.3708346E-009  0.4614232E+02  0.7816164E-02  0.1320468E+00
        -11   -1    0    0    0    0  0.00000000000E+00  0.00000000000E+00  0.45593999997E+02  0.45594000000E+02  0.51100000000E-03 0. -1.
         11   -1    0    0    0    0 -0.00000000000E+00 -0.00000000000E+00 -0.45593999997E+02  0.45594000000E+02  0.51100000000E-03 0.  1.
    9900012    2    1    2    0    0  0.23200004961E+02 -0.22987230528E+02  0.31023547155E+02  0.46142317903E+02  0.10000001291E+02 0.  0.
        -12    1    1    2    0    0 -0.23200004961E+02  0.22987230528E+02 -0.31023547155E+02  0.45045682097E+02  0.00000000000E+00 0.  1.
         11    1    3    3    0    0  0.15786561514E+02 -0.13471387741E+02  0.22425749090E+02  0.30555000157E+02  0.51100000000E-03 0. -1.
        -11    1    3    3    0    0  0.29317958838E+00 -0.38878927861E+01  0.30494576777E+01  0.49498340353E+01  0.51100000000E-03 0.  1.
        -12    1    3    3    0    0  0.71202638594E+01 -0.56279500003E+01  0.55483403869E+01  0.10637483710E+02  0.00000000000E+00 0.  1.
</event>
<event>
 7    1  0.3708346E-009  0.4614232E+02  0.7816164E-02  0.1320468E+00
        -11   -1    0    0    0    0  0.00000000000E+00  0.00000000000E+00  0.45593999997E+02  0.45594000000E+02  0.51100000000E-03 0. -1.
         11   -1    0    0    0    0 -0.00000000000E+00 -0.00000000000E+00 -0.45593999997E+02  0.45594000000E+02  0.51100000000E-03 0.  1.
    9900012    2    1    2    0    0  0.19960113919E+02  0.93789839960E+01  0.39277753838E+02  0.46142318354E+02  0.10000005402E+02 0.  0.
        -12    1    1    2    0    0 -0.19960113919E+02 -0.93789839960E+01 -0.39277753838E+02  0.45045681646E+02  0.00000000000E+00 0.  1.
         11    1    3    3    0    0  0.13535601296E+02  0.64049184417E+01  0.23640825768E+02  0.27984355021E+02  0.51100000000E-03 0. -1.
        -11    1    3    3    0    0  0.50039408942E+01  0.15337189602E+01  0.15216906117E+02  0.16091797611E+02  0.51100000000E-03 0.  1.
        -12    1    3    3    0    0  0.14205717286E+01  0.14403465941E+01  0.42002195287E+00  0.20661657214E+01  0.00000000000E+00 0.  1.
</event>
<event>
 7    1  0.3708346E-009  0.4614232E+02  0.7816164E-02  0.1320468E+00
        -11   -1    0    0    0    0  0.00000000000E+00  0.00000000000E+00  0.45593999997E+02  0.45594000000E+02  0.51100000000E-03 0. -1.
         11   -1    0    0    0    0 -0.00000000000E+00 -0.00000000000E+00 -0.45593999997E+02  0.45594000000E+02  0.51100000000E-03 0.  1.
    9900012    2    1    2    0    0  0.26234367176E+01 -0.30380062767E+02  0.33155435862E+02  0.46142316953E+02  0.99999926347E+01 0.  0.
        -12    1    1    2    0    0 -0.26234367176E+01  0.30380062767E+02 -0.33155435862E+02  0.45045683047E+02  0.00000000000E+00 0.  1.
         11    1    3    3    0    0  0.20524356225E+01 -0.14594271082E+02  0.11916602009E+02  0.18952853192E+02  0.51100000000E-03 0. -1.
        -11    1    3    3    0    0  0.18083789280E+01 -0.66512582879E+01  0.49947193829E+01  0.85121497364E+01  0.51100000000E-03 0.  1.
        -12    1    3    3    0    0 -0.12373778329E+01 -0.91345333964E+01  0.16244114470E+02  0.18677314025E+02  0.00000000000E+00 0.  1.
</event>
<event>
 7    1  0.3708346E-009  0.4614232E+02  0.7816164E-02  0.1320468E+00
        -11   -1    0    0    0    0  0.00000000000E+00  0.00000000000E+00  0.45593999997E+02  0.45594000000E+02  0.51100000000E-03 0.  1.
         11   -1    0    0    0    0 -0.00000000000E+00 -0.00000000000E+00 -0.45593999997E+02  0.45594000000E+02  0.51100000000E-03 0. -1.
    9900012    2    1    2    0    0 -0.65595465756E+01  0.40577556940E+02 -0.18426820813E+02  0.46142317590E+02  0.99999984409E+01 0.  0.
        -12    1    1    2    0    0  0.65595465756E+01 -0.40577556940E+02  0.18426820813E+02  0.45045682410E+02  0.00000000000E+00 0.  1.
         11    1    3    3    0    0 -0.39663783579E+01  0.14441415707E+02 -0.57142366871E+01  0.16029321448E+02  0.51100000000E-03 0. -1.
        -11    1    3    3    0    0 -0.27410892245E+01  0.12682857206E+02 -0.24818482242E+01  0.13210904887E+02  0.51100000000E-03 0.  1.
         12    1    3    3    0    0  0.14792100682E+00  0.13453284027E+02 -0.10230735902E+02  0.16902091256E+02  0.00000000000E+00 0. -1.
</event>
<event>
 7    1  0.3708346E-009  0.4614232E+02  0.7816164E-02  0.1320468E+00
        -11   -1    0    0    0    0  0.00000000000E+00  0.00000000000E+00  0.45593999997E+02  0.45594000000E+02  0.51100000000E-03 0.  1.
         11   -1    0    0    0    0 -0.00000000000E+00 -0.00000000000E+00 -0.45593999997E+02  0.45594000000E+02  0.51100000000E-03 0. -1.
    9900012    2    1    2    0    0  0.30862673646E+02 -0.26773392033E+02 -0.18968244370E+02  0.46142318297E+02  0.10000004891E+02 0.  0.
        -12    1    1    2    0    0 -0.30862673646E+02  0.26773392033E+02  0.18968244370E+02  0.45045681703E+02  0.00000000000E+00 0.  1.
         11    1    3    3    0    0  0.11397627381E+02 -0.58414840572E+01 -0.42687055679E+01  0.13500025682E+02  0.51100000000E-03 0. -1.
        -11    1    3    3    0    0  0.10024537180E+01 -0.33198768368E+01 -0.29430664948E+01  0.45484213000E+01  0.51100000000E-03 0.  1.
        -12    1    3    3    0    0  0.18462592547E+02 -0.17612031139E+02 -0.11756472308E+02  0.28093871316E+02  0.00000000000E+00 0.  1.
</event>
<event>
 7    1  0.3708346E-009  0.4614231E+02  0.7816164E-02  0.1320468E+00
        -11   -1    0    0    0    0  0.00000000000E+00  0.00000000000E+00  0.45593999997E+02  0.45594000000E+02  0.51100000000E-03 0.  1.
         11   -1    0    0    0    0 -0.00000000000E+00 -0.00000000000E+00 -0.45593999997E+02  0.45594000000E+02  0.51100000000E-03 0. -1.
    9900012    2    1    2    0    0  0.21784392458E+02 -0.23769073348E+02 -0.31457673026E+02  0.46142314360E+02  0.99999689829E+01 0.  0.
        -12    1    1    2    0    0 -0.21784392458E+02  0.23769073348E+02  0.31457673026E+02  0.45045685640E+02  0.00000000000E+00 0.  1.
         11    1    3    3    0    0  0.18039325113E+02 -0.14922095678E+02 -0.24549592813E+02  0.33922981848E+02  0.51100000000E-03 0.  1.
        -11    1    3    3    0    0  0.37719473956E+01 -0.74575869489E+01 -0.68873409627E+01  0.10829527047E+02  0.51100000000E-03 0. -1.
        -12    1    3    3    0    0 -0.26880050912E-01 -0.13893907213E+01 -0.20739251125E-01  0.13898054649E+01  0.00000000000E+00 0.  1.
</event>
<event>
 7    1  0.3708346E-009  0.4614232E+02  0.7816164E-02  0.1320468E+00
        -11   -1    0    0    0    0  0.00000000000E+00  0.00000000000E+00  0.45593999997E+02  0.45594000000E+02  0.51100000000E-03 0.  1.
         11   -1    0    0    0    0 -0.00000000000E+00 -0.00000000000E+00 -0.45593999997E+02  0.45594000000E+02  0.51100000000E-03 0. -1.
    9900012    2    1    2    0    0  0.14085020288E+01  0.36677501985E+02 -0.26113032459E+02  0.46142317698E+02  0.99999994282E+01 0.  0.
        -12    1    1    2    0    0 -0.14085020288E+01 -0.36677501985E+02  0.26113032459E+02  0.45045682302E+02  0.00000000000E+00 0.  1.
         11    1    3    3    0    0  0.33526519144E+01  0.14680582151E+02 -0.84815776840E+01  0.17282850674E+02  0.51100000000E-03 0. -1.
        -11    1    3    3    0    0 -0.13550094157E+01  0.14363066768E+02 -0.78067181444E+01  0.16403615027E+02  0.51100000000E-03 0.  1.
         12    1    3    3    0    0 -0.58914046991E+00  0.76338530658E+01 -0.98247366307E+01  0.12455851998E+02  0.00000000000E+00 0. -1.
</event>
<event>
 7    1  0.3708346E-009  0.4614232E+02  0.7816164E-02  0.1320468E+00
        -11   -1    0    0    0    0  0.00000000000E+00  0.00000000000E+00  0.45593999997E+02  0.45594000000E+02  0.51100000000E-03 0.  1.
         11   -1    0    0    0    0 -0.00000000000E+00 -0.00000000000E+00 -0.45593999997E+02  0.45594000000E+02  0.51100000000E-03 0. -1.
    9900012    2    1    2    0    0  0.37640536620E+02  0.19987550335E+02 -0.14587719373E+02  0.46142315169E+02  0.99999763600E+01 0.  0.
        -12    1    1    2    0    0 -0.37640536620E+02 -0.19987550335E+02  0.14587719373E+02  0.45045684831E+02  0.00000000000E+00 0.  1.
         11    1    3    3    0    0  0.51736309988E+01  0.24279167861E+01 -0.48409358782E+01  0.74897194921E+01  0.51100000000E-03 0. -1.
        -11    1    3    3    0    0  0.14037152445E-01 -0.33257281079E+00 -0.18394750706E+00  0.38031390009E+00  0.51100000000E-03 0.  1.
         12    1    3    3    0    0  0.32452868469E+02  0.17892206359E+02 -0.95628359882E+01  0.38272281777E+02  0.00000000000E+00 0. -1.
</event>
<event>
 7    1  0.3708346E-009  0.4614232E+02  0.7816164E-02  0.1320468E+00
        -11   -1    0    0    0    0  0.00000000000E+00  0.00000000000E+00  0.45593999997E+02  0.45594000000E+02  0.51100000000E-03 0.  1.
         11   -1    0    0    0    0 -0.00000000000E+00 -0.00000000000E+00 -0.45593999997E+02  0.45594000000E+02  0.51100000000E-03 0. -1.
    9900012    2    1    2    0    0  0.36923402152E+02 -0.60955073920E+00 -0.25795435206E+02  0.46142315900E+02  0.99999830272E+01 0.  0.
        -12    1    1    2    0    0 -0.36923402152E+02  0.60955073920E+00  0.25795435206E+02  0.45045684100E+02  0.00000000000E+00 0.  1.
         11    1    3    3    0    0  0.10672013771E+02 -0.69537422869E+00 -0.91822385673E+01  0.14095706034E+02  0.51100000000E-03 0. -1.
        -11    1    3    3    0    0  0.23187715297E+02 -0.16773130028E+01 -0.11790480400E+02  0.26067200616E+02  0.51100000000E-03 0.  1.
        -12    1    3    3    0    0  0.30636730841E+01  0.17631364923E+01 -0.48227162386E+01  0.59794092497E+01  0.00000000000E+00 0.  1.
</event>
<event>
 7    1  0.3708346E-009  0.4614232E+02  0.7816164E-02  0.1320468E+00
        -11   -1    0    0    0    0  0.00000000000E+00  0.00000000000E+00  0.45593999997E+02  0.45594000000E+02  0.51100000000E-03 0.  1.
         11   -1    0    0    0    0 -0.00000000000E+00 -0.00000000000E+00 -0.45593999997E+02  0.45594000000E+02  0.51100000000E-03 0. -1.
    9900012    2    1    2    0    0 -0.24479408373E+02 -0.27961113863E+02 -0.25456792408E+02  0.46142316495E+02  0.99999884516E+01 0.  0.
        -12    1    1    2    0    0  0.24479408373E+02  0.27961113863E+02  0.25456792408E+02  0.45045683505E+02  0.00000000000E+00 0.  1.
         11    1    3    3    0    0 -0.13005423444E+02 -0.12887755094E+02 -0.10593708158E+02  0.21153295798E+02  0.51100000000E-03 0. -1.
        -11    1    3    3    0    0 -0.86753191534E+01 -0.14949684494E+02 -0.12922581557E+02  0.21581180302E+02  0.51100000000E-03 0.  1.
        -12    1    3    3    0    0 -0.27986657764E+01 -0.12367427497E+00 -0.19405026925E+01  0.34078403945E+01  0.00000000000E+00 0.  1.
</event>
<event>
 7    1  0.3708346E-009  0.4614232E+02  0.7816164E-02  0.1320468E+00
        -11   -1    0    0    0    0  0.00000000000E+00  0.00000000000E+00  0.45593999997E+02  0.45594000000E+02  0.51100000000E-03 0.  1.
         11   -1    0    0    0    0 -0.00000000000E+00 -0.00000000000E+00 -0.45593999997E+02  0.45594000000E+02  0.51100000000E-03 0. -1.
    9900012    2    1    2    0    0  0.81631954132E+01  0.10929706187E+02 -0.42930377339E+02  0.46142317242E+02  0.99999952629E+01 0.  0.
        -12    1    1    2    0    0 -0.81631954132E+01 -0.10929706187E+02  0.42930377339E+02  0.45045682758E+02  0.00000000000E+00 0.  1.
         11    1    3    3    0    0 -0.91650693623E+00  0.25899285133E+01 -0.34856152369E+01  0.44381559806E+01  0.51100000000E-03 0. -1.
        -11    1    3    3    0    0  0.90037465290E+01  0.90831566171E+01 -0.37029896106E+02  0.39176324375E+02  0.51100000000E-03 0.  1.
        -12    1    3    3    0    0  0.75955820387E-01 -0.74337894323E+00 -0.24148659964E+01  0.25278368857E+01  0.00000000000E+00 0.  1.
</event>
<event>
 7    1  0.3708346E-009  0.4614232E+02  0.7816164E-02  0.1320468E+00
        -11   -1    0    0    0    0  0.00000000000E+00  0.00000000000E+00  0.45593999997E+02  0.45594000000E+02  0.51100000000E-03 0.  1.
         11   -1    0    0    0    0 -0.00000000000E+00 -0.00000000000E+00 -0.45593999997E+02  0.45594000000E+02  0.51100000000E-03 0. -1.
    9900012    2    1    2    0    0 -0.29877423359E+02  0.31637128999E+02 -0.11642383517E+02  0.46142318167E+02  0.10000003698E+02 0.  0.
        -12    1    1    2    0    0  0.29877423359E+02 -0.31637128999E+02  0.11642383517E+02  0.45045681833E+02  0.00000000000E+00 0.  1.
         11    1    3    3    0    0 -0.98554933695E+01  0.75007005016E+01 -0.50687893531E+01  0.13382222661E+02  0.51100000000E-03 0. -1.
        -11    1    3    3    0    0 -0.10688541095E+02  0.99610426388E+01 -0.59526157005E+01  0.15776593901E+02  0.51100000000E-03 0.  1.
         12    1    3    3    0    0 -0.93333888946E+01  0.14175385859E+02 -0.62097846302E+00  0.16983501605E+02  0.00000000000E+00 0. -1.
</event>
<event>
 7    1  0.3708346E-009  0.4614232E+02  0.7816164E-02  0.1320468E+00
        -11   -1    0    0    0    0  0.00000000000E+00  0.00000000000E+00  0.45593999997E+02  0.45594000000E+02  0.51100000000E-03 0.  1.
         11   -1    0    0    0    0 -0.00000000000E+00 -0.00000000000E+00 -0.45593999997E+02  0.45594000000E+02  0.51100000000E-03 0. -1.
    9900012    2    1    2    0    0 -0.26573729464E+02 -0.36294868500E+02 -0.23733657345E+01  0.46142318276E+02  0.10000004698E+02 0.  0.
        -12    1    1    2    0    0  0.26573729464E+02  0.36294868500E+02  0.23733657345E+01  0.45045681724E+02  0.00000000000E+00 0.  1.
         11    1    3    3    0    0 -0.18962154739E+02 -0.22840261758E+02 -0.14030481969E+01  0.29718839379E+02  0.51100000000E-03 0. -1.
        -11    1    3    3    0    0 -0.96559918785E+00 -0.14444117706E+01  0.17100676671E+01  0.24378348676E+01  0.51100000000E-03 0.  1.
        -12    1    3    3    0    0 -0.66459755369E+01 -0.12010194971E+02 -0.26803852047E+01  0.13985644029E+02  0.00000000000E+00 0.  1.
</event>
<event>
 7    1  0.3708346E-009  0.4614232E+02  0.7816164E-02  0.1320468E+00
        -11   -1    0    0    0    0  0.00000000000E+00  0.00000000000E+00  0.45593999997E+02  0.45594000000E+02  0.51100000000E-03 0.  1.
         11   -1    0    0    0    0 -0.00000000000E+00 -0.00000000000E+00 -0.45593999997E+02  0.45594000000E+02  0.51100000000E-03 0. -1.
    9900012    2    1    2    0    0 -0.12312891879E+02 -0.13636668043E+02 -0.41128427668E+02  0.46142316697E+02  0.99999902992E+01 0.  0.
        -12    1    1    2    0    0  0.12312891879E+02  0.13636668043E+02  0.41128427668E+02  0.45045683303E+02  0.00000000000E+00 0.  1.
         11    1    3    3    0    0 -0.47746528020E+01 -0.87107860344E+01 -0.27033383590E+02  0.28800675883E+02  0.51100000000E-03 0. -1.
        -11    1    3    3    0    0 -0.13801928717E+01  0.33559862126E-01 -0.25749407323E+00  0.14044080911E+01  0.51100000000E-03 0.  1.
         12    1    3    3    0    0 -0.61580462056E+01 -0.49594418711E+01 -0.13837550005E+02  0.15937232723E+02  0.00000000000E+00 0. -1.
</event>
<event>
 7    1  0.3708346E-009  0.4614232E+02  0.7816164E-02  0.1320468E+00
        -11   -1    0    0    0    0  0.00000000000E+00  0.00000000000E+00  0.45593999997E+02  0.45594000000E+02  0.51100000000E-03 0.  1.
         11   -1    0    0    0    0 -0.00000000000E+00 -0.00000000000E+00 -0.45593999997E+02  0.45594000000E+02  0.51100000000E-03 0. -1.
    9900012    2    1    2    0    0  0.23675059623E+02 -0.36499249946E+02 -0.11679458755E+02  0.46142318169E+02  0.10000003721E+02 0.  0.
        -12    1    1    2    0    0 -0.23675059623E+02  0.36499249946E+02  0.11679458755E+02  0.45045681831E+02  0.00000000000E+00 0.  1.
         11    1    3    3    0    0  0.10882570982E+02 -0.13989341462E+02 -0.70606461351E+01  0.19078384361E+02  0.51100000000E-03 0. -1.
        -11    1    3    3    0    0  0.76512532563E+01 -0.18233913838E+02 -0.48956447182E+01  0.20371171486E+02  0.51100000000E-03 0.  1.
         12    1    3    3    0    0  0.51412353839E+01 -0.42759946467E+01  0.27683209838E+00  0.66927623223E+01  0.00000000000E+00 0. -1.
</event>
<event>
 7    1  0.3708346E-009  0.4614233E+02  0.7816164E-02  0.1320468E+00
        -11   -1    0    0    0    0  0.00000000000E+00  0.00000000000E+00  0.45593999997E+02  0.45594000000E+02  0.51100000000E-03 0.  1.
         11   -1    0    0    0    0 -0.00000000000E+00 -0.00000000000E+00 -0.45593999997E+02  0.45594000000E+02  0.51100000000E-03 0. -1.
    9900012    2    1    2    0    0 -0.11625591560E+02  0.43516636199E+02  0.51012014057E+00  0.46142331754E+02  0.10000127597E+02 0.  0.
        -12    1    1    2    0    0  0.11625591560E+02 -0.43516636199E+02 -0.51012014057E+00  0.45045668246E+02  0.00000000000E+00 0.  1.
         11    1    3    3    0    0 -0.51572960017E+01  0.16727180267E+02 -0.27457631614E+01  0.17718224441E+02  0.51100000000E-03 0. -1.
        -11    1    3    3    0    0 -0.33525908818E+01  0.23375532025E+02  0.27738520215E+01  0.23777081788E+02  0.51100000000E-03 0.  1.
        -12    1    3    3    0    0 -0.31157046766E+01  0.34139239067E+01  0.48203128050E+00  0.46470255248E+01  0.00000000000E+00 0.  1.
</event>
<event>
 7    1  0.3708346E-009  0.4614232E+02  0.7816164E-02  0.1320468E+00
        -11   -1    0    0    0    0  0.00000000000E+00  0.00000000000E+00  0.45593999997E+02  0.45594000000E+02  0.51100000000E-03 0. -1.
         11   -1    0    0    0    0 -0.00000000000E+00 -0.00000000000E+00 -0.45593999997E+02  0.45594000000E+02  0.51100000000E-03 0.  1.
    9900012    2    1    2    0    0 -0.41414306660E+02 -0.11765432833E+02 -0.13249274370E+02  0.46142317886E+02  0.10000001134E+02 0.  0.
        -12    1    1    2    0    0  0.41414306660E+02  0.11765432833E+02  0.13249274370E+02  0.45045682114E+02  0.00000000000E+00 0.  1.
         11    1    3    3    0    0 -0.13057612113E+02 -0.52069831481E+01 -0.24141188543E+00  0.14059594146E+02  0.51100000000E-03 0. -1.
        -11    1    3    3    0    0 -0.21819395490E+01  0.40299008848E+00 -0.13371676531E+01  0.25906135954E+01  0.51100000000E-03 0.  1.
         12    1    3    3    0    0 -0.26174754998E+02 -0.69614397734E+01 -0.11670694831E+02  0.29492110144E+02  0.00000000000E+00 0. -1.
</event>
<event>
 7    1  0.3708346E-009  0.4614232E+02  0.7816164E-02  0.1320468E+00
        -11   -1    0    0    0    0  0.00000000000E+00  0.00000000000E+00  0.45593999997E+02  0.45594000000E+02  0.51100000000E-03 0.  1.
         11   -1    0    0    0    0 -0.00000000000E+00 -0.00000000000E+00 -0.45593999997E+02  0.45594000000E+02  0.51100000000E-03 0. -1.
    9900012    2    1    2    0    0  0.36042463000E+02 -0.17353832715E+02  0.20709872629E+02  0.46142317928E+02  0.10000001520E+02 0.  0.
        -12    1    1    2    0    0 -0.36042463000E+02  0.17353832715E+02 -0.20709872629E+02  0.45045682072E+02  0.00000000000E+00 0.  1.
         11    1    3    3    0    0  0.25486596416E+02 -0.10705259448E+02  0.14167808562E+02  0.31062774771E+02  0.51100000000E-03 0. -1.
        -11    1    3    3    0    0  0.34724075355E+01 -0.47032817905E+01  0.47133915436E+01  0.75096294048E+01  0.51100000000E-03 0.  1.
        -12    1    3    3    0    0  0.70834590483E+01 -0.19452914767E+01  0.18286725234E+01  0.75699137523E+01  0.00000000000E+00 0.  1.
</event>
<event>
 7    1  0.3708346E-009  0.4614232E+02  0.7816164E-02  0.1320468E+00
        -11   -1    0    0    0    0  0.00000000000E+00  0.00000000000E+00  0.45593999997E+02  0.45594000000E+02  0.51100000000E-03 0.  1.
         11   -1    0    0    0    0 -0.00000000000E+00 -0.00000000000E+00 -0.45593999997E+02  0.45594000000E+02  0.51100000000E-03 0. -1.
    9900012    2    1    2    0    0 -0.31338553792E+02 -0.31088449001E+02 -0.89731128321E+01  0.46142319087E+02  0.10000012089E+02 0.  0.
        -12    1    1    2    0    0  0.31338553792E+02  0.31088449001E+02  0.89731128321E+01  0.45045680913E+02  0.00000000000E+00 0.  1.
         11    1    3    3    0    0 -0.23956034793E+02 -0.24520241029E+02 -0.90082951819E+01  0.35444085621E+02  0.51100000000E-03 0. -1.
        -11    1    3    3    0    0  0.13231540961E+00  0.18057322428E+00 -0.53680762723E+00  0.58161563486E+00  0.51100000000E-03 0.  1.
         12    1    3    3    0    0 -0.75148344077E+01 -0.67487811960E+01  0.57198997693E+00  0.10116617831E+02  0.00000000000E+00 0. -1.
</event>
<event>
 7    1  0.3708346E-009  0.4614232E+02  0.7816164E-02  0.1320468E+00
        -11   -1    0    0    0    0  0.00000000000E+00  0.00000000000E+00  0.45593999997E+02  0.45594000000E+02  0.51100000000E-03 0.  1.
         11   -1    0    0    0    0 -0.00000000000E+00 -0.00000000000E+00 -0.45593999997E+02  0.45594000000E+02  0.51100000000E-03 0. -1.
    9900012    2    1    2    0    0 -0.73985539433E+01 -0.23981694855E+02 -0.37406592324E+02  0.46142318322E+02  0.10000005111E+02 0.  0.
        -12    1    1    2    0    0  0.73985539433E+01  0.23981694855E+02  0.37406592324E+02  0.45045681678E+02  0.00000000000E+00 0.  1.
         11    1    3    3    0    0 -0.15688821600E+01 -0.40813449949E+01 -0.80865678984E+01  0.91930054300E+01  0.51100000000E-03 0. -1.
        -11    1    3    3    0    0  0.14131374050E+01 -0.16164087598E+01 -0.76904488862E+00  0.22806062584E+01  0.51100000000E-03 0.  1.
        -12    1    3    3    0    0 -0.72428091883E+01 -0.18283941100E+02 -0.28550979537E+02  0.34668706633E+02  0.00000000000E+00 0.  1.
</event>
<event>
 7    1  0.3708346E-009  0.4614232E+02  0.7816164E-02  0.1320468E+00
        -11   -1    0    0    0    0  0.00000000000E+00  0.00000000000E+00  0.45593999997E+02  0.45594000000E+02  0.51100000000E-03 0.  1.
         11   -1    0    0    0    0 -0.00000000000E+00 -0.00000000000E+00 -0.45593999997E+02  0.45594000000E+02  0.51100000000E-03 0. -1.
    9900012    2    1    2    0    0 -0.24036423968E+02 -0.34030108801E+02 -0.17126457151E+02  0.46142317446E+02  0.99999971302E+01 0.  0.
        -12    1    1    2    0    0  0.24036423968E+02  0.34030108801E+02  0.17126457151E+02  0.45045682554E+02  0.00000000000E+00 0.  1.
         11    1    3    3    0    0 -0.14056976395E+02 -0.15154869288E+02 -0.11918129190E+02  0.23860227412E+02  0.51100000000E-03 0. -1.
        -11    1    3    3    0    0 -0.77482971118E+01 -0.12739830911E+02 -0.21236093257E+01  0.15061511100E+02  0.51100000000E-03 0.  1.
        -12    1    3    3    0    0 -0.22311504610E+01 -0.61354086014E+01 -0.30847186351E+01  0.72205789341E+01  0.00000000000E+00 0.  1.
</event>
<event>
 7    1  0.3708346E-009  0.4614232E+02  0.7816164E-02  0.1320468E+00
        -11   -1    0    0    0    0  0.00000000000E+00  0.00000000000E+00  0.45593999997E+02  0.45594000000E+02  0.51100000000E-03 0.  1.
         11   -1    0    0    0    0 -0.00000000000E+00 -0.00000000000E+00 -0.45593999997E+02  0.45594000000E+02  0.51100000000E-03 0. -1.
    9900012    2    1    2    0    0 -0.37929412199E+02 -0.24101168933E+02 -0.30994687003E+01  0.46142319186E+02  0.10000012998E+02 0.  0.
        -12    1    1    2    0    0  0.37929412199E+02  0.24101168933E+02  0.30994687003E+01  0.45045680814E+02  0.00000000000E+00 0.  1.
         11    1    3    3    0    0 -0.50893018339E+01 -0.36802444333E+01 -0.70306768056E+00  0.63197703020E+01  0.51100000000E-03 0. -1.
        -11    1    3    3    0    0 -0.11352304724E+02 -0.23053719383E+01 -0.17056446455E+01  0.11708919089E+02  0.51100000000E-03 0.  1.
        -12    1    3    3    0    0 -0.21487805641E+02 -0.18115552562E+02 -0.69075637426E+00  0.28113629795E+02  0.00000000000E+00 0.  1.
</event>
<event>
 7    1  0.3708346E-009  0.4614232E+02  0.7816164E-02  0.1320468E+00
        -11   -1    0    0    0    0  0.00000000000E+00  0.00000000000E+00  0.45593999997E+02  0.45594000000E+02  0.51100000000E-03 0.  1.
         11   -1    0    0    0    0 -0.00000000000E+00 -0.00000000000E+00 -0.45593999997E+02  0.45594000000E+02  0.51100000000E-03 0. -1.
    9900012    2    1    2    0    0 -0.97703936724E+01  0.41769712738E+02 -0.13745696149E+02  0.46142315886E+02  0.99999828995E+01 0.  0.
        -12    1    1    2    0    0  0.97703936724E+01 -0.41769712738E+02  0.13745696149E+02  0.45045684114E+02  0.00000000000E+00 0.  1.
         11    1    3    3    0    0  0.35418523898E+00  0.36580115191E+01 -0.20074068877E+01  0.41876220139E+01  0.51100000000E-03 0. -1.
        -11    1    3    3    0    0 -0.41474312678E+01  0.18210883139E+02 -0.97819948151E+01  0.21083758528E+02  0.51100000000E-03 0.  1.
        -12    1    3    3    0    0 -0.59771476436E+01  0.19900818079E+02 -0.19562944458E+01  0.20870935344E+02  0.00000000000E+00 0.  1.
</event>
<event>
 7    1  0.3708346E-009  0.4614232E+02  0.7816164E-02  0.1320468E+00
        -11   -1    0    0    0    0  0.00000000000E+00  0.00000000000E+00  0.45593999997E+02  0.45594000000E+02  0.51100000000E-03 0. -1.
         11   -1    0    0    0    0 -0.00000000000E+00 -0.00000000000E+00 -0.45593999997E+02  0.45594000000E+02  0.51100000000E-03 0.  1.
    9900012    2    1    2    0    0 -0.34744265044E+02  0.23967735628E+02  0.15732041620E+02  0.46142318318E+02  0.10000005082E+02 0.  0.
        -12    1    1    2    0    0  0.34744265044E+02 -0.23967735628E+02 -0.15732041620E+02  0.45045681682E+02  0.00000000000E+00 0.  1.
         11    1    3    3    0    0 -0.10763985309E+02  0.12482614711E+02  0.57202780575E+01  0.17447080875E+02  0.51100000000E-03 0. -1.
        -11    1    3    3    0    0 -0.81575165413E+01  0.45388345997E+01  0.55025459701E+01  0.10836240495E+02  0.51100000000E-03 0.  1.
         12    1    3    3    0    0 -0.15822763194E+02  0.69462863177E+01  0.45092175922E+01  0.17858996949E+02  0.00000000000E+00 0. -1.
</event>
<event>
 7    1  0.3708346E-009  0.4614232E+02  0.7816164E-02  0.1320468E+00
        -11   -1    0    0    0    0  0.00000000000E+00  0.00000000000E+00  0.45593999997E+02  0.45594000000E+02  0.51100000000E-03 0.  1.
         11   -1    0    0    0    0 -0.00000000000E+00 -0.00000000000E+00 -0.45593999997E+02  0.45594000000E+02  0.51100000000E-03 0. -1.
    9900012    2    1    2    0    0  0.25215535190E+02  0.33861620409E+02 -0.15706070992E+02  0.46142320766E+02  0.10000027401E+02 0.  0.
        -12    1    1    2    0    0 -0.25215535190E+02 -0.33861620409E+02  0.15706070992E+02  0.45045679234E+02  0.00000000000E+00 0.  1.
         11    1    3    3    0    0  0.15332149621E+02  0.17608888745E+02 -0.73832081539E+01  0.24487946785E+02  0.51100000000E-03 0. -1.
        -11    1    3    3    0    0  0.27545448397E+00  0.77389232494E+00 -0.23381533468E+01  0.24782545950E+01  0.51100000000E-03 0.  1.
        -12    1    3    3    0    0  0.96079310851E+01  0.15478839339E+02 -0.59847094916E+01  0.19176119386E+02  0.00000000000E+00 0.  1.
</event>
<event>
 7    1  0.3708346E-009  0.4614232E+02  0.7816164E-02  0.1320468E+00
        -11   -1    0    0    0    0  0.00000000000E+00  0.00000000000E+00  0.45593999997E+02  0.45594000000E+02  0.51100000000E-03 0.  1.
         11   -1    0    0    0    0 -0.00000000000E+00 -0.00000000000E+00 -0.45593999997E+02  0.45594000000E+02  0.51100000000E-03 0. -1.
    9900012    2    1    2    0    0 -0.39203166210E+02  0.19235902452E+02 -0.11054649869E+02  0.46142317990E+02  0.10000002088E+02 0.  0.
        -12    1    1    2    0    0  0.39203166210E+02 -0.19235902452E+02  0.11054649869E+02  0.45045682010E+02  0.00000000000E+00 0.  1.
         11    1    3    3    0    0 -0.13194820542E+02  0.96465711877E+01 -0.29452335488E+01  0.16608251737E+02  0.51100000000E-03 0. -1.
        -11    1    3    3    0    0 -0.15376794406E+02  0.72745858524E+01 -0.76281606065E+01  0.18642806656E+02  0.51100000000E-03 0.  1.
        -12    1    3    3    0    0 -0.10631551262E+02  0.23147454116E+01 -0.48125571328E+00  0.10891259597E+02  0.00000000000E+00 0.  1.
</event>
<event>
 7    1  0.3708346E-009  0.4614232E+02  0.7816164E-02  0.1320468E+00
        -11   -1    0    0    0    0  0.00000000000E+00  0.00000000000E+00  0.45593999997E+02  0.45594000000E+02  0.51100000000E-03 0. -1.
         11   -1    0    0    0    0 -0.00000000000E+00 -0.00000000000E+00 -0.45593999997E+02  0.45594000000E+02  0.51100000000E-03 0.  1.
    9900012    2    1    2    0    0  0.19034991785E+02  0.32543948485E+02  0.24651044887E+02  0.46142317529E+02  0.99999978820E+01 0.  0.
        -12    1    1    2    0    0 -0.19034991785E+02 -0.32543948485E+02 -0.24651044887E+02  0.45045682471E+02  0.00000000000E+00 0.  1.
         11    1    3    3    0    0  0.60491146975E+01  0.60239263767E+01  0.56579604039E+01  0.10241679248E+02  0.51100000000E-03 0. -1.
        -11    1    3    3    0    0  0.10923857649E+02  0.16542545590E+02  0.15380621068E+02  0.25090834686E+02  0.51100000000E-03 0.  1.
        -12    1    3    3    0    0  0.20620194385E+01  0.99774765186E+01  0.36124634145E+01  0.10809803595E+02  0.00000000000E+00 0.  1.
</event>
<event>
 7    1  0.3708346E-009  0.4614231E+02  0.7816164E-02  0.1320468E+00
        -11   -1    0    0    0    0  0.00000000000E+00  0.00000000000E+00  0.45593999997E+02  0.45594000000E+02  0.51100000000E-03 0.  1.
         11   -1    0    0    0    0 -0.00000000000E+00 -0.00000000000E+00 -0.45593999997E+02  0.45594000000E+02  0.51100000000E-03 0. -1.
    9900012    2    1    2    0    0  0.66700916038E+01  0.34828400568E+02 -0.27777801256E+02  0.46142313739E+02  0.99999633217E+01 0.  0.
        -12    1    1    2    0    0 -0.66700916038E+01 -0.34828400568E+02  0.27777801256E+02  0.45045686261E+02  0.00000000000E+00 0.  1.
         11    1    3    3    0    0  0.30865838153E+01  0.14614720806E+02 -0.14826842850E+02  0.21046432787E+02  0.51100000000E-03 0. -1.
        -11    1    3    3    0    0  0.32543614336E+01  0.15070218673E+02 -0.12632718917E+02  0.19932083350E+02  0.51100000000E-03 0.  1.
        -12    1    3    3    0    0  0.32914635493E+00  0.51434610894E+01 -0.31823948881E+00  0.51637976019E+01  0.00000000000E+00 0.  1.
</event>
<event>
 7    1  0.3708346E-009  0.4614232E+02  0.7816164E-02  0.1320468E+00
        -11   -1    0    0    0    0  0.00000000000E+00  0.00000000000E+00  0.45593999997E+02  0.45594000000E+02  0.51100000000E-03 0.  1.
         11   -1    0    0    0    0 -0.00000000000E+00 -0.00000000000E+00 -0.45593999997E+02  0.45594000000E+02  0.51100000000E-03 0. -1.
    9900012    2    1    2    0    0 -0.32770553283E+02 -0.25160935120E+02 -0.17948030668E+02  0.46142316261E+02  0.99999863247E+01 0.  0.
        -12    1    1    2    0    0  0.32770553283E+02  0.25160935120E+02  0.17948030668E+02  0.45045683739E+02  0.00000000000E+00 0.  1.
         11    1    3    3    0    0 -0.12243382854E+02 -0.41142299416E+01 -0.73912399496E+01  0.14881456245E+02  0.51100000000E-03 0.  1.
        -11    1    3    3    0    0 -0.14748168253E+02 -0.15825223997E+02 -0.79842678545E+01  0.23058506344E+02  0.51100000000E-03 0. -1.
        -12    1    3    3    0    0 -0.57790021758E+01 -0.52214811821E+01 -0.25725228634E+01  0.82023536723E+01  0.00000000000E+00 0.  1.
</event>
<event>
 7    1  0.3708346E-009  0.4614232E+02  0.7816164E-02  0.1320468E+00
        -11   -1    0    0    0    0  0.00000000000E+00  0.00000000000E+00  0.45593999997E+02  0.45594000000E+02  0.51100000000E-03 0.  1.
         11   -1    0    0    0    0 -0.00000000000E+00 -0.00000000000E+00 -0.45593999997E+02  0.45594000000E+02  0.51100000000E-03 0. -1.
    9900012    2    1    2    0    0  0.19108911257E+02 -0.40599160498E+02  0.39586776696E+01  0.46142318170E+02  0.10000003731E+02 0.  0.
        -12    1    1    2    0    0 -0.19108911257E+02  0.40599160498E+02 -0.39586776696E+01  0.45045681830E+02  0.00000000000E+00 0.  1.
         11    1    3    3    0    0  0.97451908031E+01 -0.23109247642E+02 -0.21320414999E+00  0.25080899638E+02  0.51100000000E-03 0. -1.
        -11    1    3    3    0    0  0.10030838062E+02 -0.15068721282E+02  0.40348325519E+01  0.18546265050E+02  0.51100000000E-03 0.  1.
         12    1    3    3    0    0 -0.66711760764E+00 -0.24211915738E+01  0.13704926766E+00  0.25151534826E+01  0.00000000000E+00 0. -1.
</event>
<event>
 7    1  0.3708346E-009  0.4614232E+02  0.7816164E-02  0.1320468E+00
        -11   -1    0    0    0    0  0.00000000000E+00  0.00000000000E+00  0.45593999997E+02  0.45594000000E+02  0.51100000000E-03 0. -1.
         11   -1    0    0    0    0 -0.00000000000E+00 -0.00000000000E+00 -0.45593999997E+02  0.45594000000E+02  0.51100000000E-03 0.  1.
    9900012    2    1    2    0    0 -0.14256417267E+02 -0.42321187049E+02  0.58978883328E+01  0.46142318816E+02  0.10000009623E+02 0.  0.
        -12    1    1    2    0    0  0.14256417267E+02  0.42321187049E+02 -0.58978883328E+01  0.45045681184E+02  0.00000000000E+00 0.  1.
         11    1    3    3    0    0 -0.75590541658E+01 -0.27315070088E+02  0.38066061421E+01  0.28596199125E+02  0.51100000000E-03 0. -1.
        -11    1    3    3    0    0 -0.76444884442E+01 -0.11979207272E+02  0.12535999843E+01  0.14265732495E+02  0.51100000000E-03 0.  1.
        -12    1    3    3    0    0  0.94712534329E+00 -0.30269096889E+01  0.83768220649E+00  0.32803871966E+01  0.00000000000E+00 0.  1.
</event>
<event>
 7    1  0.3708346E-009  0.4614232E+02  0.7816164E-02  0.1320468E+00
        -11   -1    0    0    0    0  0.00000000000E+00  0.00000000000E+00  0.45593999997E+02  0.45594000000E+02  0.51100000000E-03 0.  1.
         11   -1    0    0    0    0 -0.00000000000E+00 -0.00000000000E+00 -0.45593999997E+02  0.45594000000E+02  0.51100000000E-03 0. -1.
    9900012    2    1    2    0    0 -0.12974861605E+02 -0.40824002662E+02 -0.13934392364E+02  0.46142317437E+02  0.99999970448E+01 0.  0.
        -12    1    1    2    0    0  0.12974861605E+02  0.40824002662E+02  0.13934392364E+02  0.45045682563E+02  0.00000000000E+00 0.  1.
         11    1    3    3    0    0 -0.67678776050E+01 -0.26553818692E+02 -0.56820273633E+01  0.27985619336E+02  0.51100000000E-03 0. -1.
        -11    1    3    3    0    0 -0.14480429796E+01 -0.82475408953E+00  0.23843525766E-01  0.16666182988E+01  0.51100000000E-03 0.  1.
         12    1    3    3    0    0 -0.47589410208E+01 -0.13445429880E+02 -0.82762085268E+01  0.16490079802E+02  0.00000000000E+00 0. -1.
</event>
<event>
 7    1  0.3708346E-009  0.4614232E+02  0.7816164E-02  0.1320468E+00
        -11   -1    0    0    0    0  0.00000000000E+00  0.00000000000E+00  0.45593999997E+02  0.45594000000E+02  0.51100000000E-03 0.  1.
         11   -1    0    0    0    0 -0.00000000000E+00 -0.00000000000E+00 -0.45593999997E+02  0.45594000000E+02  0.51100000000E-03 0. -1.
    9900012    2    1    2    0    0 -0.31384341050E+02 -0.27951636866E+02 -0.16212424116E+02  0.46142316939E+02  0.99999925079E+01 0.  0.
        -12    1    1    2    0    0  0.31384341050E+02  0.27951636866E+02  0.16212424116E+02  0.45045683061E+02  0.00000000000E+00 0.  1.
         11    1    3    3    0    0 -0.11525098742E+02 -0.10321007142E+02 -0.84389191855E+01  0.17622895526E+02  0.51100000000E-03 0. -1.
        -11    1    3    3    0    0 -0.96990100006E+00 -0.18533177955E+01 -0.26570413310E+01  0.33816214597E+01  0.51100000000E-03 0.  1.
        -12    1    3    3    0    0 -0.18889341308E+02 -0.15777311928E+02 -0.51164636000E+01  0.25137799953E+02  0.00000000000E+00 0.  1.
</event>
<event>
 7    1  0.3708346E-009  0.4614232E+02  0.7816164E-02  0.1320468E+00
        -11   -1    0    0    0    0  0.00000000000E+00  0.00000000000E+00  0.45593999997E+02  0.45594000000E+02  0.51100000000E-03 0.  1.
         11   -1    0    0    0    0 -0.00000000000E+00 -0.00000000000E+00 -0.45593999997E+02  0.45594000000E+02  0.51100000000E-03 0. -1.
    9900012    2    1    2    0    0  0.28780702730E+02 -0.34621071617E+02  0.14717678610E+01  0.46142317075E+02  0.99999937439E+01 0.  0.
        -12    1    1    2    0    0 -0.28780702730E+02  0.34621071617E+02 -0.14717678610E+01  0.45045682925E+02  0.00000000000E+00 0.  1.
         11    1    3    3    0    0  0.14737265961E+02 -0.21379440618E+02  0.12375584633E+01  0.25996135104E+02  0.51100000000E-03 0. -1.
        -11    1    3    3    0    0  0.10737732044E+02 -0.11118905775E+02 -0.20643817704E+01  0.15594570447E+02  0.51100000000E-03 0.  1.
         12    1    3    3    0    0  0.33057047248E+01 -0.21227252246E+01  0.22985911681E+01  0.45516115239E+01  0.00000000000E+00 0. -1.
</event>
<event>
 7    1  0.3708346E-009  0.4614232E+02  0.7816164E-02  0.1320468E+00
        -11   -1    0    0    0    0  0.00000000000E+00  0.00000000000E+00  0.45593999997E+02  0.45594000000E+02  0.51100000000E-03 0.  1.
         11   -1    0    0    0    0 -0.00000000000E+00 -0.00000000000E+00 -0.45593999997E+02  0.45594000000E+02  0.51100000000E-03 0. -1.
    9900012    2    1    2    0    0 -0.96882566916E+01  0.17639314415E+01 -0.43956111336E+02  0.46142317681E+02  0.99999992671E+01 0.  0.
        -12    1    1    2    0    0  0.96882566916E+01 -0.17639314415E+01  0.43956111336E+02  0.45045682319E+02  0.00000000000E+00 0.  1.
         11    1    3    3    0    0 -0.58168616858E+01  0.16627941588E+01 -0.27606956464E+02  0.28262073699E+02  0.51100000000E-03 0. -1.
        -11    1    3    3    0    0 -0.49261812710E+00 -0.23664418964E+00 -0.13315953640E+02  0.13327163791E+02  0.51100000000E-03 0.  1.
         12    1    3    3    0    0 -0.33787768787E+01  0.33778147236E+00 -0.30332012316E+01  0.45530801915E+01  0.00000000000E+00 0. -1.
</event>
<event>
 7    1  0.3708346E-009  0.4614232E+02  0.7816164E-02  0.1320468E+00
        -11   -1    0    0    0    0  0.00000000000E+00  0.00000000000E+00  0.45593999997E+02  0.45594000000E+02  0.51100000000E-03 0. -1.
         11   -1    0    0    0    0 -0.00000000000E+00 -0.00000000000E+00 -0.45593999997E+02  0.45594000000E+02  0.51100000000E-03 0.  1.
    9900012    2    1    2    0    0 -0.25650254782E+02 -0.32768905315E+02 -0.17244615382E+02  0.46142317791E+02  0.10000000277E+02 0.  0.
        -12    1    1    2    0    0  0.25650254782E+02  0.32768905315E+02  0.17244615382E+02  0.45045682209E+02  0.00000000000E+00 0.  1.
         11    1    3    3    0    0 -0.17296673945E+02 -0.24435762911E+02 -0.11787019804E+02  0.32174761456E+02  0.51100000000E-03 0. -1.
        -11    1    3    3    0    0 -0.78799076586E+01 -0.77912131536E+01 -0.63884084267E+01  0.12790922938E+02  0.51100000000E-03 0.  1.
         12    1    3    3    0    0 -0.47367317853E+00 -0.54192925072E+00  0.93081284912E+00  0.11766333978E+01  0.00000000000E+00 0. -1.
</event>
<event>
 7    1  0.3708346E-009  0.4614232E+02  0.7816164E-02  0.1320468E+00
        -11   -1    0    0    0    0  0.00000000000E+00  0.00000000000E+00  0.45593999997E+02  0.45594000000E+02  0.51100000000E-03 0.  1.
         11   -1    0    0    0    0 -0.00000000000E+00 -0.00000000000E+00 -0.45593999997E+02  0.45594000000E+02  0.51100000000E-03 0. -1.
    9900012    2    1    2    0    0 -0.43540188476E+02  0.36354212329E+01 -0.10961251588E+02  0.46142319448E+02  0.10000015378E+02 0.  0.
        -12    1    1    2    0    0  0.43540188476E+02 -0.36354212329E+01  0.10961251588E+02  0.45045680552E+02  0.00000000000E+00 0.  1.
         11    1    3    3    0    0 -0.11033771477E+02  0.23014651039E+01 -0.32057244553E+01  0.11718256021E+02  0.51100000000E-03 0. -1.
        -11    1    3    3    0    0 -0.22851697483E+02  0.38255146332E+01 -0.78170856614E+01  0.24452841727E+02  0.51100000000E-03 0.  1.
        -12    1    3    3    0    0 -0.96547195164E+01 -0.24915585042E+01  0.61558528833E-01  0.99712216991E+01  0.00000000000E+00 0.  1.
</event>
<event>
 7    1  0.3708346E-009  0.4614232E+02  0.7816164E-02  0.1320468E+00
        -11   -1    0    0    0    0  0.00000000000E+00  0.00000000000E+00  0.45593999997E+02  0.45594000000E+02  0.51100000000E-03 0.  1.
         11   -1    0    0    0    0 -0.00000000000E+00 -0.00000000000E+00 -0.45593999997E+02  0.45594000000E+02  0.51100000000E-03 0. -1.
    9900012    2    1    2    0    0  0.20557555577E+02  0.38265428974E+02 -0.11927176075E+02  0.46142315690E+02  0.99999811141E+01 0.  0.
        -12    1    1    2    0    0 -0.20557555577E+02 -0.38265428974E+02  0.11927176075E+02  0.45045684310E+02  0.00000000000E+00 0.  1.
         11    1    3    3    0    0  0.11626834789E+02  0.14212858131E+02 -0.63127406971E+01  0.19417500324E+02  0.51100000000E-03 0. -1.
        -11    1    3    3    0    0  0.15354310299E+01  0.85163800283E+01 -0.93199001838E-01  0.86541876308E+01  0.51100000000E-03 0.  1.
        -12    1    3    3    0    0  0.73952897580E+01  0.15536190814E+02 -0.55212363765E+01  0.18070627735E+02  0.00000000000E+00 0.  1.
</event>
<event>
 7    1  0.3708346E-009  0.4614232E+02  0.7816164E-02  0.1320468E+00
        -11   -1    0    0    0    0  0.00000000000E+00  0.00000000000E+00  0.45593999997E+02  0.45594000000E+02  0.51100000000E-03 0.  1.
         11   -1    0    0    0    0 -0.00000000000E+00 -0.00000000000E+00 -0.45593999997E+02  0.45594000000E+02  0.51100000000E-03 0. -1.
    9900012    2    1    2    0    0 -0.23596261371E+02 -0.31004150077E+02 -0.22606911332E+02  0.46142319711E+02  0.10000017783E+02 0.  0.
        -12    1    1    2    0    0  0.23596261371E+02  0.31004150077E+02  0.22606911332E+02  0.45045680289E+02  0.00000000000E+00 0.  1.
         11    1    3    3    0    0 -0.14206044175E+02 -0.19044876333E+02 -0.12474186567E+02  0.26835132502E+02  0.51100000000E-03 0. -1.
        -11    1    3    3    0    0 -0.11388729127E+01 -0.39696164998E+01 -0.22025944188E+00  0.41356258474E+01  0.51100000000E-03 0.  1.
        -12    1    3    3    0    0 -0.82513442836E+01 -0.79896572443E+01 -0.99124653236E+01  0.15171561362E+02  0.00000000000E+00 0.  1.
</event>
<event>
 7    1  0.3708346E-009  0.4614232E+02  0.7816164E-02  0.1320468E+00
        -11   -1    0    0    0    0  0.00000000000E+00  0.00000000000E+00  0.45593999997E+02  0.45594000000E+02  0.51100000000E-03 0. -1.
         11   -1    0    0    0    0 -0.00000000000E+00 -0.00000000000E+00 -0.45593999997E+02  0.45594000000E+02  0.51100000000E-03 0.  1.
    9900012    2    1    2    0    0 -0.14288832506E+02  0.30529062926E+02  0.29881752110E+02  0.46142317336E+02  0.99999961233E+01 0.  0.
        -12    1    1    2    0    0  0.14288832506E+02 -0.30529062926E+02 -0.29881752110E+02  0.45045682664E+02  0.00000000000E+00 0.  1.
         11    1    3    3    0    0 -0.42042496439E+01  0.82057352064E+01  0.83218002353E+01  0.12420232074E+02  0.51100000000E-03 0. -1.
        -11    1    3    3    0    0 -0.29232667003E-01  0.64597503150E+01  0.23986154085E+01  0.68907608303E+01  0.51100000000E-03 0.  1.
        -12    1    3    3    0    0 -0.10055350195E+02  0.15863577404E+02  0.19161336466E+02  0.26831324432E+02  0.00000000000E+00 0.  1.
</event>
<event>
 7    1  0.3708346E-009  0.4614232E+02  0.7816164E-02  0.1320468E+00
        -11   -1    0    0    0    0  0.00000000000E+00  0.00000000000E+00  0.45593999997E+02  0.45594000000E+02  0.51100000000E-03 0.  1.
         11   -1    0    0    0    0 -0.00000000000E+00 -0.00000000000E+00 -0.45593999997E+02  0.45594000000E+02  0.51100000000E-03 0. -1.
    9900012    2    1    2    0    0  0.76337464034E+01  0.14351475517E+02 -0.42010410674E+02  0.46142317202E+02  0.99999949061E+01 0.  0.
        -12    1    1    2    0    0 -0.76337464034E+01 -0.14351475517E+02  0.42010410674E+02  0.45045682798E+02  0.00000000000E+00 0.  1.
         11    1    3    3    0    0  0.41255200145E+01  0.39105768914E+01 -0.12088965438E+02  0.13358727957E+02  0.51100000000E-03 0. -1.
        -11    1    3    3    0    0  0.35449686529E+00  0.69988035728E+01 -0.25150546541E+02  0.26108598413E+02  0.51100000000E-03 0.  1.
        -12    1    3    3    0    0  0.31537295236E+01  0.34420950526E+01 -0.47708986956E+01  0.66749908331E+01  0.00000000000E+00 0.  1.
</event>
<event>
 7    1  0.3708346E-009  0.4614232E+02  0.7816164E-02  0.1320468E+00
        -11   -1    0    0    0    0  0.00000000000E+00  0.00000000000E+00  0.45593999997E+02  0.45594000000E+02  0.51100000000E-03 0.  1.
         11   -1    0    0    0    0 -0.00000000000E+00 -0.00000000000E+00 -0.45593999997E+02  0.45594000000E+02  0.51100000000E-03 0. -1.
    9900012    2    1    2    0    0  0.17184399731E+00 -0.23687694708E+02 -0.38314189156E+02  0.46142317614E+02  0.99999986568E+01 0.  0.
        -12    1    1    2    0    0 -0.17184399731E+00  0.23687694708E+02  0.38314189156E+02  0.45045682386E+02  0.00000000000E+00 0.  1.
         11    1    3    3    0    0  0.26233711396E+01 -0.21963030841E+01 -0.41140126846E+01  0.53507872321E+01  0.51100000000E-03 0. -1.
        -11    1    3    3    0    0 -0.10141141239E+01 -0.56074368418E+01 -0.52974178817E+01  0.77803863571E+01  0.51100000000E-03 0.  1.
         12    1    3    3    0    0 -0.14374130184E+01 -0.15883954782E+02 -0.28902758590E+02  0.33011144025E+02  0.00000000000E+00 0. -1.
</event>
<event>
 7    1  0.3708346E-009  0.4614232E+02  0.7816164E-02  0.1320468E+00
        -11   -1    0    0    0    0  0.00000000000E+00  0.00000000000E+00  0.45593999997E+02  0.45594000000E+02  0.51100000000E-03 0.  1.
         11   -1    0    0    0    0 -0.00000000000E+00 -0.00000000000E+00 -0.45593999997E+02  0.45594000000E+02  0.51100000000E-03 0. -1.
    9900012    2    1    2    0    0 -0.35055764956E+02 -0.26793673340E+02 -0.90722598745E+01  0.46142317776E+02  0.10000000139E+02 0.  0.
        -12    1    1    2    0    0  0.35055764956E+02  0.26793673340E+02  0.90722598745E+01  0.45045682224E+02  0.00000000000E+00 0.  1.
         11    1    3    3    0    0 -0.18206627329E+01 -0.44809451304E+01 -0.27211342895E+01  0.55496174761E+01  0.51100000000E-03 0. -1.
        -11    1    3    3    0    0 -0.16103735274E+02 -0.94707773985E+01 -0.30343487050E+01  0.18927049073E+02  0.51100000000E-03 0.  1.
         12    1    3    3    0    0 -0.17131366950E+02 -0.12841950812E+02 -0.33167768799E+01  0.21665651227E+02  0.00000000000E+00 0. -1.
</event>
<event>
 7    1  0.3708346E-009  0.4614232E+02  0.7816164E-02  0.1320468E+00
        -11   -1    0    0    0    0  0.00000000000E+00  0.00000000000E+00  0.45593999997E+02  0.45594000000E+02  0.51100000000E-03 0.  1.
         11   -1    0    0    0    0 -0.00000000000E+00 -0.00000000000E+00 -0.45593999997E+02  0.45594000000E+02  0.51100000000E-03 0. -1.
    9900012    2    1    2    0    0 -0.23580117260E+02 -0.38275850868E+02  0.28373855162E+01  0.46142318228E+02  0.10000004261E+02 0.  0.
        -12    1    1    2    0    0  0.23580117260E+02  0.38275850868E+02 -0.28373855162E+01  0.45045681772E+02  0.00000000000E+00 0.  1.
         11    1    3    3    0    0 -0.77354286885E+00 -0.56684043677E+01  0.25629904966E+00  0.57266801997E+01  0.51100000000E-03 0.  1.
        -11    1    3    3    0    0 -0.16770744926E+02 -0.27783261028E+02  0.34713953759E+01  0.32637678607E+02  0.51100000000E-03 0. -1.
         12    1    3    3    0    0 -0.60358294659E+01 -0.48241854722E+01 -0.89030890937E+00  0.77779594217E+01  0.00000000000E+00 0. -1.
</event>
<event>
 7    1  0.3708346E-009  0.4614232E+02  0.7816164E-02  0.1320468E+00
        -11   -1    0    0    0    0  0.00000000000E+00  0.00000000000E+00  0.45593999997E+02  0.45594000000E+02  0.51100000000E-03 0.  1.
         11   -1    0    0    0    0 -0.00000000000E+00 -0.00000000000E+00 -0.45593999997E+02  0.45594000000E+02  0.51100000000E-03 0. -1.
    9900012    2    1    2    0    0 -0.70904203415E+01 -0.61483384143E+01 -0.44057205507E+02  0.46142317821E+02  0.10000000549E+02 0.  0.
        -12    1    1    2    0    0  0.70904203415E+01  0.61483384143E+01  0.44057205507E+02  0.45045682179E+02  0.00000000000E+00 0.  1.
         11    1    3    3    0    0 -0.19522856004E+01 -0.41750272384E+01 -0.15445566820E+02  0.16118554717E+02  0.51100000000E-03 0. -1.
        -11    1    3    3    0    0 -0.33965652384E+01 -0.22003248249E+01 -0.54122940773E+01  0.67580331602E+01  0.51100000000E-03 0.  1.
        -12    1    3    3    0    0 -0.17415695028E+01  0.22701364894E+00 -0.23199344609E+02  0.23265729944E+02  0.00000000000E+00 0.  1.
</event>
<event>
 7    1  0.3708346E-009  0.4614232E+02  0.7816164E-02  0.1320468E+00
        -11   -1    0    0    0    0  0.00000000000E+00  0.00000000000E+00  0.45593999997E+02  0.45594000000E+02  0.51100000000E-03 0. -1.
         11   -1    0    0    0    0 -0.00000000000E+00 -0.00000000000E+00 -0.45593999997E+02  0.45594000000E+02  0.51100000000E-03 0.  1.
    9900012    2    1    2    0    0 -0.42716836833E+02 -0.81221642688E+01 -0.11765023271E+02  0.46142317921E+02  0.10000001457E+02 0.  0.
        -12    1    1    2    0    0  0.42716836833E+02  0.81221642688E+01  0.11765023271E+02  0.45045682079E+02  0.00000000000E+00 0.  1.
         11    1    3    3    0    0 -0.66517728539E+01 -0.46807825670E+01 -0.38256695784E+01  0.89884122916E+01  0.51100000000E-03 0. -1.
        -11    1    3    3    0    0 -0.17455651706E+02 -0.14391049720E+01 -0.49407924769E+01  0.18198412848E+02  0.51100000000E-03 0.  1.
         12    1    3    3    0    0 -0.18609412272E+02 -0.20022767298E+01 -0.29985612154E+01  0.18955492782E+02  0.00000000000E+00 0. -1.
</event>
<event>
 7    1  0.3708346E-009  0.4614232E+02  0.7816164E-02  0.1320468E+00
        -11   -1    0    0    0    0  0.00000000000E+00  0.00000000000E+00  0.45593999997E+02  0.45594000000E+02  0.51100000000E-03 0. -1.
         11   -1    0    0    0    0 -0.00000000000E+00 -0.00000000000E+00 -0.45593999997E+02  0.45594000000E+02  0.51100000000E-03 0.  1.
    9900012    2    1    2    0    0  0.15996416349E+02 -0.35539859044E+02  0.22586424963E+02  0.46142317527E+02  0.99999978643E+01 0.  0.
        -12    1    1    2    0    0 -0.15996416349E+02  0.35539859044E+02 -0.22586424963E+02  0.45045682473E+02  0.00000000000E+00 0.  1.
         11    1    3    3    0    0  0.11115330943E+02 -0.14820842395E+02  0.12277664979E+02  0.22224963642E+02  0.51100000000E-03 0. -1.
        -11    1    3    3    0    0  0.10417747036E+00 -0.60639326189E+01  0.39834057896E+01  0.72560081104E+01  0.51100000000E-03 0.  1.
        -12    1    3    3    0    0  0.47769079355E+01 -0.14655084030E+02  0.63253541941E+01  0.16661345775E+02  0.00000000000E+00 0.  1.
</event>
<event>
 7    1  0.3708346E-009  0.4614232E+02  0.7816164E-02  0.1320468E+00
        -11   -1    0    0    0    0  0.00000000000E+00  0.00000000000E+00  0.45593999997E+02  0.45594000000E+02  0.51100000000E-03 0. -1.
         11   -1    0    0    0    0 -0.00000000000E+00 -0.00000000000E+00 -0.45593999997E+02  0.45594000000E+02  0.51100000000E-03 0.  1.
    9900012    2    1    2    0    0  0.13147265601E+01 -0.43757636038E+02  0.10613870762E+02  0.46142317964E+02  0.10000001846E+02 0.  0.
        -12    1    1    2    0    0 -0.13147265601E+01  0.43757636038E+02 -0.10613870762E+02  0.45045682036E+02  0.00000000000E+00 0.  1.
         11    1    3    3    0    0  0.18225765868E+01 -0.22828945871E+02  0.39077748676E+01  0.23232590464E+02  0.51100000000E-03 0. -1.
        -11    1    3    3    0    0  0.21569314460E+01 -0.25932561495E+01  0.12133782108E+01  0.35846363363E+01  0.51100000000E-03 0.  1.
        -12    1    3    3    0    0 -0.26647814727E+01 -0.18335434018E+02  0.54927176839E+01  0.19325091164E+02  0.00000000000E+00 0.  1.
</event>
<event>
 7    1  0.3708346E-009  0.4614231E+02  0.7816164E-02  0.1320468E+00
        -11   -1    0    0    0    0  0.00000000000E+00  0.00000000000E+00  0.45593999997E+02  0.45594000000E+02  0.51100000000E-03 0. -1.
         11   -1    0    0    0    0 -0.00000000000E+00 -0.00000000000E+00 -0.45593999997E+02  0.45594000000E+02  0.51100000000E-03 0.  1.
    9900012    2    1    2    0    0 -0.17515954824E+02 -0.40091129667E+02 -0.10724115913E+02  0.46142311933E+02  0.99999468504E+01 0.  0.
        -12    1    1    2    0    0  0.17515954824E+02  0.40091129667E+02  0.10724115913E+02  0.45045688067E+02  0.00000000000E+00 0.  1.
         11    1    3    3    0    0 -0.63133470682E+01 -0.12439660337E+02 -0.63113013511E+01  0.15311303848E+02  0.51100000000E-03 0.  1.
        -11    1    3    3    0    0 -0.83546595940E+01 -0.20127327199E+02 -0.60593790930E+01  0.22619144819E+02  0.51100000000E-03 0. -1.
         12    1    3    3    0    0 -0.28479481622E+01 -0.75241421308E+01  0.16465645316E+01  0.82118632657E+01  0.00000000000E+00 0. -1.
</event>
<event>
 7    1  0.3708346E-009  0.4614232E+02  0.7816164E-02  0.1320468E+00
        -11   -1    0    0    0    0  0.00000000000E+00  0.00000000000E+00  0.45593999997E+02  0.45594000000E+02  0.51100000000E-03 0.  1.
         11   -1    0    0    0    0 -0.00000000000E+00 -0.00000000000E+00 -0.45593999997E+02  0.45594000000E+02  0.51100000000E-03 0. -1.
    9900012    2    1    2    0    0  0.31698386995E+02  0.30479931527E+02 -0.97621362654E+01  0.46142320202E+02  0.10000022259E+02 0.  0.
        -12    1    1    2    0    0 -0.31698386995E+02 -0.30479931527E+02  0.97621362654E+01  0.45045679798E+02  0.00000000000E+00 0.  1.
         11    1    3    3    0    0  0.18167310574E+02  0.17612691050E+02 -0.60419757954E+01  0.26014679150E+02  0.51100000000E-03 0. -1.
        -11    1    3    3    0    0  0.10868598726E+02  0.67331130109E+01 -0.41091542599E+01  0.13429311154E+02  0.51100000000E-03 0.  1.
        -12    1    3    3    0    0  0.26624776949E+01  0.61341274666E+01  0.38899378985E+00  0.66983298979E+01  0.00000000000E+00 0.  1.
</event>
<event>
 7    1  0.3708346E-009  0.4614232E+02  0.7816164E-02  0.1320468E+00
        -11   -1    0    0    0    0  0.00000000000E+00  0.00000000000E+00  0.45593999997E+02  0.45594000000E+02  0.51100000000E-03 0.  1.
         11   -1    0    0    0    0 -0.00000000000E+00 -0.00000000000E+00 -0.45593999997E+02  0.45594000000E+02  0.51100000000E-03 0. -1.
    9900012    2    1    2    0    0  0.30947954476E+02 -0.13246356570E+02 -0.29931115356E+02  0.46142317464E+02  0.99999972937E+01 0.  0.
        -12    1    1    2    0    0 -0.30947954476E+02  0.13246356570E+02  0.29931115356E+02  0.45045682536E+02  0.00000000000E+00 0.  1.
         11    1    3    3    0    0  0.45441231053E+01 -0.48690807326E+01 -0.53491230148E+01  0.85422549286E+01  0.51100000000E-03 0. -1.
        -11    1    3    3    0    0  0.10063833146E+02 -0.36188379581E+01 -0.13777843306E+02  0.17441493404E+02  0.51100000000E-03 0.  1.
         12    1    3    3    0    0  0.16339998225E+02 -0.47584378796E+01 -0.10804149036E+02  0.20158569131E+02  0.00000000000E+00 0. -1.
</event>
<event>
 7    1  0.3708346E-009  0.4614232E+02  0.7816164E-02  0.1320468E+00
        -11   -1    0    0    0    0  0.00000000000E+00  0.00000000000E+00  0.45593999997E+02  0.45594000000E+02  0.51100000000E-03 0.  1.
         11   -1    0    0    0    0 -0.00000000000E+00 -0.00000000000E+00 -0.45593999997E+02  0.45594000000E+02  0.51100000000E-03 0. -1.
    9900012    2    1    2    0    0 -0.70084169116E+01  0.44197257665E+02 -0.51573256365E+01  0.46142317627E+02  0.99999987776E+01 0.  0.
        -12    1    1    2    0    0  0.70084169116E+01 -0.44197257665E+02  0.51573256365E+01  0.45045682373E+02  0.00000000000E+00 0.  1.
         11    1    3    3    0    0 -0.64052236536E+01  0.17484953984E+02 -0.49931609610E+01  0.19279060209E+02  0.51100000000E-03 0. -1.
        -11    1    3    3    0    0 -0.83746613208E+00  0.65090239867E+01  0.93394588894E+00  0.66288006432E+01  0.51100000000E-03 0.  1.
         12    1    3    3    0    0  0.23427287410E+00  0.20203279694E+02 -0.10981105644E+01  0.20234456775E+02  0.00000000000E+00 0. -1.
</event>
<event>
 7    1  0.3708346E-009  0.4614232E+02  0.7816164E-02  0.1320468E+00
        -11   -1    0    0    0    0  0.00000000000E+00  0.00000000000E+00  0.45593999997E+02  0.45594000000E+02  0.51100000000E-03 0.  1.
         11   -1    0    0    0    0 -0.00000000000E+00 -0.00000000000E+00 -0.45593999997E+02  0.45594000000E+02  0.51100000000E-03 0. -1.
    9900012    2    1    2    0    0  0.28012883759E+02 -0.32288282337E+01 -0.35127860984E+02  0.46142316460E+02  0.99999881380E+01 0.  0.
        -12    1    1    2    0    0 -0.28012883759E+02  0.32288282337E+01  0.35127860984E+02  0.45045683540E+02  0.00000000000E+00 0.  1.
         11    1    3    3    0    0  0.15175593874E+02 -0.40815235167E+01 -0.16287755578E+02  0.22632906700E+02  0.51100000000E-03 0. -1.
        -11    1    3    3    0    0  0.41438830826E+01 -0.35804923243E-01 -0.11053862362E+02  0.11805122717E+02  0.51100000000E-03 0.  1.
         12    1    3    3    0    0  0.86934068028E+01  0.88850020630E+00 -0.77862430438E+01  0.11704287043E+02  0.00000000000E+00 0. -1.
</event>
<event>
 7    1  0.3708346E-009  0.4614232E+02  0.7816164E-02  0.1320468E+00
        -11   -1    0    0    0    0  0.00000000000E+00  0.00000000000E+00  0.45593999997E+02  0.45594000000E+02  0.51100000000E-03 0.  1.
         11   -1    0    0    0    0 -0.00000000000E+00 -0.00000000000E+00 -0.45593999997E+02  0.45594000000E+02  0.51100000000E-03 0. -1.
    9900012    2    1    2    0    0  0.25938930788E+02 -0.27150888343E+01 -0.36727559299E+02  0.46142318189E+02  0.10000003898E+02 0.  0.
        -12    1    1    2    0    0 -0.25938930788E+02  0.27150888343E+01  0.36727559299E+02  0.45045681811E+02  0.00000000000E+00 0.  1.
         11    1    3    3    0    0  0.17776092527E+02 -0.22846093586E+00 -0.21728481977E+02  0.28074340405E+02  0.51100000000E-03 0. -1.
        -11    1    3    3    0    0  0.64411544686E+01 -0.34779253829E+01 -0.82348516153E+01  0.11018040536E+02  0.51100000000E-03 0.  1.
        -12    1    3    3    0    0  0.17216837926E+01  0.99129748442E+00 -0.67642257067E+01  0.70499372476E+01  0.00000000000E+00 0.  1.
</event>
<event>
 7    1  0.3708346E-009  0.4614231E+02  0.7816164E-02  0.1320468E+00
        -11   -1    0    0    0    0  0.00000000000E+00  0.00000000000E+00  0.45593999997E+02  0.45594000000E+02  0.51100000000E-03 0. -1.
         11   -1    0    0    0    0 -0.00000000000E+00 -0.00000000000E+00 -0.45593999997E+02  0.45594000000E+02  0.51100000000E-03 0.  1.
    9900012    2    1    2    0    0  0.31615343683E+02 -0.31371588557E+02  0.67385287574E+01  0.46142308812E+02  0.99999183950E+01 0.  0.
        -12    1    1    2    0    0 -0.31615343683E+02  0.31371588557E+02 -0.67385287574E+01  0.45045691188E+02  0.00000000000E+00 0.  1.
         11    1    3    3    0    0  0.20427750847E+01 -0.59173773233E+01  0.87057032334E+00  0.63202988365E+01  0.51100000000E-03 0. -1.
        -11    1    3    3    0    0  0.23756668784E+02 -0.22281309253E+02  0.63335543408E+01  0.33180566068E+02  0.51100000000E-03 0.  1.
        -12    1    3    3    0    0  0.58158998140E+01 -0.31729019802E+01 -0.46559590679E+00  0.66414439071E+01  0.00000000000E+00 0.  1.
</event>
<event>
 7    1  0.3708346E-009  0.4614232E+02  0.7816164E-02  0.1320468E+00
        -11   -1    0    0    0    0  0.00000000000E+00  0.00000000000E+00  0.45593999997E+02  0.45594000000E+02  0.51100000000E-03 0.  1.
         11   -1    0    0    0    0 -0.00000000000E+00 -0.00000000000E+00 -0.45593999997E+02  0.45594000000E+02  0.51100000000E-03 0. -1.
    9900012    2    1    2    0    0 -0.27031387798E+02  0.26466763739E+02 -0.24452565306E+02  0.46142318086E+02  0.10000002960E+02 0.  0.
        -12    1    1    2    0    0  0.27031387798E+02 -0.26466763739E+02  0.24452565306E+02  0.45045681914E+02  0.00000000000E+00 0.  1.
         11    1    3    3    0    0 -0.94555090592E-02 -0.25637865053E+00 -0.42338775856E+00  0.49505239553E+00  0.51100000000E-03 0. -1.
        -11    1    3    3    0    0 -0.12409739213E+02  0.84191015075E+01 -0.12596948901E+02  0.19584841572E+02  0.51100000000E-03 0.  1.
         12    1    3    3    0    0 -0.14612193076E+02  0.18304040882E+02 -0.11432228646E+02  0.26062424118E+02  0.00000000000E+00 0. -1.
</event>
<event>
 7    1  0.3708346E-009  0.4614232E+02  0.7816164E-02  0.1320468E+00
        -11   -1    0    0    0    0  0.00000000000E+00  0.00000000000E+00  0.45593999997E+02  0.45594000000E+02  0.51100000000E-03 0.  1.
         11   -1    0    0    0    0 -0.00000000000E+00 -0.00000000000E+00 -0.45593999997E+02  0.45594000000E+02  0.51100000000E-03 0. -1.
    9900012    2    1    2    0    0  0.72929230494E+01 -0.29026526163E+02 -0.33665823269E+02  0.46142316477E+02  0.99999882906E+01 0.  0.
        -12    1    1    2    0    0 -0.72929230494E+01  0.29026526163E+02  0.33665823269E+02  0.45045683523E+02  0.00000000000E+00 0.  1.
         11    1    3    3    0    0 -0.10229619066E+01 -0.78989661572E+01 -0.12304120081E+02  0.14657130983E+02  0.51100000000E-03 0. -1.
        -11    1    3    3    0    0  0.67384161020E+01 -0.18164299012E+02 -0.20050085515E+02  0.27881067763E+02  0.51100000000E-03 0.  1.
        -12    1    3    3    0    0  0.15774688540E+01 -0.29632609941E+01 -0.13116176720E+01  0.36041177314E+01  0.00000000000E+00 0.  1.
</event>
<event>
 7    1  0.3708346E-009  0.4614232E+02  0.7816164E-02  0.1320468E+00
        -11   -1    0    0    0    0  0.00000000000E+00  0.00000000000E+00  0.45593999997E+02  0.45594000000E+02  0.51100000000E-03 0. -1.
         11   -1    0    0    0    0 -0.00000000000E+00 -0.00000000000E+00 -0.45593999997E+02  0.45594000000E+02  0.51100000000E-03 0.  1.
    9900012    2    1    2    0    0  0.66455824400E+01  0.27866770321E+02 -0.34761944764E+02  0.46142318100E+02  0.10000003088E+02 0.  0.
        -12    1    1    2    0    0 -0.66455824400E+01 -0.27866770321E+02  0.34761944764E+02  0.45045681900E+02  0.00000000000E+00 0.  1.
         11    1    3    3    0    0 -0.30682116768E+00  0.44329993155E+01 -0.63685288400E+01  0.77655509789E+01  0.51100000000E-03 0. -1.
        -11    1    3    3    0    0  0.71616310687E+01  0.16876873603E+02 -0.24967941320E+02  0.30976053916E+02  0.51100000000E-03 0.  1.
        -12    1    3    3    0    0 -0.20922746094E+00  0.65568974026E+01 -0.34254746032E+01  0.74007132046E+01  0.00000000000E+00 0.  1.
</event>
<event>
 7    1  0.3708346E-009  0.4614232E+02  0.7816164E-02  0.1320468E+00
        -11   -1    0    0    0    0  0.00000000000E+00  0.00000000000E+00  0.45593999997E+02  0.45594000000E+02  0.51100000000E-03 0. -1.
         11   -1    0    0    0    0 -0.00000000000E+00 -0.00000000000E+00 -0.45593999997E+02  0.45594000000E+02  0.51100000000E-03 0.  1.
    9900012    2    1    2    0    0  0.41974911244E+02  0.89092965165E+01 -0.13705646488E+02  0.46142317810E+02  0.10000000443E+02 0.  0.
        -12    1    1    2    0    0 -0.41974911244E+02 -0.89092965165E+01  0.13705646488E+02  0.45045682190E+02  0.00000000000E+00 0.  1.
         11    1    3    3    0    0  0.20469454183E+02  0.56193698441E+01 -0.39469714692E+01  0.21590610368E+02  0.51100000000E-03 0. -1.
        -11    1    3    3    0    0  0.12391434657E+02  0.48035395872E+01 -0.57045048537E+01  0.14462469405E+02  0.51100000000E-03 0.  1.
        -12    1    3    3    0    0  0.91140224038E+01 -0.15136129149E+01 -0.40541701653E+01  0.10089238037E+02  0.00000000000E+00 0.  1.
</event>
<event>
 7    1  0.3708346E-009  0.4614232E+02  0.7816164E-02  0.1320468E+00
        -11   -1    0    0    0    0  0.00000000000E+00  0.00000000000E+00  0.45593999997E+02  0.45594000000E+02  0.51100000000E-03 0.  1.
         11   -1    0    0    0    0 -0.00000000000E+00 -0.00000000000E+00 -0.45593999997E+02  0.45594000000E+02  0.51100000000E-03 0. -1.
    9900012    2    1    2    0    0  0.59729964004E+01 -0.62953593597E+01 -0.44201870137E+02  0.46142316976E+02  0.99999928446E+01 0.  0.
        -12    1    1    2    0    0 -0.59729964004E+01  0.62953593597E+01  0.44201870137E+02  0.45045683024E+02  0.00000000000E+00 0.  1.
         11    1    3    3    0    0  0.12178092553E+01 -0.13424163403E+01 -0.19568445606E+02  0.19652206103E+02  0.51100000000E-03 0. -1.
        -11    1    3    3    0    0  0.34492715756E+00 -0.48449708041E+01 -0.87763820834E+01  0.10030832447E+02  0.51100000000E-03 0.  1.
        -12    1    3    3    0    0  0.44102599875E+01 -0.10797221528E+00 -0.15857042448E+02  0.16459278427E+02  0.00000000000E+00 0.  1.
</event>
<event>
 7    1  0.3708346E-009  0.4614232E+02  0.7816164E-02  0.1320468E+00
        -11   -1    0    0    0    0  0.00000000000E+00  0.00000000000E+00  0.45593999997E+02  0.45594000000E+02  0.51100000000E-03 0.  1.
         11   -1    0    0    0    0 -0.00000000000E+00 -0.00000000000E+00 -0.45593999997E+02  0.45594000000E+02  0.51100000000E-03 0. -1.
    9900012    2    1    2    0    0 -0.18000651020E+02 -0.22248605890E+02 -0.34786341892E+02  0.46142317816E+02  0.10000000499E+02 0.  0.
        -12    1    1    2    0    0  0.18000651020E+02  0.22248605890E+02  0.34786341892E+02  0.45045682184E+02  0.00000000000E+00 0.  1.
         11    1    3    3    0    0 -0.32672163828E+01 -0.70795830934E+01 -0.78940165373E+01  0.11095525991E+02  0.51100000000E-03 0. -1.
        -11    1    3    3    0    0 -0.83879076710E+01 -0.11388230042E+02 -0.22111326351E+02  0.26248038628E+02  0.51100000000E-03 0.  1.
        -12    1    3    3    0    0 -0.63455269664E+01 -0.37807927548E+01 -0.47809990044E+01  0.87987531967E+01  0.00000000000E+00 0.  1.
</event>
<event>
 7    1  0.4526852E-009  0.4614232E+02  0.7816164E-02  0.1320468E+00
        -11   -1    0    0    0    0  0.00000000000E+00  0.00000000000E+00  0.45593999997E+02  0.45594000000E+02  0.51100000000E-03 0. -1.
         11   -1    0    0    0    0 -0.00000000000E+00 -0.00000000000E+00 -0.45593999997E+02  0.45594000000E+02  0.51100000000E-03 0.  1.
    9900012    2    1    2    0    0  0.19805710849E+02 -0.37308590481E+02  0.15649805006E+02  0.46142317603E+02  0.99999985571E+01 0.  0.
        -12    1    1    2    0    0 -0.19805710849E+02  0.37308590481E+02 -0.15649805006E+02  0.45045682397E+02  0.00000000000E+00 0.  1.
         11    1    3    3    0    0  0.16795480804E+02 -0.25837911241E+02  0.94630704975E+01  0.32237176307E+02  0.51100000000E-03 0. -1.
        -11    1    3    3    0    0  0.44526502514E+00 -0.55279546696E+01  0.10556929051E+01  0.56454434319E+01  0.51100000000E-03 0.  1.
         12    1    3    3    0    0  0.25649650196E+01 -0.59427245703E+01  0.51310416035E+01  0.82596978642E+01  0.00000000000E+00 0. -1.
</event>
<event>
 7    1  0.3708346E-009  0.4614232E+02  0.7816164E-02  0.1320468E+00
        -11   -1    0    0    0    0  0.00000000000E+00  0.00000000000E+00  0.45593999997E+02  0.45594000000E+02  0.51100000000E-03 0. -1.
         11   -1    0    0    0    0 -0.00000000000E+00 -0.00000000000E+00 -0.45593999997E+02  0.45594000000E+02  0.51100000000E-03 0.  1.
    9900012    2    1    2    0    0  0.39564941567E+02  0.67540000438E+01 -0.20447794221E+02  0.46142318672E+02  0.10000008306E+02 0.  0.
        -12    1    1    2    0    0 -0.39564941567E+02 -0.67540000438E+01  0.20447794221E+02  0.45045681328E+02  0.00000000000E+00 0.  1.
         11    1    3    3    0    0  0.20519862128E+02  0.21410718947E+01 -0.72249933114E+01  0.21859768050E+02  0.51100000000E-03 0. -1.
        -11    1    3    3    0    0  0.55848078079E+01  0.52663415225E+00 -0.11080675331E+01  0.57179747901E+01  0.51100000000E-03 0.  1.
        -12    1    3    3    0    0  0.13460271632E+02  0.40862939968E+01 -0.12114733377E+02  0.18564575832E+02  0.00000000000E+00 0.  1.
</event>
<event>
 7    1  0.3708346E-009  0.4614232E+02  0.7816164E-02  0.1320468E+00
        -11   -1    0    0    0    0  0.00000000000E+00  0.00000000000E+00  0.45593999997E+02  0.45594000000E+02  0.51100000000E-03 0. -1.
         11   -1    0    0    0    0 -0.00000000000E+00 -0.00000000000E+00 -0.45593999997E+02  0.45594000000E+02  0.51100000000E-03 0.  1.
    9900012    2    1    2    0    0 -0.30531400736E+02  0.36380149143E+01  0.32919780169E+02  0.46142317523E+02  0.99999978305E+01 0.  0.
        -12    1    1    2    0    0  0.30531400736E+02 -0.36380149143E+01 -0.32919780169E+02  0.45045682477E+02  0.00000000000E+00 0.  1.
         11    1    3    3    0    0 -0.96847444280E+01  0.33033683091E+01  0.79436452086E+01  0.12954073347E+02  0.51100000000E-03 0. -1.
        -11    1    3    3    0    0  0.30720159478E-01  0.49250648733E+00  0.23504793694E+01  0.24017201951E+01  0.51100000000E-03 0.  1.
         12    1    3    3    0    0 -0.20877376467E+02 -0.15785988210E+00  0.22625655591E+02  0.30786523981E+02  0.00000000000E+00 0. -1.
</event>
<event>
 7    1  0.3708346E-009  0.4614232E+02  0.7816164E-02  0.1320468E+00
        -11   -1    0    0    0    0  0.00000000000E+00  0.00000000000E+00  0.45593999997E+02  0.45594000000E+02  0.51100000000E-03 0.  1.
         11   -1    0    0    0    0 -0.00000000000E+00 -0.00000000000E+00 -0.45593999997E+02  0.45594000000E+02  0.51100000000E-03 0. -1.
    9900012    2    1    2    0    0 -0.11845211746E+02  0.65197002073E+01 -0.42968569465E+02  0.46142317699E+02  0.99999994317E+01 0.  0.
        -12    1    1    2    0    0  0.11845211746E+02 -0.65197002073E+01  0.42968569465E+02  0.45045682301E+02  0.00000000000E+00 0.  1.
         11    1    3    3    0    0 -0.11635516172E+01  0.14441119231E+01 -0.64608723234E+01  0.67217693394E+01  0.51100000000E-03 0. -1.
        -11    1    3    3    0    0 -0.11226034858E+01 -0.24566845172E+01 -0.64943485163E+01  0.70336406160E+01  0.51100000000E-03 0.  1.
        -12    1    3    3    0    0 -0.95590566427E+01  0.75322728014E+01 -0.30013348626E+02  0.32386907743E+02  0.00000000000E+00 0.  1.
</event>
<event>
 7    1  0.3708346E-009  0.4614232E+02  0.7816164E-02  0.1320468E+00
        -11   -1    0    0    0    0  0.00000000000E+00  0.00000000000E+00  0.45593999997E+02  0.45594000000E+02  0.51100000000E-03 0.  1.
         11   -1    0    0    0    0 -0.00000000000E+00 -0.00000000000E+00 -0.45593999997E+02  0.45594000000E+02  0.51100000000E-03 0. -1.
    9900012    2    1    2    0    0  0.40675867922E+02  0.72521294774E+00 -0.19340665975E+02  0.46142317350E+02  0.99999962522E+01 0.  0.
        -12    1    1    2    0    0 -0.40675867922E+02 -0.72521294774E+00  0.19340665975E+02  0.45045682650E+02  0.00000000000E+00 0.  1.
         11    1    3    3    0    0  0.10937897623E+02  0.67442969718E+00 -0.26670973161E+01  0.11278557895E+02  0.51100000000E-03 0. -1.
        -11    1    3    3    0    0 -0.87474833109E-01  0.61252723315E+00  0.12075091418E+00  0.63041454788E+00  0.51100000000E-03 0.  1.
        -12    1    3    3    0    0  0.29825445132E+02 -0.56174398259E+00 -0.16794319573E+02  0.34233344907E+02  0.00000000000E+00 0.  1.
</event>
<event>
 7    1  0.3708346E-009  0.4614232E+02  0.7816164E-02  0.1320468E+00
        -11   -1    0    0    0    0  0.00000000000E+00  0.00000000000E+00  0.45593999997E+02  0.45594000000E+02  0.51100000000E-03 0. -1.
         11   -1    0    0    0    0 -0.00000000000E+00 -0.00000000000E+00 -0.45593999997E+02  0.45594000000E+02  0.51100000000E-03 0.  1.
    9900012    2    1    2    0    0  0.35198741650E+02  0.26188152644E+02  0.10214827979E+02  0.46142318039E+02  0.10000002536E+02 0.  0.
        -12    1    1    2    0    0 -0.35198741650E+02 -0.26188152644E+02 -0.10214827979E+02  0.45045681961E+02  0.00000000000E+00 0.  1.
         11    1    3    3    0    0  0.71428437406E+01  0.15356552557E+01  0.16404948913E+01  0.74879688512E+01  0.51100000000E-03 0. -1.
        -11    1    3    3    0    0  0.17331636791E+02  0.16793722705E+02  0.33299867657E+01  0.24361928665E+02  0.51100000000E-03 0.  1.
         12    1    3    3    0    0  0.10724261119E+02  0.78587746829E+01  0.52443463218E+01  0.14292420523E+02  0.00000000000E+00 0. -1.
</event>
<event>
 7    1  0.3708346E-009  0.4614232E+02  0.7816164E-02  0.1320468E+00
        -11   -1    0    0    0    0  0.00000000000E+00  0.00000000000E+00  0.45593999997E+02  0.45594000000E+02  0.51100000000E-03 0.  1.
         11   -1    0    0    0    0 -0.00000000000E+00 -0.00000000000E+00 -0.45593999997E+02  0.45594000000E+02  0.51100000000E-03 0. -1.
    9900012    2    1    2    0    0 -0.39781018248E+02  0.92081189402E+01 -0.19020900181E+02  0.46142317510E+02  0.99999977135E+01 0.  0.
        -12    1    1    2    0    0  0.39781018248E+02 -0.92081189402E+01  0.19020900181E+02  0.45045682490E+02  0.00000000000E+00 0.  1.
         11    1    3    3    0    0 -0.24457102316E+01  0.27938904648E+01 -0.22077685025E+01  0.43199032962E+01  0.51100000000E-03 0. -1.
        -11    1    3    3    0    0 -0.57748819470E+01  0.30012403891E+01 -0.21414012245E+01  0.68514454562E+01  0.51100000000E-03 0.  1.
         12    1    3    3    0    0 -0.31560426069E+02  0.34129880864E+01 -0.14671730454E+02  0.34970968758E+02  0.00000000000E+00 0. -1.
</event>
<event>
 7    1  0.3708346E-009  0.4614232E+02  0.7816164E-02  0.1320468E+00
        -11   -1    0    0    0    0  0.00000000000E+00  0.00000000000E+00  0.45593999997E+02  0.45594000000E+02  0.51100000000E-03 0. -1.
         11   -1    0    0    0    0 -0.00000000000E+00 -0.00000000000E+00 -0.45593999997E+02  0.45594000000E+02  0.51100000000E-03 0.  1.
    9900012    2    1    2    0    0  0.34293247385E+02 -0.66328802503E+01  0.28444525901E+02  0.46142323511E+02  0.10000052434E+02 0.  0.
        -12    1    1    2    0    0 -0.34293247385E+02  0.66328802503E+01 -0.28444525901E+02  0.45045676489E+02  0.00000000000E+00 0.  1.
         11    1    3    3    0    0  0.13694386124E+02 -0.56308007108E+01  0.15955521919E+02  0.21767425386E+02  0.51100000000E-03 0. -1.
        -11    1    3    3    0    0  0.13725808958E+01  0.58630715038E+00  0.21098643448E+00  0.15073983969E+01  0.51100000000E-03 0.  1.
         12    1    3    3    0    0  0.19226280365E+02 -0.15883866899E+01  0.12278017548E+02  0.22867499729E+02  0.00000000000E+00 0. -1.
</event>
<event>
 7    1  0.3708346E-009  0.4614232E+02  0.7816164E-02  0.1320468E+00
        -11   -1    0    0    0    0  0.00000000000E+00  0.00000000000E+00  0.45593999997E+02  0.45594000000E+02  0.51100000000E-03 0.  1.
         11   -1    0    0    0    0 -0.00000000000E+00 -0.00000000000E+00 -0.45593999997E+02  0.45594000000E+02  0.51100000000E-03 0. -1.
    9900012    2    1    2    0    0  0.33835314599E+01 -0.19363204198E+02 -0.40530624389E+02  0.46142317906E+02  0.10000001322E+02 0.  0.
        -12    1    1    2    0    0 -0.33835314599E+01  0.19363204198E+02  0.40530624389E+02  0.45045682094E+02  0.00000000000E+00 0.  1.
         11    1    3    3    0    0  0.38642539236E+01 -0.69365001593E+01 -0.21649730150E+02  0.23059885270E+02  0.51100000000E-03 0. -1.
        -11    1    3    3    0    0 -0.86153506446E+00 -0.12523619814E+02 -0.16839819887E+02  0.21003876547E+02  0.51100000000E-03 0.  1.
        -12    1    3    3    0    0  0.38081260085E+00  0.96915775835E-01 -0.20410743514E+01  0.20785560884E+01  0.00000000000E+00 0.  1.
</event>
<event>
 7    1  0.3708346E-009  0.4614232E+02  0.7816164E-02  0.1320468E+00
        -11   -1    0    0    0    0  0.00000000000E+00  0.00000000000E+00  0.45593999997E+02  0.45594000000E+02  0.51100000000E-03 0. -1.
         11   -1    0    0    0    0 -0.00000000000E+00 -0.00000000000E+00 -0.45593999997E+02  0.45594000000E+02  0.51100000000E-03 0.  1.
    9900012    2    1    2    0    0  0.14595483964E+02 -0.39862039970E+02 -0.15069939742E+02  0.46142318003E+02  0.10000002206E+02 0.  0.
        -12    1    1    2    0    0 -0.14595483964E+02  0.39862039970E+02  0.15069939742E+02  0.45045681997E+02  0.00000000000E+00 0.  1.
         11    1    3    3    0    0  0.10360222621E+02 -0.23561815642E+02 -0.11295960887E+02  0.28108577013E+02  0.51100000000E-03 0. -1.
        -11    1    3    3    0    0 -0.69111999236E+00 -0.18653287965E+00 -0.48807122951E+00  0.86640356949E+00  0.51100000000E-03 0.  1.
         12    1    3    3    0    0  0.49263813349E+01 -0.16113691449E+02 -0.32859076253E+01  0.17167337420E+02  0.00000000000E+00 0. -1.
</event>
<event>
 7    1  0.3708346E-009  0.4614232E+02  0.7816164E-02  0.1320468E+00
        -11   -1    0    0    0    0  0.00000000000E+00  0.00000000000E+00  0.45593999997E+02  0.45594000000E+02  0.51100000000E-03 0.  1.
         11   -1    0    0    0    0 -0.00000000000E+00 -0.00000000000E+00 -0.45593999997E+02  0.45594000000E+02  0.51100000000E-03 0. -1.
    9900012    2    1    2    0    0 -0.20697332240E+02  0.12365613768E+02 -0.38050303178E+02  0.46142317214E+02  0.99999950121E+01 0.  0.
        -12    1    1    2    0    0  0.20697332240E+02 -0.12365613768E+02  0.38050303178E+02  0.45045682786E+02  0.00000000000E+00 0.  1.
         11    1    3    3    0    0 -0.56424304103E+01  0.78236730435E+01 -0.18471629822E+02  0.20838617742E+02  0.51100000000E-03 0. -1.
        -11    1    3    3    0    0 -0.78291395733E+01  0.29881248554E+01 -0.81235948731E+01  0.11671208615E+02  0.51100000000E-03 0.  1.
        -12    1    3    3    0    0 -0.72257622565E+01  0.15538158691E+01 -0.11455078482E+02  0.13632490857E+02  0.00000000000E+00 0.  1.
</event>
<event>
 7    1  0.3708346E-009  0.4614232E+02  0.7816164E-02  0.1320468E+00
        -11   -1    0    0    0    0  0.00000000000E+00  0.00000000000E+00  0.45593999997E+02  0.45594000000E+02  0.51100000000E-03 0.  1.
         11   -1    0    0    0    0 -0.00000000000E+00 -0.00000000000E+00 -0.45593999997E+02  0.45594000000E+02  0.51100000000E-03 0. -1.
    9900012    2    1    2    0    0  0.85311235574E+01 -0.43335339597E+02 -0.88533469040E+01  0.46142317870E+02  0.10000000995E+02 0.  0.
        -12    1    1    2    0    0 -0.85311235574E+01  0.43335339597E+02  0.88533469040E+01  0.45045682130E+02  0.00000000000E+00 0.  1.
         11    1    3    3    0    0  0.43208261732E+01 -0.13493216035E+02 -0.40204609486E+01  0.14727543049E+02  0.51100000000E-03 0. -1.
        -11    1    3    3    0    0 -0.19728153543E+00 -0.39841721919E+01 -0.32337982876E+01  0.51351727999E+01  0.51100000000E-03 0.  1.
        -12    1    3    3    0    0  0.44075789197E+01 -0.25857951370E+02 -0.15990876679E+01  0.26279602021E+02  0.00000000000E+00 0.  1.
</event>
<event>
 7    1  0.3708346E-009  0.4614232E+02  0.7816164E-02  0.1320468E+00
        -11   -1    0    0    0    0  0.00000000000E+00  0.00000000000E+00  0.45593999997E+02  0.45594000000E+02  0.51100000000E-03 0. -1.
         11   -1    0    0    0    0 -0.00000000000E+00 -0.00000000000E+00 -0.45593999997E+02  0.45594000000E+02  0.51100000000E-03 0.  1.
    9900012    2    1    2    0    0 -0.62119511197E+00  0.42302576779E+02  0.15466725423E+02  0.46142317845E+02  0.10000000767E+02 0.  0.
        -12    1    1    2    0    0  0.62119511197E+00 -0.42302576779E+02 -0.15466725423E+02  0.45045682155E+02  0.00000000000E+00 0.  1.
         11    1    3    3    0    0 -0.19848251747E-01  0.19689906694E+02  0.38843277560E+01  0.20069400140E+02  0.51100000000E-03 0. -1.
        -11    1    3    3    0    0 -0.20599482111E+01  0.92614829532E+01  0.73160798569E+01  0.11980963144E+02  0.51100000000E-03 0.  1.
         12    1    3    3    0    0  0.14586013509E+01  0.13351187131E+02  0.42663178101E+01  0.14091954562E+02  0.00000000000E+00 0. -1.
</event>
<event>
 7    1  0.3708346E-009  0.4614232E+02  0.7816164E-02  0.1320468E+00
        -11   -1    0    0    0    0  0.00000000000E+00  0.00000000000E+00  0.45593999997E+02  0.45594000000E+02  0.51100000000E-03 0.  1.
         11   -1    0    0    0    0 -0.00000000000E+00 -0.00000000000E+00 -0.45593999997E+02  0.45594000000E+02  0.51100000000E-03 0. -1.
    9900012    2    1    2    0    0 -0.98011476075E+01 -0.23634412213E+02 -0.37073785306E+02  0.46142317721E+02  0.99999996371E+01 0.  0.
        -12    1    1    2    0    0  0.98011476075E+01  0.23634412213E+02  0.37073785306E+02  0.45045682279E+02  0.00000000000E+00 0.  1.
         11    1    3    3    0    0 -0.52057824338E+01 -0.49312395344E+01 -0.15830298668E+02  0.17378597477E+02  0.51100000000E-03 0. -1.
        -11    1    3    3    0    0 -0.11738631239E+01 -0.33376561378E+01 -0.27739814535E+01  0.44958732737E+01  0.51100000000E-03 0.  1.
         12    1    3    3    0    0 -0.34215020497E+01 -0.15365516541E+02 -0.18469505184E+02  0.24267846971E+02  0.00000000000E+00 0. -1.
</event>
<event>
 7    1  0.3708346E-009  0.4614232E+02  0.7816164E-02  0.1320468E+00
        -11   -1    0    0    0    0  0.00000000000E+00  0.00000000000E+00  0.45593999997E+02  0.45594000000E+02  0.51100000000E-03 0.  1.
         11   -1    0    0    0    0 -0.00000000000E+00 -0.00000000000E+00 -0.45593999997E+02  0.45594000000E+02  0.51100000000E-03 0. -1.
    9900012    2    1    2    0    0  0.68631608233E+01  0.38201750649E+02 -0.22861250464E+02  0.46142317611E+02  0.99999986280E+01 0.  0.
        -12    1    1    2    0    0 -0.68631608233E+01 -0.38201750649E+02  0.22861250464E+02  0.45045682389E+02  0.00000000000E+00 0.  1.
         11    1    3    3    0    0  0.65829424688E+01  0.36045552248E+02 -0.21086896979E+02  0.42276165778E+02  0.51100000000E-03 0. -1.
        -11    1    3    3    0    0  0.10941428455E+01  0.65422713160E-01 -0.17297150231E+00  0.11096612543E+01  0.51100000000E-03 0.  1.
         12    1    3    3    0    0 -0.81392449103E+00  0.20907756878E+01 -0.16013819829E+01  0.27564905785E+01  0.00000000000E+00 0. -1.
</event>
<event>
 7    1  0.3708346E-009  0.4614232E+02  0.7816164E-02  0.1320468E+00
        -11   -1    0    0    0    0  0.00000000000E+00  0.00000000000E+00  0.45593999997E+02  0.45594000000E+02  0.51100000000E-03 0. -1.
         11   -1    0    0    0    0 -0.00000000000E+00 -0.00000000000E+00 -0.45593999997E+02  0.45594000000E+02  0.51100000000E-03 0.  1.
    9900012    2    1    2    0    0 -0.17273451387E+02  0.56932642278E+01  0.41210777538E+02  0.46142316903E+02  0.99999921765E+01 0.  0.
        -12    1    1    2    0    0  0.17273451387E+02 -0.56932642278E+01 -0.41210777538E+02  0.45045683097E+02  0.00000000000E+00 0.  1.
         11    1    3    3    0    0 -0.10841748444E+02  0.10737433464E+01  0.17040540178E+02  0.20225638282E+02  0.51100000000E-03 0. -1.
        -11    1    3    3    0    0 -0.82060833948E+00  0.35445351974E+01  0.91922975253E+01  0.98861247143E+01  0.51100000000E-03 0.  1.
         12    1    3    3    0    0 -0.56110946032E+01  0.10749856839E+01  0.14977939834E+02  0.16030553907E+02  0.00000000000E+00 0. -1.
</event>
<event>
 7    1  0.3708346E-009  0.4614232E+02  0.7816164E-02  0.1320468E+00
        -11   -1    0    0    0    0  0.00000000000E+00  0.00000000000E+00  0.45593999997E+02  0.45594000000E+02  0.51100000000E-03 0.  1.
         11   -1    0    0    0    0 -0.00000000000E+00 -0.00000000000E+00 -0.45593999997E+02  0.45594000000E+02  0.51100000000E-03 0. -1.
    9900012    2    1    2    0    0 -0.16692158762E+02  0.71018471218E+01 -0.41231646685E+02  0.46142322238E+02  0.10000040823E+02 0.  0.
        -12    1    1    2    0    0  0.16692158762E+02 -0.71018471218E+01  0.41231646685E+02  0.45045677762E+02  0.00000000000E+00 0.  1.
         11    1    3    3    0    0 -0.12134160845E+02  0.19128646169E+01 -0.19646502043E+02  0.23170713265E+02  0.51100000000E-03 0. -1.
        -11    1    3    3    0    0 -0.60243768522E+00 -0.26711680708E+00 -0.47627724776E+00  0.81309460154E+00  0.51100000000E-03 0.  1.
         12    1    3    3    0    0 -0.39555602323E+01  0.54560993120E+01 -0.21108867395E+02  0.22158514371E+02  0.00000000000E+00 0. -1.
</event>
<event>
 7    1  0.3708346E-009  0.4614232E+02  0.7816164E-02  0.1320468E+00
        -11   -1    0    0    0    0  0.00000000000E+00  0.00000000000E+00  0.45593999997E+02  0.45594000000E+02  0.51100000000E-03 0. -1.
         11   -1    0    0    0    0 -0.00000000000E+00 -0.00000000000E+00 -0.45593999997E+02  0.45594000000E+02  0.51100000000E-03 0.  1.
    9900012    2    1    2    0    0  0.28264472248E+02 -0.26929451453E+02  0.22473040576E+02  0.46142319855E+02  0.10000019092E+02 0.  0.
        -12    1    1    2    0    0 -0.28264472248E+02  0.26929451453E+02 -0.22473040576E+02  0.45045680145E+02  0.00000000000E+00 0.  1.
         11    1    3    3    0    0  0.21209336010E+02 -0.15481626953E+02  0.13802073262E+02  0.29665028799E+02  0.51100000000E-03 0. -1.
        -11    1    3    3    0    0  0.57024326217E+00 -0.21785254413E+01  0.31955767344E+01  0.39093300453E+01  0.51100000000E-03 0.  1.
         12    1    3    3    0    0  0.64848929761E+01 -0.92692990592E+01  0.54753905794E+01  0.12567961010E+02  0.00000000000E+00 0. -1.
</event>
<event>
 7    1  0.3708346E-009  0.4614232E+02  0.7816164E-02  0.1320468E+00
        -11   -1    0    0    0    0  0.00000000000E+00  0.00000000000E+00  0.45593999997E+02  0.45594000000E+02  0.51100000000E-03 0. -1.
         11   -1    0    0    0    0 -0.00000000000E+00 -0.00000000000E+00 -0.45593999997E+02  0.45594000000E+02  0.51100000000E-03 0.  1.
    9900012    2    1    2    0    0  0.18369208561E+02 -0.14922732986E+02  0.38327505178E+02  0.46142318342E+02  0.10000005295E+02 0.  0.
        -12    1    1    2    0    0 -0.18369208561E+02  0.14922732986E+02 -0.38327505178E+02  0.45045681658E+02  0.00000000000E+00 0.  1.
         11    1    3    3    0    0  0.63826517606E+01 -0.69758328043E+01  0.12059530183E+02  0.15324253826E+02  0.51100000000E-03 0. -1.
        -11    1    3    3    0    0 -0.96843989134E+00 -0.20900940138E+00  0.11713384736E+01  0.15341430291E+01  0.51100000000E-03 0.  1.
        -12    1    3    3    0    0  0.12954996691E+02 -0.77378907804E+01  0.25096636521E+02  0.29283921487E+02  0.00000000000E+00 0.  1.
</event>
<event>
 7    1  0.3708346E-009  0.4614232E+02  0.7816164E-02  0.1320468E+00
        -11   -1    0    0    0    0  0.00000000000E+00  0.00000000000E+00  0.45593999997E+02  0.45594000000E+02  0.51100000000E-03 0.  1.
         11   -1    0    0    0    0 -0.00000000000E+00 -0.00000000000E+00 -0.45593999997E+02  0.45594000000E+02  0.51100000000E-03 0. -1.
    9900012    2    1    2    0    0  0.10517053595E+02 -0.38059948809E+01 -0.43635071891E+02  0.46142317496E+02  0.99999975789E+01 0.  0.
        -12    1    1    2    0    0 -0.10517053595E+02  0.38059948809E+01  0.43635071891E+02  0.45045682504E+02  0.00000000000E+00 0.  1.
         11    1    3    3    0    0  0.11807786775E+00 -0.48028294977E+00 -0.97156443714E+01  0.97282249104E+01  0.51100000000E-03 0. -1.
        -11    1    3    3    0    0  0.56210161905E+01  0.18806346665E+00 -0.77180224481E+01  0.95498199801E+01  0.51100000000E-03 0.  1.
        -12    1    3    3    0    0  0.47779595367E+01 -0.35137753977E+01 -0.26201405071E+02  0.26864272605E+02  0.00000000000E+00 0.  1.
</event>
<event>
 7    1  0.3708346E-009  0.4614232E+02  0.7816164E-02  0.1320468E+00
        -11   -1    0    0    0    0  0.00000000000E+00  0.00000000000E+00  0.45593999997E+02  0.45594000000E+02  0.51100000000E-03 0.  1.
         11   -1    0    0    0    0 -0.00000000000E+00 -0.00000000000E+00 -0.45593999997E+02  0.45594000000E+02  0.51100000000E-03 0. -1.
    9900012    2    1    2    0    0 -0.38834945544E+02 -0.73225029492E+01 -0.21618079190E+02  0.46142318823E+02  0.10000009679E+02 0.  0.
        -12    1    1    2    0    0  0.38834945544E+02  0.73225029492E+01  0.21618079190E+02  0.45045681177E+02  0.00000000000E+00 0.  1.
         11    1    3    3    0    0 -0.66596916377E+01 -0.30691496553E+01 -0.23868662655E+01  0.77115694347E+01  0.51100000000E-03 0. -1.
        -11    1    3    3    0    0 -0.32763382592E+01  0.89909814361E+00 -0.11304952123E+00  0.33993455717E+01  0.51100000000E-03 0.  1.
        -12    1    3    3    0    0 -0.28898915648E+02 -0.51524514375E+01 -0.19118163403E+02  0.35031403816E+02  0.00000000000E+00 0.  1.
</event>
<event>
 7    1  0.3708346E-009  0.4614232E+02  0.7816164E-02  0.1320468E+00
        -11   -1    0    0    0    0  0.00000000000E+00  0.00000000000E+00  0.45593999997E+02  0.45594000000E+02  0.51100000000E-03 0.  1.
         11   -1    0    0    0    0 -0.00000000000E+00 -0.00000000000E+00 -0.45593999997E+02  0.45594000000E+02  0.51100000000E-03 0. -1.
    9900012    2    1    2    0    0  0.21502210416E+02  0.29172253596E+02 -0.26753469073E+02  0.46142317187E+02  0.99999947619E+01 0.  0.
        -12    1    1    2    0    0 -0.21502210416E+02 -0.29172253596E+02  0.26753469073E+02  0.45045682813E+02  0.00000000000E+00 0.  1.
         11    1    3    3    0    0  0.33977716833E+00  0.35099504772E+01 -0.27912956051E+01  0.44973917211E+01  0.51100000000E-03 0. -1.
        -11    1    3    3    0    0  0.99424840787E+01  0.13497460819E+02 -0.77172321523E+01  0.18455083597E+02  0.51100000000E-03 0.  1.
        -12    1    3    3    0    0  0.11219949169E+02  0.12164842300E+02 -0.16244941316E+02  0.23189841869E+02  0.00000000000E+00 0.  1.
</event>
<event>
 7    1  0.3708346E-009  0.4614232E+02  0.7816164E-02  0.1320468E+00
        -11   -1    0    0    0    0  0.00000000000E+00  0.00000000000E+00  0.45593999997E+02  0.45594000000E+02  0.51100000000E-03 0.  1.
         11   -1    0    0    0    0 -0.00000000000E+00 -0.00000000000E+00 -0.45593999997E+02  0.45594000000E+02  0.51100000000E-03 0. -1.
    9900012    2    1    2    0    0 -0.24721413404E+02  0.72800371161E+01 -0.36945450282E+02  0.46142317436E+02  0.99999970350E+01 0.  0.
        -12    1    1    2    0    0  0.24721413404E+02 -0.72800371161E+01  0.36945450282E+02  0.45045682564E+02  0.00000000000E+00 0.  1.
         11    1    3    3    0    0 -0.21114163455E+02  0.39416760184E+01 -0.33694241590E+02  0.39958060824E+02  0.51100000000E-03 0. -1.
        -11    1    3    3    0    0 -0.10848394841E+01  0.94775660217E+00 -0.22627685710E-01  0.14407052289E+01  0.51100000000E-03 0.  1.
         12    1    3    3    0    0 -0.25224104650E+01  0.23906044955E+01 -0.32285810067E+01  0.47435513831E+01  0.00000000000E+00 0. -1.
</event>
<event>
 7    1  0.3708346E-009  0.4614232E+02  0.7816164E-02  0.1320468E+00
        -11   -1    0    0    0    0  0.00000000000E+00  0.00000000000E+00  0.45593999997E+02  0.45594000000E+02  0.51100000000E-03 0.  1.
         11   -1    0    0    0    0 -0.00000000000E+00 -0.00000000000E+00 -0.45593999997E+02  0.45594000000E+02  0.51100000000E-03 0. -1.
    9900012    2    1    2    0    0  0.22540009071E+02  0.25235357423E+02 -0.29736143573E+02  0.46142317546E+02  0.99999980350E+01 0.  0.
        -12    1    1    2    0    0 -0.22540009071E+02 -0.25235357423E+02  0.29736143573E+02  0.45045682454E+02  0.00000000000E+00 0.  1.
         11    1    3    3    0    0  0.68375422987E+01  0.84962262622E+01 -0.11044080696E+02  0.15521261678E+02  0.51100000000E-03 0. -1.
        -11    1    3    3    0    0  0.51625629216E+00  0.46722263173E+01 -0.51016892441E+01  0.69371069419E+01  0.51100000000E-03 0.  1.
        -12    1    3    3    0    0  0.15186210480E+02  0.12066904844E+02 -0.13590373632E+02  0.23683948926E+02  0.00000000000E+00 0.  1.
</event>
<event>
 7    1  0.3708346E-009  0.4614232E+02  0.7816164E-02  0.1320468E+00
        -11   -1    0    0    0    0  0.00000000000E+00  0.00000000000E+00  0.45593999997E+02  0.45594000000E+02  0.51100000000E-03 0. -1.
         11   -1    0    0    0    0 -0.00000000000E+00 -0.00000000000E+00 -0.45593999997E+02  0.45594000000E+02  0.51100000000E-03 0.  1.
    9900012    2    1    2    0    0  0.34317788267E+02 -0.14543471923E+02  0.25296055205E+02  0.46142316788E+02  0.99999911302E+01 0.  0.
        -12    1    1    2    0    0 -0.34317788267E+02  0.14543471923E+02 -0.25296055205E+02  0.45045683212E+02  0.00000000000E+00 0.  1.
         11    1    3    3    0    0  0.25920309360E+02 -0.98562655727E+01  0.20208698255E+02  0.34313261194E+02  0.51100000000E-03 0. -1.
        -11    1    3    3    0    0  0.12429235118E+00 -0.10849530505E+01  0.20240404177E+01  0.22998503394E+01  0.51100000000E-03 0.  1.
         12    1    3    3    0    0  0.82731865555E+01 -0.36022532996E+01  0.30633165325E+01  0.95292052551E+01  0.00000000000E+00 0. -1.
</event>
<event>
 7    1  0.3708346E-009  0.4614232E+02  0.7816164E-02  0.1320468E+00
        -11   -1    0    0    0    0  0.00000000000E+00  0.00000000000E+00  0.45593999997E+02  0.45594000000E+02  0.51100000000E-03 0.  1.
         11   -1    0    0    0    0 -0.00000000000E+00 -0.00000000000E+00 -0.45593999997E+02  0.45594000000E+02  0.51100000000E-03 0. -1.
    9900012    2    1    2    0    0  0.10483965116E+02 -0.41020698993E+02 -0.15378627779E+02  0.46142318045E+02  0.10000002589E+02 0.  0.
        -12    1    1    2    0    0 -0.10483965116E+02  0.41020698993E+02  0.15378627779E+02  0.45045681955E+02  0.00000000000E+00 0.  1.
         11    1    3    3    0    0  0.48475633767E+01 -0.26258937211E+02 -0.86028139222E+01  0.28054216471E+02  0.51100000000E-03 0. -1.
        -11    1    3    3    0    0  0.62504282585E+01 -0.93635544569E+01 -0.53861847117E+01  0.12480183953E+02  0.51100000000E-03 0.  1.
        -12    1    3    3    0    0 -0.61402651890E+00 -0.53982073249E+01 -0.13896291446E+01  0.56079176214E+01  0.00000000000E+00 0.  1.
</event>
<event>
 7    1  0.3708346E-009  0.4614232E+02  0.7816164E-02  0.1320468E+00
        -11   -1    0    0    0    0  0.00000000000E+00  0.00000000000E+00  0.45593999997E+02  0.45594000000E+02  0.51100000000E-03 0.  1.
         11   -1    0    0    0    0 -0.00000000000E+00 -0.00000000000E+00 -0.45593999997E+02  0.45594000000E+02  0.51100000000E-03 0. -1.
    9900012    2    1    2    0    0  0.21723919341E+02  0.31224833404E+02 -0.24128708817E+02  0.46142317834E+02  0.10000000662E+02 0.  0.
        -12    1    1    2    0    0 -0.21723919341E+02 -0.31224833404E+02  0.24128708817E+02  0.45045682166E+02  0.00000000000E+00 0.  1.
         11    1    3    3    0    0 -0.78011588363E+00  0.44327239532E+00 -0.41636930237E+00  0.98915866544E+00  0.51100000000E-03 0. -1.
        -11    1    3    3    0    0  0.69541218672E+01  0.61345424395E+01 -0.61711043540E+01  0.11138893621E+02  0.51100000000E-03 0.  1.
         12    1    3    3    0    0  0.15549913358E+02  0.24647018569E+02 -0.17541235161E+02  0.34014265548E+02  0.00000000000E+00 0. -1.
</event>
<event>
 7    1  0.3708346E-009  0.4614232E+02  0.7816164E-02  0.1320468E+00
        -11   -1    0    0    0    0  0.00000000000E+00  0.00000000000E+00  0.45593999997E+02  0.45594000000E+02  0.51100000000E-03 0. -1.
         11   -1    0    0    0    0 -0.00000000000E+00 -0.00000000000E+00 -0.45593999997E+02  0.45594000000E+02  0.51100000000E-03 0.  1.
    9900012    2    1    2    0    0 -0.31491647181E+01  0.44785424703E+02 -0.36690402404E+01  0.46142319180E+02  0.10000012938E+02 0.  0.
        -12    1    1    2    0    0  0.31491647181E+01 -0.44785424703E+02  0.36690402404E+01  0.45045680820E+02  0.00000000000E+00 0.  1.
         11    1    3    3    0    0 -0.94026509240E+00  0.26529252163E+02 -0.35350598704E+01  0.26780253310E+02  0.51100000000E-03 0. -1.
        -11    1    3    3    0    0 -0.41311724855E+01  0.15106483260E+02 -0.35874825658E+00  0.15665284012E+02  0.51100000000E-03 0.  1.
        -12    1    3    3    0    0  0.19222728598E+01  0.31496892797E+01  0.22476788656E+00  0.36967818585E+01  0.00000000000E+00 0.  1.
</event>
<event>
 7    1  0.3708346E-009  0.4614232E+02  0.7816164E-02  0.1320468E+00
        -11   -1    0    0    0    0  0.00000000000E+00  0.00000000000E+00  0.45593999997E+02  0.45594000000E+02  0.51100000000E-03 0. -1.
         11   -1    0    0    0    0 -0.00000000000E+00 -0.00000000000E+00 -0.45593999997E+02  0.45594000000E+02  0.51100000000E-03 0.  1.
    9900012    2    1    2    0    0  0.76583862989E+01 -0.40431045994E+02  0.18324660741E+02  0.46142317053E+02  0.99999935463E+01 0.  0.
        -12    1    1    2    0    0 -0.76583862989E+01  0.40431045994E+02 -0.18324660741E+02  0.45045682947E+02  0.00000000000E+00 0.  1.
         11    1    3    3    0    0  0.20455890358E+01 -0.77852136490E+01  0.32082239208E+01  0.86652574717E+01  0.51100000000E-03 0. -1.
        -11    1    3    3    0    0  0.75675344698E+01 -0.19268093014E+02  0.79467053017E+01  0.22173793355E+02  0.51100000000E-03 0.  1.
        -12    1    3    3    0    0 -0.19547372067E+01 -0.13377739331E+02  0.71697315182E+01  0.15303266227E+02  0.00000000000E+00 0.  1.
</event>
<event>
 7    1  0.3708346E-009  0.4614232E+02  0.7816164E-02  0.1320468E+00
        -11   -1    0    0    0    0  0.00000000000E+00  0.00000000000E+00  0.45593999997E+02  0.45594000000E+02  0.51100000000E-03 0.  1.
         11   -1    0    0    0    0 -0.00000000000E+00 -0.00000000000E+00 -0.45593999997E+02  0.45594000000E+02  0.51100000000E-03 0. -1.
    9900012    2    1    2    0    0  0.28053486901E+02 -0.36266916840E+01 -0.35056560601E+02  0.46142318064E+02  0.10000002766E+02 0.  0.
        -12    1    1    2    0    0 -0.28053486901E+02  0.36266916840E+01  0.35056560601E+02  0.45045681936E+02  0.00000000000E+00 0.  1.
         11    1    3    3    0    0  0.15085056474E+01 -0.24436512855E+01 -0.28328154146E+01  0.40338398986E+01  0.51100000000E-03 0. -1.
        -11    1    3    3    0    0  0.93273687685E+01  0.21273913273E+01 -0.11817862213E+02  0.15204850198E+02  0.51100000000E-03 0.  1.
         12    1    3    3    0    0  0.17217612485E+02 -0.33104317258E+01 -0.20405882974E+02  0.26903627968E+02  0.00000000000E+00 0. -1.
</event>
<event>
 7    1  0.3708346E-009  0.4614232E+02  0.7816164E-02  0.1320468E+00
        -11   -1    0    0    0    0  0.00000000000E+00  0.00000000000E+00  0.45593999997E+02  0.45594000000E+02  0.51100000000E-03 0.  1.
         11   -1    0    0    0    0 -0.00000000000E+00 -0.00000000000E+00 -0.45593999997E+02  0.45594000000E+02  0.51100000000E-03 0. -1.
    9900012    2    1    2    0    0  0.25265969601E+02 -0.99870091820E+01 -0.35930543771E+02  0.46142317100E+02  0.99999939701E+01 0.  0.
        -12    1    1    2    0    0 -0.25265969601E+02  0.99870091820E+01  0.35930543771E+02  0.45045682900E+02  0.00000000000E+00 0.  1.
         11    1    3    3    0    0  0.24563567445E+02 -0.11181149237E+02 -0.35525566883E+02  0.44614491441E+02  0.51100000000E-03 0. -1.
        -11    1    3    3    0    0  0.60932785611E+00  0.74368389936E+00 -0.80236635312E-01  0.96477166063E+00  0.51100000000E-03 0.  1.
         12    1    3    3    0    0  0.93074300093E-01  0.45045615595E+00 -0.32474025215E+00  0.56305399842E+00  0.00000000000E+00 0. -1.
</event>
<event>
 7    1  0.3708346E-009  0.4614232E+02  0.7816164E-02  0.1320468E+00
        -11   -1    0    0    0    0  0.00000000000E+00  0.00000000000E+00  0.45593999997E+02  0.45594000000E+02  0.51100000000E-03 0.  1.
         11   -1    0    0    0    0 -0.00000000000E+00 -0.00000000000E+00 -0.45593999997E+02  0.45594000000E+02  0.51100000000E-03 0. -1.
    9900012    2    1    2    0    0 -0.21157217142E+02  0.36891156264E+02 -0.14850192801E+02  0.46142317921E+02  0.10000001461E+02 0.  0.
        -12    1    1    2    0    0  0.21157217142E+02 -0.36891156264E+02  0.14850192801E+02  0.45045682079E+02  0.00000000000E+00 0.  1.
         11    1    3    3    0    0 -0.55915595274E+01  0.92537180076E+01 -0.69703853260E+01  0.12864023739E+02  0.51100000000E-03 0. -1.
        -11    1    3    3    0    0 -0.11289483166E+00  0.40150251850E+01 -0.18086076753E+01  0.44050237756E+01  0.51100000000E-03 0.  1.
         12    1    3    3    0    0 -0.15452762783E+02  0.23622413072E+02 -0.60711997992E+01  0.28873270406E+02  0.00000000000E+00 0. -1.
</event>
<event>
 7    1  0.3708346E-009  0.4614232E+02  0.7816164E-02  0.1320468E+00
        -11   -1    0    0    0    0  0.00000000000E+00  0.00000000000E+00  0.45593999997E+02  0.45594000000E+02  0.51100000000E-03 0. -1.
         11   -1    0    0    0    0 -0.00000000000E+00 -0.00000000000E+00 -0.45593999997E+02  0.45594000000E+02  0.51100000000E-03 0.  1.
    9900012    2    1    2    0    0  0.16176280052E+02  0.41603929189E+02 -0.60460509030E+01  0.46142315503E+02  0.99999794059E+01 0.  0.
        -12    1    1    2    0    0 -0.16176280052E+02 -0.41603929189E+02  0.60460509030E+01  0.45045684497E+02  0.00000000000E+00 0.  1.
         11    1    3    3    0    0  0.82175211591E+01  0.14814174465E+02 -0.65097169111E+01  0.18148383774E+02  0.51100000000E-03 0. -1.
        -11    1    3    3    0    0  0.12159300061E+01  0.62733031036E+01  0.30353834219E+00  0.63972613981E+01  0.51100000000E-03 0.  1.
         12    1    3    3    0    0  0.67428288865E+01  0.20516451621E+02  0.16012766594E+00  0.21596670331E+02  0.00000000000E+00 0. -1.
</event>
<event>
 7    1  0.3708346E-009  0.4614232E+02  0.7816164E-02  0.1320468E+00
        -11   -1    0    0    0    0  0.00000000000E+00  0.00000000000E+00  0.45593999997E+02  0.45594000000E+02  0.51100000000E-03 0. -1.
         11   -1    0    0    0    0 -0.00000000000E+00 -0.00000000000E+00 -0.45593999997E+02  0.45594000000E+02  0.51100000000E-03 0.  1.
    9900012    2    1    2    0    0 -0.44081422844E+02 -0.27569495618E+01  0.88510409546E+01  0.46142317224E+02  0.99999950997E+01 0.  0.
        -12    1    1    2    0    0  0.44081422844E+02  0.27569495618E+01 -0.88510409546E+01  0.45045682776E+02  0.00000000000E+00 0.  1.
         11    1    3    3    0    0 -0.21069812572E+02 -0.25041378217E+01  0.72126096148E+01  0.22410476250E+02  0.51100000000E-03 0. -1.
        -11    1    3    3    0    0 -0.76216622210E+01 -0.24911988281E+01 -0.49793936156E+00  0.80339125264E+01  0.51100000000E-03 0.  1.
        -12    1    3    3    0    0 -0.15389948051E+02  0.22383870880E+01  0.21363707014E+01  0.15697928447E+02  0.00000000000E+00 0.  1.
</event>
<event>
 7    1  0.3708346E-009  0.4614232E+02  0.7816164E-02  0.1320468E+00
        -11   -1    0    0    0    0  0.00000000000E+00  0.00000000000E+00  0.45593999997E+02  0.45594000000E+02  0.51100000000E-03 0.  1.
         11   -1    0    0    0    0 -0.00000000000E+00 -0.00000000000E+00 -0.45593999997E+02  0.45594000000E+02  0.51100000000E-03 0. -1.
    9900012    2    1    2    0    0  0.75218073148E+00 -0.45016861127E+02 -0.14247493525E+01  0.46142317940E+02  0.10000001627E+02 0.  0.
        -12    1    1    2    0    0 -0.75218073148E+00  0.45016861127E+02  0.14247493525E+01  0.45045682060E+02  0.00000000000E+00 0.  1.
         11    1    3    3    0    0  0.19104067005E+00 -0.20487367423E+02 -0.45837604882E+01  0.20994751271E+02  0.51100000000E-03 0. -1.
        -11    1    3    3    0    0 -0.63507735767E+00 -0.19476442126E+02  0.39835693592E+01  0.19889795028E+02  0.51100000000E-03 0.  1.
         12    1    3    3    0    0  0.11962174191E+01 -0.50530515777E+01 -0.82455822350E+00  0.52577716406E+01  0.00000000000E+00 0. -1.
</event>
<event>
 7    1  0.3708346E-009  0.4614232E+02  0.7816164E-02  0.1320468E+00
        -11   -1    0    0    0    0  0.00000000000E+00  0.00000000000E+00  0.45593999997E+02  0.45594000000E+02  0.51100000000E-03 0. -1.
         11   -1    0    0    0    0 -0.00000000000E+00 -0.00000000000E+00 -0.45593999997E+02  0.45594000000E+02  0.51100000000E-03 0.  1.
    9900012    2    1    2    0    0  0.44095749947E+02  0.28989693262E+01  0.87335218332E+01  0.46142316631E+02  0.99999896966E+01 0.  0.
        -12    1    1    2    0    0 -0.44095749947E+02 -0.28989693262E+01 -0.87335218332E+01  0.45045683369E+02  0.00000000000E+00 0.  1.
         11    1    3    3    0    0  0.15952621312E+02 -0.64728023660E+00 -0.55418300073E+00  0.15975362828E+02  0.51100000000E-03 0.  1.
        -11    1    3    3    0    0  0.47491435171E+00 -0.42169928013E+00 -0.17252082285E+00  0.65813191668E+00  0.51100000000E-03 0. -1.
         12    1    3    3    0    0  0.27668214284E+02  0.39679488429E+01  0.94602256567E+01  0.29508821887E+02  0.00000000000E+00 0. -1.
</event>
<event>
 7    1  0.3708346E-009  0.4614232E+02  0.7816164E-02  0.1320468E+00
        -11   -1    0    0    0    0  0.00000000000E+00  0.00000000000E+00  0.45593999997E+02  0.45594000000E+02  0.51100000000E-03 0.  1.
         11   -1    0    0    0    0 -0.00000000000E+00 -0.00000000000E+00 -0.45593999997E+02  0.45594000000E+02  0.51100000000E-03 0. -1.
    9900012    2    1    2    0    0 -0.16921823418E+02 -0.34948975918E+01 -0.41599889561E+02  0.46142320646E+02  0.10000026307E+02 0.  0.
        -12    1    1    2    0    0  0.16921823418E+02  0.34948975918E+01  0.41599889561E+02  0.45045679354E+02  0.00000000000E+00 0.  1.
         11    1    3    3    0    0 -0.48278779140E+01 -0.42021227761E+01 -0.95241110393E+01  0.11474969818E+02  0.51100000000E-03 0.  1.
        -11    1    3    3    0    0 -0.99477990141E+01  0.14237259326E+01 -0.20014289678E+02  0.22395479283E+02  0.51100000000E-03 0. -1.
         12    1    3    3    0    0 -0.21461464900E+01 -0.71650074826E+00 -0.12061488844E+02  0.12271871545E+02  0.00000000000E+00 0. -1.
</event>
<event>
 7    1  0.3708346E-009  0.4614232E+02  0.7816164E-02  0.1320468E+00
        -11   -1    0    0    0    0  0.00000000000E+00  0.00000000000E+00  0.45593999997E+02  0.45594000000E+02  0.51100000000E-03 0.  1.
         11   -1    0    0    0    0 -0.00000000000E+00 -0.00000000000E+00 -0.45593999997E+02  0.45594000000E+02  0.51100000000E-03 0. -1.
    9900012    2    1    2    0    0 -0.16394327906E+02 -0.21681858468E+01 -0.41900341169E+02  0.46142316439E+02  0.99999879444E+01 0.  0.
        -12    1    1    2    0    0  0.16394327906E+02  0.21681858468E+01  0.41900341169E+02  0.45045683561E+02  0.00000000000E+00 0.  1.
         11    1    3    3    0    0 -0.15436744577E+02 -0.11979774458E+01 -0.39824003987E+02  0.42727971248E+02  0.51100000000E-03 0. -1.
        -11    1    3    3    0    0  0.65216352208E-02  0.42099055564E+00 -0.16021723573E+01  0.16565723960E+01  0.51100000000E-03 0.  1.
         12    1    3    3    0    0 -0.96410496411E+00 -0.13911989566E+01 -0.47416482470E+00  0.17577727952E+01  0.00000000000E+00 0. -1.
</event>
<event>
 7    1  0.3708346E-009  0.4614232E+02  0.7816164E-02  0.1320468E+00
        -11   -1    0    0    0    0  0.00000000000E+00  0.00000000000E+00  0.45593999997E+02  0.45594000000E+02  0.51100000000E-03 0. -1.
         11   -1    0    0    0    0 -0.00000000000E+00 -0.00000000000E+00 -0.45593999997E+02  0.45594000000E+02  0.51100000000E-03 0.  1.
    9900012    2    1    2    0    0  0.39180666030E+02 -0.20178029994E+02 -0.93185630066E+01  0.46142322055E+02  0.10000039154E+02 0.  0.
        -12    1    1    2    0    0 -0.39180666030E+02  0.20178029994E+02  0.93185630066E+01  0.45045677945E+02  0.00000000000E+00 0.  1.
         11    1    3    3    0    0  0.96166483778E+01 -0.61319654223E+01  0.16559011534E+01  0.11524883290E+02  0.51100000000E-03 0. -1.
        -11    1    3    3    0    0  0.12401126319E+02 -0.71012645857E+01 -0.40899636324E+01  0.14864174901E+02  0.51100000000E-03 0.  1.
        -12    1    3    3    0    0  0.17162891333E+02 -0.69447999861E+01 -0.68845005276E+01  0.19753263864E+02  0.00000000000E+00 0.  1.
</event>
<event>
 7    1  0.3708346E-009  0.4614233E+02  0.7816164E-02  0.1320468E+00
        -11   -1    0    0    0    0  0.00000000000E+00  0.00000000000E+00  0.45593999997E+02  0.45594000000E+02  0.51100000000E-03 0.  1.
         11   -1    0    0    0    0 -0.00000000000E+00 -0.00000000000E+00 -0.45593999997E+02  0.45594000000E+02  0.51100000000E-03 0. -1.
    9900012    2    1    2    0    0 -0.33286522531E+02  0.29556535539E+02  0.68942945505E+01  0.46142326815E+02  0.10000082561E+02 0.  0.
        -12    1    1    2    0    0  0.33286522531E+02 -0.29556535539E+02 -0.68942945505E+01  0.45045673185E+02  0.00000000000E+00 0.  1.
         11    1    3    3    0    0 -0.84929024563E+01  0.78042797096E+01  0.30671861368E+01  0.11934982404E+02  0.51100000000E-03 0. -1.
        -11    1    3    3    0    0 -0.19433457851E+02  0.11986286048E+02  0.20252742739E+01  0.22922305151E+02  0.51100000000E-03 0.  1.
        -12    1    3    3    0    0 -0.53601622239E+01  0.97659697816E+01  0.18018341398E+01  0.11285039260E+02  0.00000000000E+00 0.  1.
</event>
<event>
 7    1  0.3708346E-009  0.4614232E+02  0.7816164E-02  0.1320468E+00
        -11   -1    0    0    0    0  0.00000000000E+00  0.00000000000E+00  0.45593999997E+02  0.45594000000E+02  0.51100000000E-03 0. -1.
         11   -1    0    0    0    0 -0.00000000000E+00 -0.00000000000E+00 -0.45593999997E+02  0.45594000000E+02  0.51100000000E-03 0.  1.
    9900012    2    1    2    0    0  0.31121220934E+02  0.30559840310E+02  0.11255190196E+02  0.46142317204E+02  0.99999949227E+01 0.  0.
        -12    1    1    2    0    0 -0.31121220934E+02 -0.30559840310E+02 -0.11255190196E+02  0.45045682796E+02  0.00000000000E+00 0.  1.
         11    1    3    3    0    0  0.13274922703E+02  0.17597511305E+02  0.56466578046E+01  0.22754795572E+02  0.51100000000E-03 0. -1.
        -11    1    3    3    0    0  0.41093802448E+01  0.73373874036E+00  0.20677921848E+01  0.46584485955E+01  0.51100000000E-03 0.  1.
        -12    1    3    3    0    0  0.13736917986E+02  0.12228590264E+02  0.35407402069E+01  0.18729073037E+02  0.00000000000E+00 0.  1.
</event>
<event>
 7    1  0.3708346E-009  0.4614231E+02  0.7816164E-02  0.1320468E+00
        -11   -1    0    0    0    0  0.00000000000E+00  0.00000000000E+00  0.45593999997E+02  0.45594000000E+02  0.51100000000E-03 0. -1.
         11   -1    0    0    0    0 -0.00000000000E+00 -0.00000000000E+00 -0.45593999997E+02  0.45594000000E+02  0.51100000000E-03 0.  1.
    9900012    2    1    2    0    0 -0.29868790054E+02 -0.30913818535E+02 -0.13464955503E+02  0.46142314053E+02  0.99999661847E+01 0.  0.
        -12    1    1    2    0    0  0.29868790054E+02  0.30913818535E+02  0.13464955503E+02  0.45045685947E+02  0.00000000000E+00 0.  1.
         11    1    3    3    0    0 -0.68748620980E+01 -0.11953056967E+02 -0.35564310845E+01  0.14240347680E+02  0.51100000000E-03 0. -1.
        -11    1    3    3    0    0 -0.56082247235E+01 -0.73910536284E+01 -0.45931504913E+01  0.10352627202E+02  0.51100000000E-03 0.  1.
        -12    1    3    3    0    0 -0.17385703233E+02 -0.11569707940E+02 -0.53153739277E+01  0.21549339171E+02  0.00000000000E+00 0.  1.
</event>
<event>
 7    1  0.3708346E-009  0.4614232E+02  0.7816164E-02  0.1320468E+00
        -11   -1    0    0    0    0  0.00000000000E+00  0.00000000000E+00  0.45593999997E+02  0.45594000000E+02  0.51100000000E-03 0. -1.
         11   -1    0    0    0    0 -0.00000000000E+00 -0.00000000000E+00 -0.45593999997E+02  0.45594000000E+02  0.51100000000E-03 0.  1.
    9900012    2    1    2    0    0 -0.32432006447E+02 -0.29130335696E+02 -0.11344687121E+02  0.46142318456E+02  0.10000006333E+02 0.  0.
        -12    1    1    2    0    0  0.32432006447E+02  0.29130335696E+02  0.11344687121E+02  0.45045681544E+02  0.00000000000E+00 0.  1.
         11    1    3    3    0    0 -0.16582832950E+02 -0.18196262403E+02 -0.92908879511E+01  0.26313778012E+02  0.51100000000E-03 0. -1.
        -11    1    3    3    0    0 -0.52622467354E+01 -0.15679244226E+01 -0.14557071152E+01  0.56805555332E+01  0.51100000000E-03 0.  1.
         12    1    3    3    0    0 -0.10586926762E+02 -0.93661488698E+01 -0.59809205466E+00  0.14147984910E+02  0.00000000000E+00 0. -1.
</event>
<event>
 7    1  0.3708346E-009  0.4614232E+02  0.7816164E-02  0.1320468E+00
        -11   -1    0    0    0    0  0.00000000000E+00  0.00000000000E+00  0.45593999997E+02  0.45594000000E+02  0.51100000000E-03 0. -1.
         11   -1    0    0    0    0 -0.00000000000E+00 -0.00000000000E+00 -0.45593999997E+02  0.45594000000E+02  0.51100000000E-03 0.  1.
    9900012    2    1    2    0    0 -0.81854738493E+01 -0.43857171407E+02  0.62177187292E+01  0.46142317719E+02  0.99999996200E+01 0.  0.
        -12    1    1    2    0    0  0.81854738493E+01  0.43857171407E+02 -0.62177187292E+01  0.45045682281E+02  0.00000000000E+00 0.  1.
         11    1    3    3    0    0 -0.48534374118E+01 -0.89756598541E+01  0.29427793115E+01  0.10619711619E+02  0.51100000000E-03 0. -1.
        -11    1    3    3    0    0 -0.78082732946E+00 -0.94645795883E+01  0.30583230776E+01  0.99770385592E+01  0.51100000000E-03 0.  1.
         12    1    3    3    0    0 -0.25512091080E+01 -0.25416931964E+02  0.21661634012E+00  0.25545567542E+02  0.00000000000E+00 0. -1.
</event>
<event>
 7    1  0.3708346E-009  0.4614232E+02  0.7816164E-02  0.1320468E+00
        -11   -1    0    0    0    0  0.00000000000E+00  0.00000000000E+00  0.45593999997E+02  0.45594000000E+02  0.51100000000E-03 0.  1.
         11   -1    0    0    0    0 -0.00000000000E+00 -0.00000000000E+00 -0.45593999997E+02  0.45594000000E+02  0.51100000000E-03 0. -1.
    9900012    2    1    2    0    0  0.10699262585E+02  0.30999375068E+02 -0.30881677064E+02  0.46142318157E+02  0.10000003606E+02 0.  0.
        -12    1    1    2    0    0 -0.10699262585E+02 -0.30999375068E+02  0.30881677064E+02  0.45045681843E+02  0.00000000000E+00 0.  1.
         11    1    3    3    0    0  0.84843635951E+01  0.26745721955E+02 -0.27574702888E+02  0.39340593642E+02  0.51100000000E-03 0. -1.
        -11    1    3    3    0    0  0.45566815974E+00 -0.56537961299E+00 -0.83666289222E+00  0.11078324038E+01  0.51100000000E-03 0.  1.
         12    1    3    3    0    0  0.17592308305E+01  0.48190327259E+01 -0.24703112839E+01  0.56938921107E+01  0.00000000000E+00 0. -1.
</event>
<event>
 7    1  0.3708346E-009  0.4614232E+02  0.7816164E-02  0.1320468E+00
        -11   -1    0    0    0    0  0.00000000000E+00  0.00000000000E+00  0.45593999997E+02  0.45594000000E+02  0.51100000000E-03 0.  1.
         11   -1    0    0    0    0 -0.00000000000E+00 -0.00000000000E+00 -0.45593999997E+02  0.45594000000E+02  0.51100000000E-03 0. -1.
    9900012    2    1    2    0    0 -0.34542137827E+02 -0.26677312991E+02  0.11147873456E+02  0.46142318779E+02  0.10000009278E+02 0.  0.
        -12    1    1    2    0    0  0.34542137827E+02  0.26677312991E+02 -0.11147873456E+02  0.45045681221E+02  0.00000000000E+00 0.  1.
         11    1    3    3    0    0 -0.14359898540E+02 -0.13237490834E+02  0.52348936639E+01  0.20219840790E+02  0.51100000000E-03 0. -1.
        -11    1    3    3    0    0 -0.44158195233E+01 -0.44634665199E-01  0.20824425079E+01  0.48824196231E+01  0.51100000000E-03 0.  1.
         12    1    3    3    0    0 -0.15766419764E+02 -0.13395187492E+02  0.38305372839E+01  0.21040058365E+02  0.00000000000E+00 0. -1.
</event>
<event>
 7    1  0.3708346E-009  0.4614232E+02  0.7816164E-02  0.1320468E+00
        -11   -1    0    0    0    0  0.00000000000E+00  0.00000000000E+00  0.45593999997E+02  0.45594000000E+02  0.51100000000E-03 0. -1.
         11   -1    0    0    0    0 -0.00000000000E+00 -0.00000000000E+00 -0.45593999997E+02  0.45594000000E+02  0.51100000000E-03 0.  1.
    9900012    2    1    2    0    0  0.16612639324E+01 -0.41321310066E+02  0.17857856623E+02  0.46142317559E+02  0.99999981590E+01 0.  0.
        -12    1    1    2    0    0 -0.16612639324E+01  0.41321310066E+02 -0.17857856623E+02  0.45045682441E+02  0.00000000000E+00 0.  1.
         11    1    3    3    0    0  0.49314558764E+00 -0.21223255665E+02  0.95273666951E+01  0.23268873844E+02  0.51100000000E-03 0. -1.
        -11    1    3    3    0    0  0.30877663708E+01 -0.96871185327E+01  0.66640523826E+01  0.12156650898E+02  0.51100000000E-03 0.  1.
        -12    1    3    3    0    0 -0.19196480260E+01 -0.10410935868E+02  0.16664375451E+01  0.10716792817E+02  0.00000000000E+00 0.  1.
</event>
<event>
 7    1  0.3708346E-009  0.4614232E+02  0.7816164E-02  0.1320468E+00
        -11   -1    0    0    0    0  0.00000000000E+00  0.00000000000E+00  0.45593999997E+02  0.45594000000E+02  0.51100000000E-03 0.  1.
         11   -1    0    0    0    0 -0.00000000000E+00 -0.00000000000E+00 -0.45593999997E+02  0.45594000000E+02  0.51100000000E-03 0. -1.
    9900012    2    1    2    0    0  0.34652342181E+02  0.20905171576E+02 -0.19781366801E+02  0.46142317746E+02  0.99999998582E+01 0.  0.
        -12    1    1    2    0    0 -0.34652342181E+02 -0.20905171576E+02  0.19781366801E+02  0.45045682254E+02  0.00000000000E+00 0.  1.
         11    1    3    3    0    0  0.14031987722E+02  0.83286387999E+01 -0.43291980237E+01  0.16882086941E+02  0.51100000000E-03 0. -1.
        -11    1    3    3    0    0 -0.32947636245E+00  0.67267486849E+00 -0.39296965304E+00  0.84585552043E+00  0.51100000000E-03 0.  1.
        -12    1    3    3    0    0  0.20949830822E+02  0.11903857908E+02 -0.15059199124E+02  0.28414375284E+02  0.00000000000E+00 0.  1.
</event>
<event>
 7    1  0.3708346E-009  0.4614233E+02  0.7816164E-02  0.1320468E+00
        -11   -1    0    0    0    0  0.00000000000E+00  0.00000000000E+00  0.45593999997E+02  0.45594000000E+02  0.51100000000E-03 0.  1.
         11   -1    0    0    0    0 -0.00000000000E+00 -0.00000000000E+00 -0.45593999997E+02  0.45594000000E+02  0.51100000000E-03 0. -1.
    9900012    2    1    2    0    0  0.21840304719E+02  0.67889143927E+00 -0.39391025108E+02  0.46142326924E+02  0.10000083552E+02 0.  0.
        -12    1    1    2    0    0 -0.21840304719E+02 -0.67889143927E+00  0.39391025108E+02  0.45045673076E+02  0.00000000000E+00 0.  1.
         11    1    3    3    0    0  0.60068156578E+01  0.21070676898E+01 -0.13144843551E+02  0.14605084075E+02  0.51100000000E-03 0. -1.
        -11    1    3    3    0    0  0.14376585767E+02  0.10916445400E+01 -0.23267827391E+02  0.27372791197E+02  0.51100000000E-03 0.  1.
         12    1    3    3    0    0  0.14569032940E+01 -0.25198207905E+01 -0.29783541656E+01  0.41644516518E+01  0.00000000000E+00 0. -1.
</event>
<event>
 7    1  0.3708346E-009  0.4614232E+02  0.7816164E-02  0.1320468E+00
        -11   -1    0    0    0    0  0.00000000000E+00  0.00000000000E+00  0.45593999997E+02  0.45594000000E+02  0.51100000000E-03 0.  1.
         11   -1    0    0    0    0 -0.00000000000E+00 -0.00000000000E+00 -0.45593999997E+02  0.45594000000E+02  0.51100000000E-03 0. -1.
    9900012    2    1    2    0    0  0.37442205131E+02 -0.21010791103E+02 -0.13628696693E+02  0.46142318283E+02  0.10000004756E+02 0.  0.
        -12    1    1    2    0    0 -0.37442205131E+02  0.21010791103E+02  0.13628696693E+02  0.45045681717E+02  0.00000000000E+00 0.  1.
         11    1    3    3    0    0  0.14699641916E+02 -0.62465378924E+01 -0.57627481938E+01  0.16979634128E+02  0.51100000000E-03 0. -1.
        -11    1    3    3    0    0  0.11303325467E+02 -0.85838239108E+01 -0.77261840066E+01  0.16159861358E+02  0.51100000000E-03 0.  1.
         12    1    3    3    0    0  0.11439237748E+02 -0.61804293002E+01 -0.13976449257E+00  0.13002822797E+02  0.00000000000E+00 0. -1.
</event>
<event>
 7    1  0.3708346E-009  0.4614231E+02  0.7816164E-02  0.1320468E+00
        -11   -1    0    0    0    0  0.00000000000E+00  0.00000000000E+00  0.45593999997E+02  0.45594000000E+02  0.51100000000E-03 0. -1.
         11   -1    0    0    0    0 -0.00000000000E+00 -0.00000000000E+00 -0.45593999997E+02  0.45594000000E+02  0.51100000000E-03 0.  1.
    9900012    2    1    2    0    0  0.44456389175E+02  0.67299572186E+01 -0.27296920854E+01  0.46142311177E+02  0.99999399601E+01 0.  0.
        -12    1    1    2    0    0 -0.44456389175E+02 -0.67299572186E+01  0.27296920854E+01  0.45045688823E+02  0.00000000000E+00 0.  1.
         11    1    3    3    0    0  0.12793650736E+02  0.10407669840E+01  0.14858106860E+01  0.12921622526E+02  0.51100000000E-03 0.  1.
        -11    1    3    3    0    0  0.26094307658E+02  0.46992272020E+01 -0.62486788677E+00  0.26521426971E+02  0.51100000000E-03 0. -1.
         12    1    3    3    0    0  0.55684307817E+01  0.98996303259E+00 -0.35906348846E+01  0.66992616796E+01  0.00000000000E+00 0. -1.
</event>
<event>
 7    1  0.3708346E-009  0.4614232E+02  0.7816164E-02  0.1320468E+00
        -11   -1    0    0    0    0  0.00000000000E+00  0.00000000000E+00  0.45593999997E+02  0.45594000000E+02  0.51100000000E-03 0. -1.
         11   -1    0    0    0    0 -0.00000000000E+00 -0.00000000000E+00 -0.45593999997E+02  0.45594000000E+02  0.51100000000E-03 0.  1.
    9900012    2    1    2    0    0  0.16448510348E+02 -0.34207799639E+02  0.24256677006E+02  0.46142318429E+02  0.10000006092E+02 0.  0.
        -12    1    1    2    0    0 -0.16448510348E+02  0.34207799639E+02 -0.24256677006E+02  0.45045681571E+02  0.00000000000E+00 0.  1.
         11    1    3    3    0    0  0.52906990053E+01 -0.18559983251E+02  0.12255360496E+02  0.22861722056E+02  0.51100000000E-03 0. -1.
        -11    1    3    3    0    0  0.74012422556E+01 -0.78830528659E+01  0.92414046793E+01  0.14224080642E+02  0.51100000000E-03 0.  1.
        -12    1    3    3    0    0  0.37565690868E+01 -0.77647635227E+01  0.27599118305E+01  0.90565157307E+01  0.00000000000E+00 0.  1.
</event>
<event>
 7    1  0.3708346E-009  0.4614232E+02  0.7816164E-02  0.1320468E+00
        -11   -1    0    0    0    0  0.00000000000E+00  0.00000000000E+00  0.45593999997E+02  0.45594000000E+02  0.51100000000E-03 0.  1.
         11   -1    0    0    0    0 -0.00000000000E+00 -0.00000000000E+00 -0.45593999997E+02  0.45594000000E+02  0.51100000000E-03 0. -1.
    9900012    2    1    2    0    0 -0.39447902627E+02 -0.13498369585E+02 -0.17051991248E+02  0.46142318646E+02  0.10000008071E+02 0.  0.
        -12    1    1    2    0    0  0.39447902627E+02  0.13498369585E+02  0.17051991248E+02  0.45045681354E+02  0.00000000000E+00 0.  1.
         11    1    3    3    0    0  0.72190922266E-02 -0.96134781374E+00 -0.61037755507E+00  0.11387724773E+01  0.51100000000E-03 0.  1.
        -11    1    3    3    0    0 -0.21093133662E+02 -0.10035956568E+02 -0.89422351373E+01  0.25012082709E+02  0.51100000000E-03 0. -1.
         12    1    3    3    0    0 -0.18361988057E+02 -0.25010652034E+01 -0.74993785552E+01  0.19991463460E+02  0.00000000000E+00 0. -1.
</event>
<event>
 7    1  0.3708346E-009  0.4614232E+02  0.7816164E-02  0.1320468E+00
        -11   -1    0    0    0    0  0.00000000000E+00  0.00000000000E+00  0.45593999997E+02  0.45594000000E+02  0.51100000000E-03 0. -1.
         11   -1    0    0    0    0 -0.00000000000E+00 -0.00000000000E+00 -0.45593999997E+02  0.45594000000E+02  0.51100000000E-03 0.  1.
    9900012    2    1    2    0    0  0.44332171525E+02 -0.77920421401E+01 -0.17481711450E+01  0.46142318130E+02  0.10000003362E+02 0.  0.
        -12    1    1    2    0    0 -0.44332171525E+02  0.77920421401E+01  0.17481711450E+01  0.45045681870E+02  0.00000000000E+00 0.  1.
         11    1    3    3    0    0  0.24077138639E+02 -0.27724909724E+01  0.48135278504E+00  0.24241019203E+02  0.51100000000E-03 0. -1.
        -11    1    3    3    0    0  0.10104731118E+01 -0.17686752961E+01  0.72413820271E+00  0.21618613763E+01  0.51100000000E-03 0.  1.
         12    1    3    3    0    0  0.19244559773E+02 -0.32508758716E+01 -0.29536621328E+01  0.19739437550E+02  0.00000000000E+00 0. -1.
</event>
<event>
 7    1  0.3708346E-009  0.4614232E+02  0.7816164E-02  0.1320468E+00
        -11   -1    0    0    0    0  0.00000000000E+00  0.00000000000E+00  0.45593999997E+02  0.45594000000E+02  0.51100000000E-03 0. -1.
         11   -1    0    0    0    0 -0.00000000000E+00 -0.00000000000E+00 -0.45593999997E+02  0.45594000000E+02  0.51100000000E-03 0.  1.
    9900012    2    1    2    0    0  0.38241753415E+02 -0.10993935920E+02  0.21114337102E+02  0.46142316938E+02  0.99999924934E+01 0.  0.
        -12    1    1    2    0    0 -0.38241753415E+02  0.10993935920E+02 -0.21114337102E+02  0.45045683062E+02  0.00000000000E+00 0.  1.
         11    1    3    3    0    0  0.20096289502E+02 -0.44213587654E+01  0.76307296240E+01  0.21946236578E+02  0.51100000000E-03 0.  1.
        -11    1    3    3    0    0  0.17527261586E+02 -0.54310468510E+01  0.13673962014E+02  0.22884020757E+02  0.51100000000E-03 0. -1.
         12    1    3    3    0    0  0.61820232675E+00 -0.11415303037E+01 -0.19035453572E+00  0.13120596024E+01  0.00000000000E+00 0. -1.
</event>
<event>
 7    1  0.3708346E-009  0.4614232E+02  0.7816164E-02  0.1320468E+00
        -11   -1    0    0    0    0  0.00000000000E+00  0.00000000000E+00  0.45593999997E+02  0.45594000000E+02  0.51100000000E-03 0.  1.
         11   -1    0    0    0    0 -0.00000000000E+00 -0.00000000000E+00 -0.45593999997E+02  0.45594000000E+02  0.51100000000E-03 0. -1.
    9900012    2    1    2    0    0 -0.19299020694E+02 -0.22315038032E+02 -0.34039688414E+02  0.46142317527E+02  0.99999978661E+01 0.  0.
        -12    1    1    2    0    0  0.19299020694E+02  0.22315038032E+02  0.34039688414E+02  0.45045682473E+02  0.00000000000E+00 0.  1.
         11    1    3    3    0    0 -0.59969628656E+01 -0.76202989151E+01 -0.15381591561E+02  0.18183120700E+02  0.51100000000E-03 0. -1.
        -11    1    3    3    0    0 -0.11938302757E+01 -0.29357975432E+01 -0.62600375933E+01  0.70165667440E+01  0.51100000000E-03 0.  1.
        -12    1    3    3    0    0 -0.12108227553E+02 -0.11758941574E+02 -0.12398059260E+02  0.20942630084E+02  0.00000000000E+00 0.  1.
</event>
<event>
 7    1  0.3708346E-009  0.4614232E+02  0.7816164E-02  0.1320468E+00
        -11   -1    0    0    0    0  0.00000000000E+00  0.00000000000E+00  0.45593999997E+02  0.45594000000E+02  0.51100000000E-03 0.  1.
         11   -1    0    0    0    0 -0.00000000000E+00 -0.00000000000E+00 -0.45593999997E+02  0.45594000000E+02  0.51100000000E-03 0. -1.
    9900012    2    1    2    0    0  0.32811607461E+02 -0.23021651887E+01 -0.30776807580E+02  0.46142318370E+02  0.10000005548E+02 0.  0.
        -12    1    1    2    0    0 -0.32811607461E+02  0.23021651887E+01  0.30776807580E+02  0.45045681630E+02  0.00000000000E+00 0.  1.
         11    1    3    3    0    0  0.53735940979E+00  0.10350270656E+01 -0.19228599966E-01  0.11663645065E+01  0.51100000000E-03 0. -1.
        -11    1    3    3    0    0  0.89546609145E+01  0.12217480371E+01 -0.78527825591E+01  0.11972669483E+02  0.51100000000E-03 0.  1.
         12    1    3    3    0    0  0.23319587136E+02 -0.45589402914E+01 -0.22904796421E+02  0.33003284380E+02  0.00000000000E+00 0. -1.
</event>
<event>
 7    1  0.3708346E-009  0.4614232E+02  0.7816164E-02  0.1320468E+00
        -11   -1    0    0    0    0  0.00000000000E+00  0.00000000000E+00  0.45593999997E+02  0.45594000000E+02  0.51100000000E-03 0.  1.
         11   -1    0    0    0    0 -0.00000000000E+00 -0.00000000000E+00 -0.45593999997E+02  0.45594000000E+02  0.51100000000E-03 0. -1.
    9900012    2    1    2    0    0  0.29700908486E+02 -0.13308726257E+02 -0.31142372140E+02  0.46142317610E+02  0.99999986242E+01 0.  0.
        -12    1    1    2    0    0 -0.29700908486E+02  0.13308726257E+02  0.31142372140E+02  0.45045682390E+02  0.00000000000E+00 0.  1.
         11    1    3    3    0    0  0.27138022947E+02 -0.12992079010E+02 -0.25373852862E+02  0.39358592656E+02  0.51100000000E-03 0. -1.
        -11    1    3    3    0    0 -0.34138638982E+00  0.39186986398E+00 -0.13719426400E+01  0.14670833399E+01  0.51100000000E-03 0.  1.
         12    1    3    3    0    0  0.29042719283E+01 -0.70851711085E+00 -0.43965766376E+01  0.53166416148E+01  0.00000000000E+00 0. -1.
</event>
<event>
 7    1  0.3708346E-009  0.4614232E+02  0.7816164E-02  0.1320468E+00
        -11   -1    0    0    0    0  0.00000000000E+00  0.00000000000E+00  0.45593999997E+02  0.45594000000E+02  0.51100000000E-03 0.  1.
         11   -1    0    0    0    0 -0.00000000000E+00 -0.00000000000E+00 -0.45593999997E+02  0.45594000000E+02  0.51100000000E-03 0. -1.
    9900012    2    1    2    0    0 -0.39541791624E+02 -0.57448501648E+01 -0.20798004876E+02  0.46142316577E+02  0.99999892014E+01 0.  0.
        -12    1    1    2    0    0  0.39541791624E+02  0.57448501648E+01  0.20798004876E+02  0.45045683423E+02  0.00000000000E+00 0.  1.
         11    1    3    3    0    0 -0.11993423880E+02 -0.45329027001E+01 -0.39867332483E+01  0.13426967845E+02  0.51100000000E-03 0. -1.
        -11    1    3    3    0    0 -0.14192818076E+02  0.11317634806E+01 -0.63521308438E+01  0.15590591395E+02  0.51100000000E-03 0.  1.
         12    1    3    3    0    0 -0.13355549667E+02 -0.23437109453E+01 -0.10459140784E+02  0.17124757337E+02  0.00000000000E+00 0. -1.
</event>
<event>
 7    1  0.3708346E-009  0.4614232E+02  0.7816164E-02  0.1320468E+00
        -11   -1    0    0    0    0  0.00000000000E+00  0.00000000000E+00  0.45593999997E+02  0.45594000000E+02  0.51100000000E-03 0.  1.
         11   -1    0    0    0    0 -0.00000000000E+00 -0.00000000000E+00 -0.45593999997E+02  0.45594000000E+02  0.51100000000E-03 0. -1.
    9900012    2    1    2    0    0 -0.22039881674E+02 -0.38999965230E+01 -0.39091522463E+02  0.46142317792E+02  0.10000000286E+02 0.  0.
        -12    1    1    2    0    0  0.22039881674E+02  0.38999965230E+01  0.39091522463E+02  0.45045682208E+02  0.00000000000E+00 0.  1.
         11    1    3    3    0    0 -0.88043602675E+01 -0.34865518300E+01 -0.92553129186E+01  0.13241360235E+02  0.51100000000E-03 0. -1.
        -11    1    3    3    0    0 -0.58527132798E+01  0.16758267503E+01 -0.11212700239E+02  0.12758812443E+02  0.51100000000E-03 0.  1.
         12    1    3    3    0    0 -0.73828081264E+01 -0.20892714433E+01 -0.18623509305E+02  0.20142145115E+02  0.00000000000E+00 0. -1.
</event>
<event>
 7    1  0.3708346E-009  0.4614232E+02  0.7816164E-02  0.1320468E+00
        -11   -1    0    0    0    0  0.00000000000E+00  0.00000000000E+00  0.45593999997E+02  0.45594000000E+02  0.51100000000E-03 0. -1.
         11   -1    0    0    0    0 -0.00000000000E+00 -0.00000000000E+00 -0.45593999997E+02  0.45594000000E+02  0.51100000000E-03 0.  1.
    9900012    2    1    2    0    0  0.23084913157E+01  0.35045048543E+02  0.28206894920E+02  0.46142317848E+02  0.10000000788E+02 0.  0.
        -12    1    1    2    0    0 -0.23084913157E+01 -0.35045048543E+02 -0.28206894920E+02  0.45045682152E+02  0.00000000000E+00 0.  1.
         11    1    3    3    0    0 -0.88726638485E+00  0.31377415306E+01  0.51599715136E-01  0.32611848065E+01  0.51100000000E-03 0. -1.
        -11    1    3    3    0    0  0.33256360832E+01  0.20986584915E+02  0.16449340767E+02  0.26871498166E+02  0.51100000000E-03 0.  1.
        -12    1    3    3    0    0 -0.12987838269E+00  0.10920722097E+02  0.11705954438E+02  0.16009634875E+02  0.00000000000E+00 0.  1.
</event>
<event>
 7    1  0.3708346E-009  0.4614232E+02  0.7816164E-02  0.1320468E+00
        -11   -1    0    0    0    0  0.00000000000E+00  0.00000000000E+00  0.45593999997E+02  0.45594000000E+02  0.51100000000E-03 0. -1.
         11   -1    0    0    0    0 -0.00000000000E+00 -0.00000000000E+00 -0.45593999997E+02  0.45594000000E+02  0.51100000000E-03 0.  1.
    9900012    2    1    2    0    0  0.36769951702E+01  0.27033483125E+02  0.35843883809E+02  0.46142317522E+02  0.99999978190E+01 0.  0.
        -12    1    1    2    0    0 -0.36769951702E+01 -0.27033483125E+02 -0.35843883809E+02  0.45045682478E+02  0.00000000000E+00 0.  1.
         11    1    3    3    0    0  0.24590556632E+01  0.50867978480E+01  0.63357310568E+01  0.84890491450E+01  0.51100000000E-03 0.  1.
        -11    1    3    3    0    0  0.30647760216E+01  0.20764158604E+02  0.25019822155E+02  0.32657841869E+02  0.51100000000E-03 0. -1.
        -12    1    3    3    0    0 -0.18468365146E+01  0.11825266734E+01  0.44883305979E+01  0.49954265084E+01  0.00000000000E+00 0.  1.
</event>
<event>
 7    1  0.3708346E-009  0.4614232E+02  0.7816164E-02  0.1320468E+00
        -11   -1    0    0    0    0  0.00000000000E+00  0.00000000000E+00  0.45593999997E+02  0.45594000000E+02  0.51100000000E-03 0.  1.
         11   -1    0    0    0    0 -0.00000000000E+00 -0.00000000000E+00 -0.45593999997E+02  0.45594000000E+02  0.51100000000E-03 0. -1.
    9900012    2    1    2    0    0 -0.21704774237E+01  0.21891522722E+02 -0.39308571181E+02  0.46142317547E+02  0.99999980472E+01 0.  0.
        -12    1    1    2    0    0  0.21704774237E+01 -0.21891522722E+02  0.39308571181E+02  0.45045682453E+02  0.00000000000E+00 0.  1.
         11    1    3    3    0    0 -0.28086599353E+01  0.99040847194E+01 -0.17961173382E+02  0.20702251430E+02  0.51100000000E-03 0. -1.
        -11    1    3    3    0    0  0.89305534065E+00  0.11568134969E+02 -0.21848857907E+02  0.24738469771E+02  0.51100000000E-03 0.  1.
        -12    1    3    3    0    0 -0.25487282905E+00  0.41930303387E+00  0.50146010759E+00  0.70159634599E+00  0.00000000000E+00 0.  1.
</event>
<event>
 7    1  0.3708346E-009  0.4614232E+02  0.7816164E-02  0.1320468E+00
        -11   -1    0    0    0    0  0.00000000000E+00  0.00000000000E+00  0.45593999997E+02  0.45594000000E+02  0.51100000000E-03 0.  1.
         11   -1    0    0    0    0 -0.00000000000E+00 -0.00000000000E+00 -0.45593999997E+02  0.45594000000E+02  0.51100000000E-03 0. -1.
    9900012    2    1    2    0    0  0.34450676831E+02  0.28341804446E+02 -0.62455169504E+01  0.46142317683E+02  0.99999992916E+01 0.  0.
        -12    1    1    2    0    0 -0.34450676831E+02 -0.28341804446E+02  0.62455169504E+01  0.45045682317E+02  0.00000000000E+00 0.  1.
         11    1    3    3    0    0  0.15436688590E+02  0.87168409986E+01 -0.20331379505E+01  0.17843999602E+02  0.51100000000E-03 0. -1.
        -11    1    3    3    0    0  0.17963297535E+02  0.15560939228E+02 -0.32015315892E+01  0.23980673318E+02  0.51100000000E-03 0.  1.
        -12    1    3    3    0    0  0.10506907063E+01  0.40640242195E+01 -0.10108474107E+01  0.43176447636E+01  0.00000000000E+00 0.  1.
</event>
<event>
 7    1  0.3708346E-009  0.4614232E+02  0.7816164E-02  0.1320468E+00
        -11   -1    0    0    0    0  0.00000000000E+00  0.00000000000E+00  0.45593999997E+02  0.45594000000E+02  0.51100000000E-03 0.  1.
         11   -1    0    0    0    0 -0.00000000000E+00 -0.00000000000E+00 -0.45593999997E+02  0.45594000000E+02  0.51100000000E-03 0. -1.
    9900012    2    1    2    0    0 -0.25996458029E+02 -0.13189352733E+02 -0.34341500975E+02  0.46142317134E+02  0.99999942848E+01 0.  0.
        -12    1    1    2    0    0  0.25996458029E+02  0.13189352733E+02  0.34341500975E+02  0.45045682866E+02  0.00000000000E+00 0.  1.
         11    1    3    3    0    0 -0.10384262745E+02 -0.92199101091E+01 -0.15312977266E+02  0.20671887388E+02  0.51100000000E-03 0. -1.
        -11    1    3    3    0    0 -0.83809621010E+01 -0.37088996923E+00 -0.67221578003E+01  0.10750139109E+02  0.51100000000E-03 0.  1.
        -12    1    3    3    0    0 -0.72312331830E+01 -0.35985526551E+01 -0.12306365909E+02  0.14720290637E+02  0.00000000000E+00 0.  1.
</event>
<event>
 7    1  0.3708346E-009  0.4614232E+02  0.7816164E-02  0.1320468E+00
        -11   -1    0    0    0    0  0.00000000000E+00  0.00000000000E+00  0.45593999997E+02  0.45594000000E+02  0.51100000000E-03 0.  1.
         11   -1    0    0    0    0 -0.00000000000E+00 -0.00000000000E+00 -0.45593999997E+02  0.45594000000E+02  0.51100000000E-03 0. -1.
    9900012    2    1    2    0    0 -0.29877005318E+01  0.37695841924E+02 -0.24478778606E+02  0.46142318133E+02  0.10000003391E+02 0.  0.
        -12    1    1    2    0    0  0.29877005318E+01 -0.37695841924E+02  0.24478778606E+02  0.45045681867E+02  0.00000000000E+00 0.  1.
         11    1    3    3    0    0 -0.48662764028E+01  0.15984971511E+02 -0.11100188461E+02  0.20060262819E+02  0.51100000000E-03 0. -1.
        -11    1    3    3    0    0  0.13802718129E+01  0.20877028822E+02 -0.11280114687E+02  0.23769654401E+02  0.51100000000E-03 0.  1.
         12    1    3    3    0    0  0.49830405811E+00  0.83384158999E+00 -0.20984754588E+01  0.23124009130E+01  0.00000000000E+00 0. -1.
</event>
<event>
 7    1  0.3708346E-009  0.4614232E+02  0.7816164E-02  0.1320468E+00
        -11   -1    0    0    0    0  0.00000000000E+00  0.00000000000E+00  0.45593999997E+02  0.45594000000E+02  0.51100000000E-03 0. -1.
         11   -1    0    0    0    0 -0.00000000000E+00 -0.00000000000E+00 -0.45593999997E+02  0.45594000000E+02  0.51100000000E-03 0.  1.
    9900012    2    1    2    0    0  0.25949555562E+02  0.74302000907E+01  0.36062809422E+02  0.46142317292E+02  0.99999957183E+01 0.  0.
        -12    1    1    2    0    0 -0.25949555562E+02 -0.74302000907E+01 -0.36062809422E+02  0.45045682708E+02  0.00000000000E+00 0.  1.
         11    1    3    3    0    0  0.13635331963E+02  0.76035811794E+00  0.18399273438E+02  0.22913613541E+02  0.51100000000E-03 0. -1.
        -11    1    3    3    0    0  0.26153154158E+01 -0.71859891730E+00  0.19538298576E+01  0.33427100535E+01  0.51100000000E-03 0.  1.
        -12    1    3    3    0    0  0.96989081837E+01  0.73884408900E+01  0.15709706126E+02  0.19885993697E+02  0.00000000000E+00 0.  1.
</event>
<event>
 7    1  0.3708346E-009  0.4614232E+02  0.7816164E-02  0.1320468E+00
        -11   -1    0    0    0    0  0.00000000000E+00  0.00000000000E+00  0.45593999997E+02  0.45594000000E+02  0.51100000000E-03 0. -1.
         11   -1    0    0    0    0 -0.00000000000E+00 -0.00000000000E+00 -0.45593999997E+02  0.45594000000E+02  0.51100000000E-03 0.  1.
    9900012    2    1    2    0    0  0.28983149455E+02  0.10729997141E+02  0.32771293587E+02  0.46142317917E+02  0.10000001421E+02 0.  0.
        -12    1    1    2    0    0 -0.28983149455E+02 -0.10729997141E+02 -0.32771293587E+02  0.45045682083E+02  0.00000000000E+00 0.  1.
         11    1    3    3    0    0  0.18484516844E+02  0.18350907732E+01  0.20282496936E+02  0.27503174423E+02  0.51100000000E-03 0. -1.
        -11    1    3    3    0    0  0.56209835728E+00  0.89032135585E+00  0.12622721482E+01  0.16437633398E+01  0.51100000000E-03 0.  1.
         12    1    3    3    0    0  0.99365342538E+01  0.80045850118E+01  0.11226524503E+02  0.16995380155E+02  0.00000000000E+00 0. -1.
</event>
<event>
 7    1  0.3708346E-009  0.4614232E+02  0.7816164E-02  0.1320468E+00
        -11   -1    0    0    0    0  0.00000000000E+00  0.00000000000E+00  0.45593999997E+02  0.45594000000E+02  0.51100000000E-03 0.  1.
         11   -1    0    0    0    0 -0.00000000000E+00 -0.00000000000E+00 -0.45593999997E+02  0.45594000000E+02  0.51100000000E-03 0. -1.
    9900012    2    1    2    0    0 -0.11323376610E+02  0.24051777031E+02 -0.36364908633E+02  0.46142318563E+02  0.10000007316E+02 0.  0.
        -12    1    1    2    0    0  0.11323376610E+02 -0.24051777031E+02  0.36364908633E+02  0.45045681437E+02  0.00000000000E+00 0.  1.
         11    1    3    3    0    0 -0.11704472351E+02  0.20517304748E+02 -0.28384997364E+02  0.36927801759E+02  0.51100000000E-03 0. -1.
        -11    1    3    3    0    0  0.10564688729E+01  0.56941713370E+00 -0.87225927505E+00  0.14836437765E+01  0.51100000000E-03 0.  1.
         12    1    3    3    0    0 -0.67537313184E+00  0.29650551496E+01 -0.71076519942E+01  0.77308730282E+01  0.00000000000E+00 0. -1.
</event>
<event>
 7    1  0.3708346E-009  0.4614232E+02  0.7816164E-02  0.1320468E+00
        -11   -1    0    0    0    0  0.00000000000E+00  0.00000000000E+00  0.45593999997E+02  0.45594000000E+02  0.51100000000E-03 0. -1.
         11   -1    0    0    0    0 -0.00000000000E+00 -0.00000000000E+00 -0.45593999997E+02  0.45594000000E+02  0.51100000000E-03 0.  1.
    9900012    2    1    2    0    0  0.71123290699E+01 -0.40058266740E+02 -0.19335551541E+02  0.46142317494E+02  0.99999975634E+01 0.  0.
        -12    1    1    2    0    0 -0.71123290699E+01  0.40058266740E+02  0.19335551541E+02  0.45045682506E+02  0.00000000000E+00 0.  1.
         11    1    3    3    0    0  0.19160231058E+01 -0.23015936239E+02 -0.13516387015E+02  0.26759992221E+02  0.51100000000E-03 0. -1.
        -11    1    3    3    0    0  0.39603592791E+01 -0.16541643582E+02 -0.47137220695E+01  0.17650200963E+02  0.51100000000E-03 0.  1.
        -12    1    3    3    0    0  0.12359466849E+01 -0.50068691947E+00 -0.11054424565E+01  0.17321243096E+01  0.00000000000E+00 0.  1.
</event>
<event>
 7    1  0.3708346E-009  0.4614232E+02  0.7816164E-02  0.1320468E+00
        -11   -1    0    0    0    0  0.00000000000E+00  0.00000000000E+00  0.45593999997E+02  0.45594000000E+02  0.51100000000E-03 0. -1.
         11   -1    0    0    0    0 -0.00000000000E+00 -0.00000000000E+00 -0.45593999997E+02  0.45594000000E+02  0.51100000000E-03 0.  1.
    9900012    2    1    2    0    0  0.24833142978E+02 -0.91200539348E+01  0.36458916770E+02  0.46142323338E+02  0.10000050850E+02 0.  0.
        -12    1    1    2    0    0 -0.24833142978E+02  0.91200539348E+01 -0.36458916770E+02  0.45045676662E+02  0.00000000000E+00 0.  1.
         11    1    3    3    0    0  0.18250274559E+02 -0.51713751941E+01  0.28667108137E+02  0.34374681556E+02  0.51100000000E-03 0. -1.
        -11    1    3    3    0    0  0.10179467428E+01  0.29051366578E+00 -0.27127028646E+00  0.10927953105E+01  0.51100000000E-03 0.  1.
         12    1    3    3    0    0  0.55649216756E+01 -0.42391924064E+01  0.80630789201E+01  0.10674846471E+02  0.00000000000E+00 0. -1.
</event>
<event>
 7    1  0.3708346E-009  0.4614232E+02  0.7816164E-02  0.1320468E+00
        -11   -1    0    0    0    0  0.00000000000E+00  0.00000000000E+00  0.45593999997E+02  0.45594000000E+02  0.51100000000E-03 0.  1.
         11   -1    0    0    0    0 -0.00000000000E+00 -0.00000000000E+00 -0.45593999997E+02  0.45594000000E+02  0.51100000000E-03 0. -1.
    9900012    2    1    2    0    0 -0.27824477030E+02 -0.30351097948E+02 -0.18268079493E+02  0.46142318775E+02  0.10000009248E+02 0.  0.
        -12    1    1    2    0    0  0.27824477030E+02  0.30351097948E+02  0.18268079493E+02  0.45045681225E+02  0.00000000000E+00 0.  1.
         11    1    3    3    0    0 -0.16423214826E+01 -0.71025799130E+00  0.52658495156E+00  0.18652019297E+01  0.51100000000E-03 0.  1.
        -11    1    3    3    0    0 -0.24040422350E+02 -0.24507452116E+02 -0.14577530583E+02  0.37296937062E+02  0.51100000000E-03 0. -1.
         12    1    3    3    0    0 -0.21417331967E+01 -0.51333878406E+01 -0.42171338617E+01  0.69801797839E+01  0.00000000000E+00 0. -1.
</event>
<event>
 7    1  0.3708346E-009  0.4614232E+02  0.7816164E-02  0.1320468E+00
        -11   -1    0    0    0    0  0.00000000000E+00  0.00000000000E+00  0.45593999997E+02  0.45594000000E+02  0.51100000000E-03 0. -1.
         11   -1    0    0    0    0 -0.00000000000E+00 -0.00000000000E+00 -0.45593999997E+02  0.45594000000E+02  0.51100000000E-03 0.  1.
    9900012    2    1    2    0    0 -0.28447845683E+02  0.71309243912E+01  0.34190400471E+02  0.46142317731E+02  0.99999997282E+01 0.  0.
        -12    1    1    2    0    0  0.28447845683E+02 -0.71309243912E+01 -0.34190400471E+02  0.45045682269E+02  0.00000000000E+00 0.  1.
         11    1    3    3    0    0 -0.12511883819E+00  0.46810390917E-01 -0.43256214198E+00  0.45272088991E+00  0.51100000000E-03 0. -1.
        -11    1    3    3    0    0 -0.36007111543E+01 -0.11093981143E+01  0.42959065461E+01  0.57140789552E+01  0.51100000000E-03 0.  1.
         12    1    3    3    0    0 -0.24722015691E+02  0.81935121146E+01  0.30327056067E+02  0.39975517886E+02  0.00000000000E+00 0. -1.
</event>
<event>
 7    1  0.3708346E-009  0.4614232E+02  0.7816164E-02  0.1320468E+00
        -11   -1    0    0    0    0  0.00000000000E+00  0.00000000000E+00  0.45593999997E+02  0.45594000000E+02  0.51100000000E-03 0.  1.
         11   -1    0    0    0    0 -0.00000000000E+00 -0.00000000000E+00 -0.45593999997E+02  0.45594000000E+02  0.51100000000E-03 0. -1.
    9900012    2    1    2    0    0 -0.24386540102E+02 -0.28059786500E+02 -0.25437345748E+02  0.46142317462E+02  0.99999972723E+01 0.  0.
        -12    1    1    2    0    0  0.24386540102E+02  0.28059786500E+02  0.25437345748E+02  0.45045682538E+02  0.00000000000E+00 0.  1.
         11    1    3    3    0    0 -0.16389664475E+02 -0.23567759889E+02 -0.22196513156E+02  0.36286989464E+02  0.51100000000E-03 0. -1.
        -11    1    3    3    0    0 -0.31091771282E+01 -0.11383710678E+01 -0.17412791894E+01  0.37409790937E+01  0.51100000000E-03 0.  1.
         12    1    3    3    0    0 -0.48876984984E+01 -0.33536555440E+01 -0.14995534026E+01  0.61143489045E+01  0.00000000000E+00 0. -1.
</event>
<event>
 7    1  0.3708346E-009  0.4614232E+02  0.7816164E-02  0.1320468E+00
        -11   -1    0    0    0    0  0.00000000000E+00  0.00000000000E+00  0.45593999997E+02  0.45594000000E+02  0.51100000000E-03 0.  1.
         11   -1    0    0    0    0 -0.00000000000E+00 -0.00000000000E+00 -0.45593999997E+02  0.45594000000E+02  0.51100000000E-03 0. -1.
    9900012    2    1    2    0    0 -0.40023385087E+02 -0.18710739531E+01 -0.20584974285E+02  0.46142318321E+02  0.10000005108E+02 0.  0.
        -12    1    1    2    0    0  0.40023385087E+02  0.18710739531E+01  0.20584974285E+02  0.45045681679E+02  0.00000000000E+00 0.  1.
         11    1    3    3    0    0 -0.14600345784E+02  0.30750838373E+01 -0.82806678573E+01  0.17064457157E+02  0.51100000000E-03 0. -1.
        -11    1    3    3    0    0 -0.80171299877E+01 -0.10707279295E+01 -0.14947995773E+01  0.82252816107E+01  0.51100000000E-03 0.  1.
         12    1    3    3    0    0 -0.17405909315E+02 -0.38754298609E+01 -0.10809506850E+02  0.20852579554E+02  0.00000000000E+00 0. -1.
</event>
<event>
 7    1  0.3708346E-009  0.4614232E+02  0.7816164E-02  0.1320468E+00
        -11   -1    0    0    0    0  0.00000000000E+00  0.00000000000E+00  0.45593999997E+02  0.45594000000E+02  0.51100000000E-03 0.  1.
         11   -1    0    0    0    0 -0.00000000000E+00 -0.00000000000E+00 -0.45593999997E+02  0.45594000000E+02  0.51100000000E-03 0. -1.
    9900012    2    1    2    0    0 -0.26013184138E+02 -0.68275410524E+01 -0.36136026912E+02  0.46142317556E+02  0.99999981334E+01 0.  0.
        -12    1    1    2    0    0  0.26013184138E+02  0.68275410524E+01  0.36136026912E+02  0.45045682444E+02  0.00000000000E+00 0.  1.
         11    1    3    3    0    0 -0.14082204934E+02 -0.42017788292E+01 -0.21191657899E+02  0.25788559594E+02  0.51100000000E-03 0. -1.
        -11    1    3    3    0    0 -0.94793810722E+01 -0.10266506736E+01 -0.68329519666E+01  0.11730384050E+02  0.51100000000E-03 0.  1.
         12    1    3    3    0    0 -0.24515981321E+01 -0.15991115496E+01 -0.81114170459E+01  0.86233739129E+01  0.00000000000E+00 0. -1.
</event>
<event>
 7    1  0.3708346E-009  0.4614232E+02  0.7816164E-02  0.1320468E+00
        -11   -1    0    0    0    0  0.00000000000E+00  0.00000000000E+00  0.45593999997E+02  0.45594000000E+02  0.51100000000E-03 0.  1.
         11   -1    0    0    0    0 -0.00000000000E+00 -0.00000000000E+00 -0.45593999997E+02  0.45594000000E+02  0.51100000000E-03 0. -1.
    9900012    2    1    2    0    0  0.12819158574E+02  0.17928035894E+02 -0.39285724372E+02  0.46142318331E+02  0.10000005198E+02 0.  0.
        -12    1    1    2    0    0 -0.12819158574E+02 -0.17928035894E+02  0.39285724372E+02  0.45045681669E+02  0.00000000000E+00 0.  1.
         11    1    3    3    0    0  0.54952761467E+01  0.51128124370E+01 -0.10320249404E+02  0.12761130787E+02  0.51100000000E-03 0. -1.
        -11    1    3    3    0    0  0.41284464503E+01  0.12727789217E+02 -0.22802255411E+02  0.26438296854E+02  0.51100000000E-03 0.  1.
        -12    1    3    3    0    0  0.31954359767E+01  0.87434240621E-01 -0.61632195571E+01  0.69428906902E+01  0.00000000000E+00 0.  1.
</event>
<event>
 7    1  0.3708346E-009  0.4614232E+02  0.7816164E-02  0.1320468E+00
        -11   -1    0    0    0    0  0.00000000000E+00  0.00000000000E+00  0.45593999997E+02  0.45594000000E+02  0.51100000000E-03 0.  1.
         11   -1    0    0    0    0 -0.00000000000E+00 -0.00000000000E+00 -0.45593999997E+02  0.45594000000E+02  0.51100000000E-03 0. -1.
    9900012    2    1    2    0    0 -0.28479569529E+02 -0.20208464102E+02 -0.28454269909E+02  0.46142318987E+02  0.10000011178E+02 0.  0.
        -12    1    1    2    0    0  0.28479569529E+02  0.20208464102E+02  0.28454269909E+02  0.45045681013E+02  0.00000000000E+00 0.  1.
         11    1    3    3    0    0 -0.18813750318E+02 -0.12290584599E+02 -0.20022401019E+02  0.30098375598E+02  0.51100000000E-03 0. -1.
        -11    1    3    3    0    0  0.11484140142E+00 -0.24319038506E+01 -0.15723824260E+01  0.28982290525E+01  0.51100000000E-03 0.  1.
        -12    1    3    3    0    0 -0.97806606125E+01 -0.54859756522E+01 -0.68594864633E+01  0.13145714336E+02  0.00000000000E+00 0.  1.
</event>
<event>
 7    1  0.3708346E-009  0.4614232E+02  0.7816164E-02  0.1320468E+00
        -11   -1    0    0    0    0  0.00000000000E+00  0.00000000000E+00  0.45593999997E+02  0.45594000000E+02  0.51100000000E-03 0.  1.
         11   -1    0    0    0    0 -0.00000000000E+00 -0.00000000000E+00 -0.45593999997E+02  0.45594000000E+02  0.51100000000E-03 0. -1.
    9900012    2    1    2    0    0 -0.41952421805E+02  0.54329250103E+01 -0.15478736085E+02  0.46142316075E+02  0.99999846269E+01 0.  0.
        -12    1    1    2    0    0  0.41952421805E+02 -0.54329250103E+01  0.15478736085E+02  0.45045683925E+02  0.00000000000E+00 0.  1.
         11    1    3    3    0    0 -0.27369726643E+02  0.29905201491E+01 -0.12398336929E+02  0.30195428564E+02  0.51100000000E-03 0. -1.
        -11    1    3    3    0    0 -0.42946764631E+01  0.31473685982E+01 -0.78056226584E+00  0.53813987706E+01  0.51100000000E-03 0.  1.
        -12    1    3    3    0    0 -0.10288018699E+02 -0.70496373696E+00 -0.22998368901E+01  0.10565488741E+02  0.00000000000E+00 0.  1.
</event>
<event>
 7    1  0.3708346E-009  0.4614232E+02  0.7816164E-02  0.1320468E+00
        -11   -1    0    0    0    0  0.00000000000E+00  0.00000000000E+00  0.45593999997E+02  0.45594000000E+02  0.51100000000E-03 0. -1.
         11   -1    0    0    0    0 -0.00000000000E+00 -0.00000000000E+00 -0.45593999997E+02  0.45594000000E+02  0.51100000000E-03 0.  1.
    9900012    2    1    2    0    0  0.17579423393E+02 -0.31612559353E+02  0.26846290907E+02  0.46142319062E+02  0.10000011866E+02 0.  0.
        -12    1    1    2    0    0 -0.17579423393E+02  0.31612559353E+02 -0.26846290907E+02  0.45045680938E+02  0.00000000000E+00 0.  1.
         11    1    3    3    0    0  0.14194446730E+00  0.53525911133E-03  0.11752273273E+01  0.11837685796E+01  0.51100000000E-03 0. -1.
        -11    1    3    3    0    0  0.10615975691E+01 -0.35536131515E+00 -0.28228358363E+00  0.11545368533E+01  0.51100000000E-03 0.  1.
         12    1    3    3    0    0  0.16375881356E+02 -0.31257733297E+02  0.25953347163E+02  0.43804013629E+02  0.00000000000E+00 0. -1.
</event>
<event>
 7    1  0.3708346E-009  0.4614232E+02  0.7816164E-02  0.1320468E+00
        -11   -1    0    0    0    0  0.00000000000E+00  0.00000000000E+00  0.45593999997E+02  0.45594000000E+02  0.51100000000E-03 0.  1.
         11   -1    0    0    0    0 -0.00000000000E+00 -0.00000000000E+00 -0.45593999997E+02  0.45594000000E+02  0.51100000000E-03 0. -1.
    9900012    2    1    2    0    0  0.14375588664E+02  0.10300483274E+01 -0.42677803910E+02  0.46142317681E+02  0.99999992679E+01 0.  0.
        -12    1    1    2    0    0 -0.14375588664E+02 -0.10300483274E+01  0.42677803910E+02  0.45045682319E+02  0.00000000000E+00 0.  1.
         11    1    3    3    0    0  0.92878492327E+01 -0.34324772064E+01 -0.22087479402E+02  0.24205428931E+02  0.51100000000E-03 0. -1.
        -11    1    3    3    0    0  0.11979692257E+01  0.11193056330E+01 -0.16965336134E+01  0.23592799598E+01  0.51100000000E-03 0.  1.
         12    1    3    3    0    0  0.38897702059E+01  0.33432199007E+01 -0.18893790895E+02  0.19577608790E+02  0.00000000000E+00 0. -1.
</event>
<event>
 7    1  0.3708346E-009  0.4614232E+02  0.7816164E-02  0.1320468E+00
        -11   -1    0    0    0    0  0.00000000000E+00  0.00000000000E+00  0.45593999997E+02  0.45594000000E+02  0.51100000000E-03 0. -1.
         11   -1    0    0    0    0 -0.00000000000E+00 -0.00000000000E+00 -0.45593999997E+02  0.45594000000E+02  0.51100000000E-03 0.  1.
    9900012    2    1    2    0    0 -0.76385392070E+01 -0.30626292407E+02  0.32137149777E+02  0.46142318036E+02  0.10000002505E+02 0.  0.
        -12    1    1    2    0    0  0.76385392070E+01  0.30626292407E+02 -0.32137149777E+02  0.45045681964E+02  0.00000000000E+00 0.  1.
         11    1    3    3    0    0 -0.12195375283E+01 -0.15751545861E+02  0.18901922340E+02  0.24634957625E+02  0.51100000000E-03 0. -1.
        -11    1    3    3    0    0  0.30409713611E+00 -0.11030595024E+01  0.26370093553E+01  0.28745493447E+01  0.51100000000E-03 0.  1.
         12    1    3    3    0    0 -0.67230988148E+01 -0.13771687043E+02  0.10598218082E+02  0.18632811066E+02  0.00000000000E+00 0. -1.
</event>
<event>
 7    1  0.3708346E-009  0.4614232E+02  0.7816164E-02  0.1320468E+00
        -11   -1    0    0    0    0  0.00000000000E+00  0.00000000000E+00  0.45593999997E+02  0.45594000000E+02  0.51100000000E-03 0.  1.
         11   -1    0    0    0    0 -0.00000000000E+00 -0.00000000000E+00 -0.45593999997E+02  0.45594000000E+02  0.51100000000E-03 0. -1.
    9900012    2    1    2    0    0 -0.43521935288E+02 -0.65933104807E+01 -0.95646672999E+01  0.46142318133E+02  0.10000003387E+02 0.  0.
        -12    1    1    2    0    0  0.43521935288E+02  0.65933104807E+01  0.95646672999E+01  0.45045681867E+02  0.00000000000E+00 0.  1.
         11    1    3    3    0    0 -0.34069046060E+01  0.48269711294E+00  0.10264014335E+01  0.35907514062E+01  0.51100000000E-03 0. -1.
        -11    1    3    3    0    0 -0.17769444577E+02 -0.53989656817E+01 -0.25584781125E+01  0.18746941124E+02  0.51100000000E-03 0.  1.
         12    1    3    3    0    0 -0.22345586106E+02 -0.16770419120E+01 -0.80325906210E+01  0.23804625602E+02  0.00000000000E+00 0. -1.
</event>
<event>
 7    1  0.3708346E-009  0.4614232E+02  0.7816164E-02  0.1320468E+00
        -11   -1    0    0    0    0  0.00000000000E+00  0.00000000000E+00  0.45593999997E+02  0.45594000000E+02  0.51100000000E-03 0.  1.
         11   -1    0    0    0    0 -0.00000000000E+00 -0.00000000000E+00 -0.45593999997E+02  0.45594000000E+02  0.51100000000E-03 0. -1.
    9900012    2    1    2    0    0 -0.21906057619E+02 -0.36752230352E+02 -0.14089419789E+02  0.46142317118E+02  0.99999941392E+01 0.  0.
        -12    1    1    2    0    0  0.21906057619E+02  0.36752230352E+02  0.14089419789E+02  0.45045682882E+02  0.00000000000E+00 0.  1.
         11    1    3    3    0    0 -0.12366070506E+02 -0.23243089307E+02 -0.92087539442E+01  0.27891971063E+02  0.51100000000E-03 0. -1.
        -11    1    3    3    0    0 -0.96877850733E+00 -0.52075464434E+01  0.15437184564E+00  0.52991416932E+01  0.51100000000E-03 0.  1.
        -12    1    3    3    0    0 -0.85712086055E+01 -0.83015946015E+01 -0.50350376900E+01  0.12951204362E+02  0.00000000000E+00 0.  1.
</event>
<event>
 7    1  0.3708346E-009  0.4614232E+02  0.7816164E-02  0.1320468E+00
        -11   -1    0    0    0    0  0.00000000000E+00  0.00000000000E+00  0.45593999997E+02  0.45594000000E+02  0.51100000000E-03 0. -1.
         11   -1    0    0    0    0 -0.00000000000E+00 -0.00000000000E+00 -0.45593999997E+02  0.45594000000E+02  0.51100000000E-03 0.  1.
    9900012    2    1    2    0    0 -0.89766701893E+01 -0.27971595832E+02  0.34148539186E+02  0.46142317526E+02  0.99999978543E+01 0.  0.
        -12    1    1    2    0    0  0.89766701893E+01  0.27971595832E+02 -0.34148539186E+02  0.45045682474E+02  0.00000000000E+00 0.  1.
         11    1    3    3    0    0 -0.34340376694E+01 -0.32451310194E+01  0.75051714799E+01  0.88685449344E+01  0.51100000000E-03 0. -1.
        -11    1    3    3    0    0 -0.36914616703E+01 -0.93871761648E+01  0.69803330190E+01  0.12266662746E+02  0.51100000000E-03 0.  1.
         12    1    3    3    0    0 -0.18511708496E+01 -0.15339288647E+02  0.19663034687E+02  0.25007109845E+02  0.00000000000E+00 0. -1.
</event>
<event>
 7    1  0.3708346E-009  0.4614232E+02  0.7816164E-02  0.1320468E+00
        -11   -1    0    0    0    0  0.00000000000E+00  0.00000000000E+00  0.45593999997E+02  0.45594000000E+02  0.51100000000E-03 0.  1.
         11   -1    0    0    0    0 -0.00000000000E+00 -0.00000000000E+00 -0.45593999997E+02  0.45594000000E+02  0.51100000000E-03 0. -1.
    9900012    2    1    2    0    0 -0.91877890899E+01  0.29594856076E+02 -0.32693156835E+02  0.46142317872E+02  0.10000001015E+02 0.  0.
        -12    1    1    2    0    0  0.91877890899E+01 -0.29594856076E+02  0.32693156835E+02  0.45045682128E+02  0.00000000000E+00 0.  1.
         11    1    3    3    0    0 -0.56384267636E+01  0.77975420835E+01 -0.13081605746E+02  0.16239517482E+02  0.51100000000E-03 0. -1.
        -11    1    3    3    0    0  0.43076432685E+00  0.25634685008E+01 -0.83464131369E+00  0.27301199687E+01  0.51100000000E-03 0.  1.
         12    1    3    3    0    0 -0.39801266532E+01  0.19233845492E+02 -0.18776909775E+02  0.27172680422E+02  0.00000000000E+00 0. -1.
</event>
<event>
 7    1  0.3708346E-009  0.4614232E+02  0.7816164E-02  0.1320468E+00
        -11   -1    0    0    0    0  0.00000000000E+00  0.00000000000E+00  0.45593999997E+02  0.45594000000E+02  0.51100000000E-03 0.  1.
         11   -1    0    0    0    0 -0.00000000000E+00 -0.00000000000E+00 -0.45593999997E+02  0.45594000000E+02  0.51100000000E-03 0. -1.
    9900012    2    1    2    0    0  0.13039163146E+02  0.37881327986E+02 -0.20593652834E+02  0.46142319601E+02  0.10000016780E+02 0.  0.
        -12    1    1    2    0    0 -0.13039163146E+02 -0.37881327986E+02  0.20593652834E+02  0.45045680399E+02  0.00000000000E+00 0.  1.
         11    1    3    3    0    0  0.41519065426E+01  0.13718833391E+02 -0.93743636430E+01  0.17126687114E+02  0.51100000000E-03 0. -1.
        -11    1    3    3    0    0  0.46769446256E+01  0.18817795675E+02 -0.55762994013E+01  0.20176182998E+02  0.51100000000E-03 0.  1.
        -12    1    3    3    0    0  0.42103119773E+01  0.53446989202E+01 -0.56429897897E+01  0.88394494885E+01  0.00000000000E+00 0.  1.
</event>
<event>
 7    1  0.3708346E-009  0.4614232E+02  0.7816164E-02  0.1320468E+00
        -11   -1    0    0    0    0  0.00000000000E+00  0.00000000000E+00  0.45593999997E+02  0.45594000000E+02  0.51100000000E-03 0. -1.
         11   -1    0    0    0    0 -0.00000000000E+00 -0.00000000000E+00 -0.45593999997E+02  0.45594000000E+02  0.51100000000E-03 0.  1.
    9900012    2    1    2    0    0 -0.22216466650E+02  0.23182288290E+02  0.31593092782E+02  0.46142318827E+02  0.10000009722E+02 0.  0.
        -12    1    1    2    0    0  0.22216466650E+02 -0.23182288290E+02 -0.31593092782E+02  0.45045681173E+02  0.00000000000E+00 0.  1.
         11    1    3    3    0    0  0.31260677080E+00  0.26668723687E+01  0.36175335148E+01  0.45051615083E+01  0.51100000000E-03 0.  1.
        -11    1    3    3    0    0 -0.15430292883E+02  0.16277446165E+02  0.22155802481E+02  0.31526635976E+02  0.51100000000E-03 0. -1.
         12    1    3    3    0    0 -0.70987805378E+01  0.42379697563E+01  0.58197567859E+01  0.10110521343E+02  0.00000000000E+00 0. -1.
</event>
<event>
 7    1  0.3708346E-009  0.4614232E+02  0.7816164E-02  0.1320468E+00
        -11   -1    0    0    0    0  0.00000000000E+00  0.00000000000E+00  0.45593999997E+02  0.45594000000E+02  0.51100000000E-03 0.  1.
         11   -1    0    0    0    0 -0.00000000000E+00 -0.00000000000E+00 -0.45593999997E+02  0.45594000000E+02  0.51100000000E-03 0. -1.
    9900012    2    1    2    0    0  0.31012518938E+02  0.14432231321E+02 -0.29309518352E+02  0.46142317656E+02  0.99999990407E+01 0.  0.
        -12    1    1    2    0    0 -0.31012518938E+02 -0.14432231321E+02  0.29309518352E+02  0.45045682344E+02  0.00000000000E+00 0.  1.
         11    1    3    3    0    0  0.45552495142E+01  0.29478339803E+01 -0.86475891546E+01  0.10208859964E+02  0.51100000000E-03 0. -1.
        -11    1    3    3    0    0  0.15981326818E+02  0.47096337581E+01 -0.94176868732E+01  0.19138345887E+02  0.51100000000E-03 0.  1.
        -12    1    3    3    0    0  0.10475942606E+02  0.67747635826E+01 -0.11244242325E+02  0.16795111805E+02  0.00000000000E+00 0.  1.
</event>
<event>
 7    1  0.3708346E-009  0.4614232E+02  0.7816164E-02  0.1320468E+00
        -11   -1    0    0    0    0  0.00000000000E+00  0.00000000000E+00  0.45593999997E+02  0.45594000000E+02  0.51100000000E-03 0. -1.
         11   -1    0    0    0    0 -0.00000000000E+00 -0.00000000000E+00 -0.45593999997E+02  0.45594000000E+02  0.51100000000E-03 0.  1.
    9900012    2    1    2    0    0 -0.22337548609E+01  0.26834458879E+02  0.36111433921E+02  0.46142317589E+02  0.99999984262E+01 0.  0.
        -12    1    1    2    0    0  0.22337548609E+01 -0.26834458879E+02 -0.36111433921E+02  0.45045682411E+02  0.00000000000E+00 0.  1.
         11    1    3    3    0    0 -0.31412928515E+01  0.43321231904E+01  0.85482977783E+01  0.10085058616E+02  0.51100000000E-03 0. -1.
        -11    1    3    3    0    0  0.82259820899E+00  0.59463996059E+01  0.11587471033E+02  0.13050127251E+02  0.51100000000E-03 0.  1.
         12    1    3    3    0    0  0.84939781608E-01  0.16555936083E+02  0.15975665110E+02  0.23007131721E+02  0.00000000000E+00 0. -1.
</event>
<event>
 7    1  0.3708346E-009  0.4614231E+02  0.7816164E-02  0.1320468E+00
        -11   -1    0    0    0    0  0.00000000000E+00  0.00000000000E+00  0.45593999997E+02  0.45594000000E+02  0.51100000000E-03 0.  1.
         11   -1    0    0    0    0 -0.00000000000E+00 -0.00000000000E+00 -0.45593999997E+02  0.45594000000E+02  0.51100000000E-03 0. -1.
    9900012    2    1    2    0    0 -0.27114183288E+01  0.27494065488E+02 -0.35578623770E+02  0.46142313238E+02  0.99999587571E+01 0.  0.
        -12    1    1    2    0    0  0.27114183288E+01 -0.27494065488E+02  0.35578623770E+02  0.45045686762E+02  0.00000000000E+00 0.  1.
         11    1    3    3    0    0 -0.23760727352E+01  0.10996844147E+02 -0.11013843557E+02  0.15744238724E+02  0.51100000000E-03 0. -1.
        -11    1    3    3    0    0 -0.16507878536E+00  0.14641176334E+02 -0.24489264274E+02  0.28532706853E+02  0.51100000000E-03 0.  1.
        -12    1    3    3    0    0 -0.17026680829E+00  0.18560450069E+01 -0.75515940117E-01  0.18653676610E+01  0.00000000000E+00 0.  1.
</event>
<event>
 7    1  0.3708346E-009  0.4614232E+02  0.7816164E-02  0.1320468E+00
        -11   -1    0    0    0    0  0.00000000000E+00  0.00000000000E+00  0.45593999997E+02  0.45594000000E+02  0.51100000000E-03 0.  1.
         11   -1    0    0    0    0 -0.00000000000E+00 -0.00000000000E+00 -0.45593999997E+02  0.45594000000E+02  0.51100000000E-03 0. -1.
    9900012    2    1    2    0    0  0.30834623686E+01 -0.19170238042E+02 -0.40646128796E+02  0.46142317045E+02  0.99999934675E+01 0.  0.
        -12    1    1    2    0    0 -0.30834623686E+01  0.19170238042E+02  0.40646128796E+02  0.45045682955E+02  0.00000000000E+00 0.  1.
         11    1    3    3    0    0  0.13800802822E+01 -0.11874698775E+02 -0.22933588155E+02  0.25862377279E+02  0.51100000000E-03 0. -1.
        -11    1    3    3    0    0  0.30466562869E+01 -0.65942620707E+01 -0.17215346502E+02  0.18685142821E+02  0.51100000000E-03 0.  1.
        -12    1    3    3    0    0 -0.13432742004E+01 -0.70127719599E+00 -0.49719413914E+00  0.15947969448E+01  0.00000000000E+00 0.  1.
</event>
<event>
 7    1  0.3708346E-009  0.4614232E+02  0.7816164E-02  0.1320468E+00
        -11   -1    0    0    0    0  0.00000000000E+00  0.00000000000E+00  0.45593999997E+02  0.45594000000E+02  0.51100000000E-03 0.  1.
         11   -1    0    0    0    0 -0.00000000000E+00 -0.00000000000E+00 -0.45593999997E+02  0.45594000000E+02  0.51100000000E-03 0. -1.
    9900012    2    1    2    0    0 -0.70066239385E+01  0.44273051322E+02  0.44629186603E+01  0.46142317684E+02  0.99999992980E+01 0.  0.
        -12    1    1    2    0    0  0.70066239385E+01 -0.44273051322E+02 -0.44629186603E+01  0.45045682316E+02  0.00000000000E+00 0.  1.
         11    1    3    3    0    0 -0.93937136378E-01  0.63366055139E+01 -0.22863714653E+01  0.67371276047E+01  0.51100000000E-03 0. -1.
        -11    1    3    3    0    0 -0.45535136529E+00  0.14061986998E+02  0.30745354225E+01  0.14401374640E+02  0.51100000000E-03 0.  1.
         12    1    3    3    0    0 -0.64573354368E+01  0.23874458810E+02  0.36747547030E+01  0.25003815440E+02  0.00000000000E+00 0. -1.
</event>
<event>
 7    1  0.3708346E-009  0.4614232E+02  0.7816164E-02  0.1320468E+00
        -11   -1    0    0    0    0  0.00000000000E+00  0.00000000000E+00  0.45593999997E+02  0.45594000000E+02  0.51100000000E-03 0. -1.
         11   -1    0    0    0    0 -0.00000000000E+00 -0.00000000000E+00 -0.45593999997E+02  0.45594000000E+02  0.51100000000E-03 0.  1.
    9900012    2    1    2    0    0 -0.25166708476E+02 -0.31603141874E+02  0.19924650121E+02  0.46142317918E+02  0.10000001429E+02 0.  0.
        -12    1    1    2    0    0  0.25166708476E+02  0.31603141874E+02 -0.19924650121E+02  0.45045682082E+02  0.00000000000E+00 0.  1.
         11    1    3    3    0    0 -0.60989367532E+01 -0.14132284177E+02  0.71399830130E+01  0.16967552660E+02  0.51100000000E-03 0. -1.
        -11    1    3    3    0    0 -0.18724122579E+02 -0.17200160164E+02  0.11666392840E+02  0.27973970011E+02  0.51100000000E-03 0.  1.
        -12    1    3    3    0    0 -0.34364914375E+00 -0.27069753390E+00  0.11182742679E+01  0.12007952478E+01  0.00000000000E+00 0.  1.
</event>
<event>
 7    1  0.3708346E-009  0.4614232E+02  0.7816164E-02  0.1320468E+00
        -11   -1    0    0    0    0  0.00000000000E+00  0.00000000000E+00  0.45593999997E+02  0.45594000000E+02  0.51100000000E-03 0.  1.
         11   -1    0    0    0    0 -0.00000000000E+00 -0.00000000000E+00 -0.45593999997E+02  0.45594000000E+02  0.51100000000E-03 0. -1.
    9900012    2    1    2    0    0  0.22624094362E+02 -0.60486842047E+01 -0.38479569263E+02  0.46142317888E+02  0.10000001156E+02 0.  0.
        -12    1    1    2    0    0 -0.22624094362E+02  0.60486842047E+01  0.38479569263E+02  0.45045682112E+02  0.00000000000E+00 0.  1.
         11    1    3    3    0    0  0.15488877604E+02 -0.81693149804E+01 -0.28057969627E+02  0.33074048687E+02  0.51100000000E-03 0. -1.
        -11    1    3    3    0    0  0.31807539051E+01 -0.28457636196E+00 -0.34603567280E+01  0.47087416638E+01  0.51100000000E-03 0.  1.
         12    1    3    3    0    0  0.39544628528E+01  0.24052071376E+01 -0.69612429077E+01  0.83595275374E+01  0.00000000000E+00 0. -1.
</event>
<event>
 7    1  0.3708346E-009  0.4614232E+02  0.7816164E-02  0.1320468E+00
        -11   -1    0    0    0    0  0.00000000000E+00  0.00000000000E+00  0.45593999997E+02  0.45594000000E+02  0.51100000000E-03 0.  1.
         11   -1    0    0    0    0 -0.00000000000E+00 -0.00000000000E+00 -0.45593999997E+02  0.45594000000E+02  0.51100000000E-03 0. -1.
    9900012    2    1    2    0    0  0.41678011232E+00  0.22892628869E+02 -0.38792619038E+02  0.46142318142E+02  0.10000003476E+02 0.  0.
        -12    1    1    2    0    0 -0.41678011232E+00 -0.22892628869E+02  0.38792619038E+02  0.45045681858E+02  0.00000000000E+00 0.  1.
         11    1    3    3    0    0  0.20941071454E+01  0.86014654142E+01 -0.10223529231E+02  0.13523721463E+02  0.51100000000E-03 0. -1.
        -11    1    3    3    0    0  0.81885812181E+00  0.12557393177E+02 -0.21298195429E+02  0.24738063401E+02  0.51100000000E-03 0.  1.
        -12    1    3    3    0    0 -0.24961851548E+01  0.17337702784E+01 -0.72708943772E+01  0.78805332783E+01  0.00000000000E+00 0.  1.
</event>
<event>
 7    1  0.3708346E-009  0.4614232E+02  0.7816164E-02  0.1320468E+00
        -11   -1    0    0    0    0  0.00000000000E+00  0.00000000000E+00  0.45593999997E+02  0.45594000000E+02  0.51100000000E-03 0. -1.
         11   -1    0    0    0    0 -0.00000000000E+00 -0.00000000000E+00 -0.45593999997E+02  0.45594000000E+02  0.51100000000E-03 0.  1.
    9900012    2    1    2    0    0  0.40504208123E+01 -0.22087053685E+02  0.39049578688E+02  0.46142318243E+02  0.10000004396E+02 0.  0.
        -12    1    1    2    0    0 -0.40504208123E+01  0.22087053685E+02 -0.39049578688E+02  0.45045681757E+02  0.00000000000E+00 0.  1.
         11    1    3    3    0    0  0.50947880231E+01 -0.22296244336E+02  0.35968283292E+02  0.42623899162E+02  0.51100000000E-03 0. -1.
        -11    1    3    3    0    0 -0.67514435414E+00  0.29107977101E+00  0.30517583357E+01  0.31390725593E+01  0.51100000000E-03 0.  1.
         12    1    3    3    0    0 -0.36922285669E+00 -0.81889120226E-01  0.29537059565E-01  0.37934652206E+00  0.00000000000E+00 0. -1.
</event>
<event>
 7    1  0.3708346E-009  0.4614232E+02  0.7816164E-02  0.1320468E+00
        -11   -1    0    0    0    0  0.00000000000E+00  0.00000000000E+00  0.45593999997E+02  0.45594000000E+02  0.51100000000E-03 0.  1.
         11   -1    0    0    0    0 -0.00000000000E+00 -0.00000000000E+00 -0.45593999997E+02  0.45594000000E+02  0.51100000000E-03 0. -1.
    9900012    2    1    2    0    0  0.20251221397E+02  0.26530979176E+02 -0.30250763835E+02  0.46142317224E+02  0.99999951039E+01 0.  0.
        -12    1    1    2    0    0 -0.20251221397E+02 -0.26530979176E+02  0.30250763835E+02  0.45045682776E+02  0.00000000000E+00 0.  1.
         11    1    3    3    0    0  0.10119273811E+02  0.60391554908E+01 -0.11692300091E+02  0.16600632012E+02  0.51100000000E-03 0. -1.
        -11    1    3    3    0    0  0.63684570789E+01  0.12746192924E+02 -0.13031177513E+02  0.19308916781E+02  0.51100000000E-03 0.  1.
         12    1    3    3    0    0  0.37634905066E+01  0.77456307614E+01 -0.55272862315E+01  0.10232768431E+02  0.00000000000E+00 0. -1.
</event>
<event>
 7    1  0.3708346E-009  0.4614232E+02  0.7816164E-02  0.1320468E+00
        -11   -1    0    0    0    0  0.00000000000E+00  0.00000000000E+00  0.45593999997E+02  0.45594000000E+02  0.51100000000E-03 0. -1.
         11   -1    0    0    0    0 -0.00000000000E+00 -0.00000000000E+00 -0.45593999997E+02  0.45594000000E+02  0.51100000000E-03 0.  1.
    9900012    2    1    2    0    0 -0.94218536961E+01 -0.23722436340E+02  0.37115874837E+02  0.46142317877E+02  0.10000001058E+02 0.  0.
        -12    1    1    2    0    0  0.94218536961E+01  0.23722436340E+02 -0.37115874837E+02  0.45045682123E+02  0.00000000000E+00 0.  1.
         11    1    3    3    0    0 -0.25734784231E+01 -0.57703145719E+01  0.45977084502E+01  0.78139775215E+01  0.51100000000E-03 0. -1.
        -11    1    3    3    0    0 -0.81425859347E+01 -0.15456453062E+02  0.28357908419E+02  0.33307275739E+02  0.51100000000E-03 0.  1.
        -12    1    3    3    0    0  0.12942106617E+01 -0.24956687067E+01  0.41602579677E+01  0.50210646170E+01  0.00000000000E+00 0.  1.
</event>
<event>
 7    1  0.3708346E-009  0.4614232E+02  0.7816164E-02  0.1320468E+00
        -11   -1    0    0    0    0  0.00000000000E+00  0.00000000000E+00  0.45593999997E+02  0.45594000000E+02  0.51100000000E-03 0. -1.
         11   -1    0    0    0    0 -0.00000000000E+00 -0.00000000000E+00 -0.45593999997E+02  0.45594000000E+02  0.51100000000E-03 0.  1.
    9900012    2    1    2    0    0  0.90148307043E+01 -0.40392256795E+02  0.17785160571E+02  0.46142317431E+02  0.99999969869E+01 0.  0.
        -12    1    1    2    0    0 -0.90148307043E+01  0.40392256795E+02 -0.17785160571E+02  0.45045682569E+02  0.00000000000E+00 0.  1.
         11    1    3    3    0    0  0.46293894169E+01 -0.34581691303E+02  0.15844437797E+02  0.38319327096E+02  0.51100000000E-03 0. -1.
        -11    1    3    3    0    0  0.42377834619E+01 -0.52496449955E+01  0.23148725038E+01  0.71327565653E+01  0.51100000000E-03 0.  1.
         12    1    3    3    0    0  0.14765782550E+00 -0.56092049638E+00 -0.37414972922E+00  0.69023376950E+00  0.00000000000E+00 0. -1.
</event>
<event>
 7    1  0.3708346E-009  0.4614231E+02  0.7816164E-02  0.1320468E+00
        -11   -1    0    0    0    0  0.00000000000E+00  0.00000000000E+00  0.45593999997E+02  0.45594000000E+02  0.51100000000E-03 0. -1.
         11   -1    0    0    0    0 -0.00000000000E+00 -0.00000000000E+00 -0.45593999997E+02  0.45594000000E+02  0.51100000000E-03 0.  1.
    9900012    2    1    2    0    0  0.15427331073E+02  0.41491906167E+02  0.83386678433E+01  0.46142309831E+02  0.99999276832E+01 0.  0.
        -12    1    1    2    0    0 -0.15427331073E+02 -0.41491906167E+02 -0.83386678433E+01  0.45045690169E+02  0.00000000000E+00 0.  1.
         11    1    3    3    0    0  0.10638692496E+02  0.22017775882E+02  0.85849967612E+01  0.25916527593E+02  0.51100000000E-03 0. -1.
        -11    1    3    3    0    0  0.14179357575E+01  0.10209493400E+02  0.63949886962E+00  0.10327306346E+02  0.51100000000E-03 0.  1.
         12    1    3    3    0    0  0.33707028201E+01  0.92646368851E+01 -0.88582778755E+00  0.98984758919E+01  0.00000000000E+00 0. -1.
</event>
<event>
 7    1  0.3708346E-009  0.4614232E+02  0.7816164E-02  0.1320468E+00
        -11   -1    0    0    0    0  0.00000000000E+00  0.00000000000E+00  0.45593999997E+02  0.45594000000E+02  0.51100000000E-03 0. -1.
         11   -1    0    0    0    0 -0.00000000000E+00 -0.00000000000E+00 -0.45593999997E+02  0.45594000000E+02  0.51100000000E-03 0.  1.
    9900012    2    1    2    0    0 -0.27102860613E+02  0.35614443425E+02  0.51146705156E+01  0.46142317761E+02  0.99999999986E+01 0.  0.
        -12    1    1    2    0    0  0.27102860613E+02 -0.35614443425E+02 -0.51146705156E+01  0.45045682239E+02  0.00000000000E+00 0.  1.
         11    1    3    3    0    0 -0.11649382361E+02  0.13277598844E+02 -0.20335236290E+01  0.17780268813E+02  0.51100000000E-03 0. -1.
        -11    1    3    3    0    0 -0.13138769210E+02  0.20469760454E+02  0.54118641400E+01  0.24918399289E+02  0.51100000000E-03 0.  1.
        -12    1    3    3    0    0 -0.23147090419E+01  0.18670841271E+01  0.17363300046E+01  0.34436496586E+01  0.00000000000E+00 0.  1.
</event>
<event>
 7    1  0.3708346E-009  0.4614232E+02  0.7816164E-02  0.1320468E+00
        -11   -1    0    0    0    0  0.00000000000E+00  0.00000000000E+00  0.45593999997E+02  0.45594000000E+02  0.51100000000E-03 0.  1.
         11   -1    0    0    0    0 -0.00000000000E+00 -0.00000000000E+00 -0.45593999997E+02  0.45594000000E+02  0.51100000000E-03 0. -1.
    9900012    2    1    2    0    0 -0.38890042282E+01  0.40432286284E+02 -0.19473554361E+02  0.46142318215E+02  0.10000004136E+02 0.  0.
        -12    1    1    2    0    0  0.38890042282E+01 -0.40432286284E+02  0.19473554361E+02  0.45045681785E+02  0.00000000000E+00 0.  1.
         11    1    3    3    0    0 -0.18309910409E+01  0.16932265318E+02 -0.11238932057E+02  0.20405090812E+02  0.51100000000E-03 0. -1.
        -11    1    3    3    0    0  0.22027704372E+01  0.67504455515E+01 -0.24779311884E+01  0.75206951792E+01  0.51100000000E-03 0.  1.
         12    1    3    3    0    0 -0.42607836245E+01  0.16749575414E+02 -0.57566911158E+01  0.18216532224E+02  0.00000000000E+00 0. -1.
</event>
<event>
 7    1  0.3708346E-009  0.4614232E+02  0.7816164E-02  0.1320468E+00
        -11   -1    0    0    0    0  0.00000000000E+00  0.00000000000E+00  0.45593999997E+02  0.45594000000E+02  0.51100000000E-03 0. -1.
         11   -1    0    0    0    0 -0.00000000000E+00 -0.00000000000E+00 -0.45593999997E+02  0.45594000000E+02  0.51100000000E-03 0.  1.
    9900012    2    1    2    0    0  0.42050530508E+02  0.83640377166E+01 -0.13816992236E+02  0.46142317439E+02  0.99999970606E+01 0.  0.
        -12    1    1    2    0    0 -0.42050530508E+02 -0.83640377166E+01  0.13816992236E+02  0.45045682561E+02  0.00000000000E+00 0.  1.
         11    1    3    3    0    0  0.24771749902E+02  0.19009888586E+01 -0.65437568055E+01  0.25691907388E+02  0.51100000000E-03 0. -1.
        -11    1    3    3    0    0  0.13644891395E+02  0.59157952978E+01 -0.37016116350E+01  0.15325848236E+02  0.51100000000E-03 0.  1.
        -12    1    3    3    0    0  0.36338892115E+01  0.54725356015E+00 -0.35716237954E+01  0.51245618151E+01  0.00000000000E+00 0.  1.
</event>
<event>
 7    1  0.3708346E-009  0.4614232E+02  0.7816164E-02  0.1320468E+00
        -11   -1    0    0    0    0  0.00000000000E+00  0.00000000000E+00  0.45593999997E+02  0.45594000000E+02  0.51100000000E-03 0.  1.
         11   -1    0    0    0    0 -0.00000000000E+00 -0.00000000000E+00 -0.45593999997E+02  0.45594000000E+02  0.51100000000E-03 0. -1.
    9900012    2    1    2    0    0  0.20248911181E+02 -0.36199895922E+01 -0.40074814179E+02  0.46142318074E+02  0.10000002854E+02 0.  0.
        -12    1    1    2    0    0 -0.20248911181E+02  0.36199895922E+01  0.40074814179E+02  0.45045681926E+02  0.00000000000E+00 0.  1.
         11    1    3    3    0    0  0.26109386656E+01 -0.93332583713E+00 -0.16050415733E+01  0.32037878436E+01  0.51100000000E-03 0.  1.
        -11    1    3    3    0    0  0.25987785562E+01  0.15398219672E+01 -0.10220480844E+02  0.10657529292E+02  0.51100000000E-03 0. -1.
         12    1    3    3    0    0  0.15039193960E+02 -0.42264857223E+01 -0.28249291762E+02  0.32281000938E+02  0.00000000000E+00 0. -1.
</event>
<event>
 7    1  0.3708346E-009  0.4614232E+02  0.7816164E-02  0.1320468E+00
        -11   -1    0    0    0    0  0.00000000000E+00  0.00000000000E+00  0.45593999997E+02  0.45594000000E+02  0.51100000000E-03 0.  1.
         11   -1    0    0    0    0 -0.00000000000E+00 -0.00000000000E+00 -0.45593999997E+02  0.45594000000E+02  0.51100000000E-03 0. -1.
    9900012    2    1    2    0    0  0.22240764429E+02  0.51176229926E+01 -0.38836477146E+02  0.46142316249E+02  0.99999862089E+01 0.  0.
        -12    1    1    2    0    0 -0.22240764429E+02 -0.51176229926E+01  0.38836477146E+02  0.45045683751E+02  0.00000000000E+00 0.  1.
         11    1    3    3    0    0  0.77000710101E+01  0.45766321994E+01 -0.91229697483E+01  0.12785352288E+02  0.51100000000E-03 0. -1.
        -11    1    3    3    0    0  0.15148042955E+01  0.28933099929E+00 -0.70397976728E+01  0.72067396246E+01  0.51100000000E-03 0.  1.
         12    1    3    3    0    0  0.13025889124E+02  0.25165979394E+00 -0.22673709725E+02  0.26150224336E+02  0.00000000000E+00 0. -1.
</event>
<event>
 7    1  0.3708346E-009  0.4614232E+02  0.7816164E-02  0.1320468E+00
        -11   -1    0    0    0    0  0.00000000000E+00  0.00000000000E+00  0.45593999997E+02  0.45594000000E+02  0.51100000000E-03 0.  1.
         11   -1    0    0    0    0 -0.00000000000E+00 -0.00000000000E+00 -0.45593999997E+02  0.45594000000E+02  0.51100000000E-03 0. -1.
    9900012    2    1    2    0    0  0.14120968880E+02 -0.28796316306E+02 -0.31630427688E+02  0.46142317070E+02  0.99999936947E+01 0.  0.
        -12    1    1    2    0    0 -0.14120968880E+02  0.28796316306E+02  0.31630427688E+02  0.45045682930E+02  0.00000000000E+00 0.  1.
         11    1    3    3    0    0  0.68648186094E+01 -0.10699861186E+02 -0.13444403383E+02  0.18503100998E+02  0.51100000000E-03 0. -1.
        -11    1    3    3    0    0  0.50724224323E+01 -0.14695468350E+02 -0.99300235355E+01  0.18446995068E+02  0.51100000000E-03 0.  1.
        -12    1    3    3    0    0  0.21837278387E+01 -0.34009867705E+01 -0.82560007694E+01  0.91922210043E+01  0.00000000000E+00 0.  1.
</event>
<event>
 7    1  0.3708346E-009  0.4614232E+02  0.7816164E-02  0.1320468E+00
        -11   -1    0    0    0    0  0.00000000000E+00  0.00000000000E+00  0.45593999997E+02  0.45594000000E+02  0.51100000000E-03 0.  1.
         11   -1    0    0    0    0 -0.00000000000E+00 -0.00000000000E+00 -0.45593999997E+02  0.45594000000E+02  0.51100000000E-03 0. -1.
    9900012    2    1    2    0    0  0.33904021651E+01  0.24654800165E+02 -0.37546763386E+02  0.46142318311E+02  0.10000005015E+02 0.  0.
        -12    1    1    2    0    0 -0.33904021651E+01 -0.24654800165E+02  0.37546763386E+02  0.45045681689E+02  0.00000000000E+00 0.  1.
         11    1    3    3    0    0  0.45606932753E+01  0.85923928007E+01 -0.15996205738E+02  0.18721851818E+02  0.51100000000E-03 0. -1.
        -11    1    3    3    0    0 -0.51598558514E+00  0.13354623883E+02 -0.20440259510E+02  0.24421638546E+02  0.51100000000E-03 0.  1.
         12    1    3    3    0    0 -0.65430552503E+00  0.27077834816E+01 -0.11102981379E+01  0.29988279475E+01  0.00000000000E+00 0. -1.
</event>
<event>
 7    1  0.3708346E-009  0.4614232E+02  0.7816164E-02  0.1320468E+00
        -11   -1    0    0    0    0  0.00000000000E+00  0.00000000000E+00  0.45593999997E+02  0.45594000000E+02  0.51100000000E-03 0.  1.
         11   -1    0    0    0    0 -0.00000000000E+00 -0.00000000000E+00 -0.45593999997E+02  0.45594000000E+02  0.51100000000E-03 0. -1.
    9900012    2    1    2    0    0  0.32883739751E+02 -0.18502140487E+02 -0.24605771821E+02  0.46142317082E+02  0.99999938078E+01 0.  0.
        -12    1    1    2    0    0 -0.32883739751E+02  0.18502140487E+02  0.24605771821E+02  0.45045682918E+02  0.00000000000E+00 0.  1.
         11    1    3    3    0    0  0.10848774691E+02 -0.11285190110E+02 -0.78312197731E+01  0.17503697653E+02  0.51100000000E-03 0. -1.
        -11    1    3    3    0    0  0.95763726285E+01 -0.31004491113E+01 -0.66269400817E+01  0.12051391311E+02  0.51100000000E-03 0.  1.
         12    1    3    3    0    0  0.12458592431E+02 -0.41165012656E+01 -0.10147611967E+02  0.16587228119E+02  0.00000000000E+00 0. -1.
</event>
<event>
 7    1  0.3708346E-009  0.4614232E+02  0.7816164E-02  0.1320468E+00
        -11   -1    0    0    0    0  0.00000000000E+00  0.00000000000E+00  0.45593999997E+02  0.45594000000E+02  0.51100000000E-03 0. -1.
         11   -1    0    0    0    0 -0.00000000000E+00 -0.00000000000E+00 -0.45593999997E+02  0.45594000000E+02  0.51100000000E-03 0.  1.
    9900012    2    1    2    0    0 -0.23408758359E+02 -0.12894697972E+02  0.36261140341E+02  0.46142317604E+02  0.99999985686E+01 0.  0.
        -12    1    1    2    0    0  0.23408758359E+02  0.12894697972E+02 -0.36261140341E+02  0.45045682396E+02  0.00000000000E+00 0.  1.
         11    1    3    3    0    0 -0.20273491648E+02 -0.98197239857E+01  0.29733660009E+02  0.37303243566E+02  0.51100000000E-03 0. -1.
        -11    1    3    3    0    0 -0.99921423355E+00  0.72699816622E+00  0.36281733095E+00  0.12878633837E+01  0.51100000000E-03 0.  1.
        -12    1    3    3    0    0 -0.21360524777E+01 -0.38019721526E+01  0.61646630006E+01  0.75512106544E+01  0.00000000000E+00 0.  1.
</event>
<event>
 7    1  0.3708346E-009  0.4614232E+02  0.7816164E-02  0.1320468E+00
        -11   -1    0    0    0    0  0.00000000000E+00  0.00000000000E+00  0.45593999997E+02  0.45594000000E+02  0.51100000000E-03 0.  1.
         11   -1    0    0    0    0 -0.00000000000E+00 -0.00000000000E+00 -0.45593999997E+02  0.45594000000E+02  0.51100000000E-03 0. -1.
    9900012    2    1    2    0    0 -0.39832639697E+00  0.17117321801E+02 -0.41664758967E+02  0.46142317529E+02  0.99999978830E+01 0.  0.
        -12    1    1    2    0    0  0.39832639697E+00 -0.17117321801E+02  0.41664758967E+02  0.45045682471E+02  0.00000000000E+00 0.  1.
         11    1    3    3    0    0 -0.11816944361E+01  0.14199107743E+02 -0.30268849675E+02  0.33454660712E+02  0.51100000000E-03 0. -1.
        -11    1    3    3    0    0  0.17409053176E+01 -0.19249169586E+00 -0.16261723630E+01  0.23900295381E+01  0.51100000000E-03 0.  1.
        -12    1    3    3    0    0 -0.95753727841E+00  0.31107057532E+01 -0.97697369281E+01  0.10297627278E+02  0.00000000000E+00 0.  1.
</event>
<event>
 7    1  0.3708346E-009  0.4614232E+02  0.7816164E-02  0.1320468E+00
        -11   -1    0    0    0    0  0.00000000000E+00  0.00000000000E+00  0.45593999997E+02  0.45594000000E+02  0.51100000000E-03 0. -1.
         11   -1    0    0    0    0 -0.00000000000E+00 -0.00000000000E+00 -0.45593999997E+02  0.45594000000E+02  0.51100000000E-03 0.  1.
    9900012    2    1    2    0    0 -0.47838887735E+01  0.17657952118E+02 -0.41163388429E+02  0.46142318612E+02  0.10000007756E+02 0.  0.
        -12    1    1    2    0    0  0.47838887735E+01 -0.17657952118E+02  0.41163388429E+02  0.45045681388E+02  0.00000000000E+00 0.  1.
         11    1    3    3    0    0  0.23821385688E+01  0.33724504342E+01 -0.62509720720E+01  0.74915057363E+01  0.51100000000E-03 0. -1.
        -11    1    3    3    0    0 -0.44179558413E+01  0.60678387116E+01 -0.11992799230E+02  0.14147940983E+02  0.51100000000E-03 0.  1.
         12    1    3    3    0    0 -0.27480715010E+01  0.82176629724E+01 -0.22919617127E+02  0.24502871892E+02  0.00000000000E+00 0. -1.
</event>
<event>
 7    1  0.3708346E-009  0.4614232E+02  0.7816164E-02  0.1320468E+00
        -11   -1    0    0    0    0  0.00000000000E+00  0.00000000000E+00  0.45593999997E+02  0.45594000000E+02  0.51100000000E-03 0. -1.
         11   -1    0    0    0    0 -0.00000000000E+00 -0.00000000000E+00 -0.45593999997E+02  0.45594000000E+02  0.51100000000E-03 0.  1.
    9900012    2    1    2    0    0 -0.56076693260E+01 -0.31410490755E+02  0.31796993729E+02  0.46142315468E+02  0.99999790903E+01 0.  0.
        -12    1    1    2    0    0  0.56076693260E+01  0.31410490755E+02 -0.31796993729E+02  0.45045684532E+02  0.00000000000E+00 0.  1.
         11    1    3    3    0    0 -0.26071627838E+01 -0.14821656567E+02  0.19288612715E+02  0.24464860145E+02  0.51100000000E-03 0. -1.
        -11    1    3    3    0    0  0.70549501008E+00 -0.73517817152E+00  0.21537261263E+01  0.23825924203E+01  0.51100000000E-03 0.  1.
        -12    1    3    3    0    0 -0.37060015524E+01 -0.15853656017E+02  0.10354654887E+02  0.19294862903E+02  0.00000000000E+00 0.  1.
</event>
<event>
 7    1  0.3708346E-009  0.4614232E+02  0.7816164E-02  0.1320468E+00
        -11   -1    0    0    0    0  0.00000000000E+00  0.00000000000E+00  0.45593999997E+02  0.45594000000E+02  0.51100000000E-03 0.  1.
         11   -1    0    0    0    0 -0.00000000000E+00 -0.00000000000E+00 -0.45593999997E+02  0.45594000000E+02  0.51100000000E-03 0. -1.
    9900012    2    1    2    0    0 -0.44066427015E+02  0.79053317812E+01  0.49768668533E+01  0.46142318031E+02  0.10000002458E+02 0.  0.
        -12    1    1    2    0    0  0.44066427015E+02 -0.79053317812E+01 -0.49768668533E+01  0.45045681969E+02  0.00000000000E+00 0.  1.
         11    1    3    3    0    0 -0.13522063736E+02  0.34290647841E+01 -0.24905810248E+01  0.14170662901E+02  0.51100000000E-03 0. -1.
        -11    1    3    3    0    0 -0.14154496868E+02  0.58866375935E+00  0.22998530657E+01  0.14352199517E+02  0.51100000000E-03 0.  1.
        -12    1    3    3    0    0 -0.16389866411E+02  0.38876032378E+01  0.51675948124E+01  0.17619455612E+02  0.00000000000E+00 0.  1.
</event>
<event>
 7    1  0.3708346E-009  0.4614232E+02  0.7816164E-02  0.1320468E+00
        -11   -1    0    0    0    0  0.00000000000E+00  0.00000000000E+00  0.45593999997E+02  0.45594000000E+02  0.51100000000E-03 0. -1.
         11   -1    0    0    0    0 -0.00000000000E+00 -0.00000000000E+00 -0.45593999997E+02  0.45594000000E+02  0.51100000000E-03 0.  1.
    9900012    2    1    2    0    0  0.57289368893E+01  0.16741243783E+02  0.41424914426E+02  0.46142317671E+02  0.99999991816E+01 0.  0.
        -12    1    1    2    0    0 -0.57289368893E+01 -0.16741243783E+02 -0.41424914426E+02  0.45045682329E+02  0.00000000000E+00 0.  1.
         11    1    3    3    0    0  0.38371991644E+01  0.24409898926E+01  0.17925131265E+02  0.18493048970E+02  0.51100000000E-03 0. -1.
        -11    1    3    3    0    0  0.93149889336E+00  0.31343811497E+01  0.40907473600E+01  0.52370076957E+01  0.51100000000E-03 0.  1.
         12    1    3    3    0    0  0.96023883152E+00  0.11165872740E+02  0.19409035801E+02  0.22412261006E+02  0.00000000000E+00 0. -1.
</event>
<event>
 7    1  0.3708346E-009  0.4614232E+02  0.7816164E-02  0.1320468E+00
        -11   -1    0    0    0    0  0.00000000000E+00  0.00000000000E+00  0.45593999997E+02  0.45594000000E+02  0.51100000000E-03 0.  1.
         11   -1    0    0    0    0 -0.00000000000E+00 -0.00000000000E+00 -0.45593999997E+02  0.45594000000E+02  0.51100000000E-03 0. -1.
    9900012    2    1    2    0    0 -0.14321628431E+01  0.24494347008E+02 -0.37776835111E+02  0.46142318778E+02  0.10000009274E+02 0.  0.
        -12    1    1    2    0    0  0.14321628431E+01 -0.24494347008E+02  0.37776835111E+02  0.45045681222E+02  0.00000000000E+00 0.  1.
         11    1    3    3    0    0  0.93067188366E+00  0.10757308223E+02 -0.20020242550E+02  0.22746339099E+02  0.51100000000E-03 0. -1.
        -11    1    3    3    0    0 -0.54854542361E+00  0.67276458860E+01 -0.39888704239E+01  0.78404852381E+01  0.51100000000E-03 0.  1.
         12    1    3    3    0    0 -0.18142893032E+01  0.70093928990E+01 -0.13767722137E+02  0.15555494441E+02  0.00000000000E+00 0. -1.
</event>
<event>
 7    1  0.3708346E-009  0.4614232E+02  0.7816164E-02  0.1320468E+00
        -11   -1    0    0    0    0  0.00000000000E+00  0.00000000000E+00  0.45593999997E+02  0.45594000000E+02  0.51100000000E-03 0.  1.
         11   -1    0    0    0    0 -0.00000000000E+00 -0.00000000000E+00 -0.45593999997E+02  0.45594000000E+02  0.51100000000E-03 0. -1.
    9900012    2    1    2    0    0 -0.62055489670E+01  0.36765417552E+02 -0.25276644339E+02  0.46142317468E+02  0.99999973292E+01 0.  0.
        -12    1    1    2    0    0  0.62055489670E+01 -0.36765417552E+02  0.25276644339E+02  0.45045682532E+02  0.00000000000E+00 0.  1.
         11    1    3    3    0    0 -0.35272005806E+01  0.75149267380E+01 -0.27374100852E+01  0.87412059837E+01  0.51100000000E-03 0. -1.
        -11    1    3    3    0    0 -0.22757018711E+01  0.27472848251E+02 -0.22490967045E+02  0.35577799383E+02  0.51100000000E-03 0.  1.
        -12    1    3    3    0    0 -0.40264651532E+00  0.17776425626E+01 -0.48267208043E-01  0.18233121016E+01  0.00000000000E+00 0.  1.
</event>
<event>
 7    1  0.3708346E-009  0.4614232E+02  0.7816164E-02  0.1320468E+00
        -11   -1    0    0    0    0  0.00000000000E+00  0.00000000000E+00  0.45593999997E+02  0.45594000000E+02  0.51100000000E-03 0.  1.
         11   -1    0    0    0    0 -0.00000000000E+00 -0.00000000000E+00 -0.45593999997E+02  0.45594000000E+02  0.51100000000E-03 0. -1.
    9900012    2    1    2    0    0  0.15147873763E+02  0.25267376473E+02 -0.34076606995E+02  0.46142317214E+02  0.99999950092E+01 0.  0.
        -12    1    1    2    0    0 -0.15147873763E+02 -0.25267376473E+02  0.34076606995E+02  0.45045682786E+02  0.00000000000E+00 0.  1.
         11    1    3    3    0    0  0.81652296370E+01  0.11338906391E+02 -0.15106324795E+02  0.20577726362E+02  0.51100000000E-03 0. -1.
        -11    1    3    3    0    0  0.77885357723E+00  0.59224755846E+01 -0.30796137466E+01  0.67205915688E+01  0.51100000000E-03 0.  1.
        -12    1    3    3    0    0  0.62037905491E+01  0.80059944975E+01 -0.15890668453E+02  0.18843999283E+02  0.00000000000E+00 0.  1.
</event>
<event>
 7    1  0.3708346E-009  0.4614232E+02  0.7816164E-02  0.1320468E+00
        -11   -1    0    0    0    0  0.00000000000E+00  0.00000000000E+00  0.45593999997E+02  0.45594000000E+02  0.51100000000E-03 0.  1.
         11   -1    0    0    0    0 -0.00000000000E+00 -0.00000000000E+00 -0.45593999997E+02  0.45594000000E+02  0.51100000000E-03 0. -1.
    9900012    2    1    2    0    0 -0.18087117228E+02  0.38252419938E+02 -0.15450633398E+02  0.46142317486E+02  0.99999974927E+01 0.  0.
        -12    1    1    2    0    0  0.18087117228E+02 -0.38252419938E+02  0.15450633398E+02  0.45045682514E+02  0.00000000000E+00 0.  1.
         11    1    3    3    0    0 -0.55001487733E+01  0.12153592495E+02 -0.25339605828E+01  0.13578748233E+02  0.51100000000E-03 0. -1.
        -11    1    3    3    0    0 -0.34553144649E+01  0.11900579706E+02 -0.22498571207E+01  0.12594635871E+02  0.51100000000E-03 0.  1.
         12    1    3    3    0    0 -0.91316539899E+01  0.14198247737E+02 -0.10666815694E+02  0.19968933383E+02  0.00000000000E+00 0. -1.
</event>
<event>
 7    1  0.3708346E-009  0.4614232E+02  0.7816164E-02  0.1320468E+00
        -11   -1    0    0    0    0  0.00000000000E+00  0.00000000000E+00  0.45593999997E+02  0.45594000000E+02  0.51100000000E-03 0.  1.
         11   -1    0    0    0    0 -0.00000000000E+00 -0.00000000000E+00 -0.45593999997E+02  0.45594000000E+02  0.51100000000E-03 0. -1.
    9900012    2    1    2    0    0 -0.24359041705E+02 -0.37065449305E+01 -0.37709576568E+02  0.46142317043E+02  0.99999934505E+01 0.  0.
        -12    1    1    2    0    0  0.24359041705E+02  0.37065449305E+01  0.37709576568E+02  0.45045682957E+02  0.00000000000E+00 0.  1.
         11    1    3    3    0    0 -0.21994622475E+02 -0.34775023305E+01 -0.31317792272E+02  0.38427341221E+02  0.51100000000E-03 0. -1.
        -11    1    3    3    0    0 -0.99239329567E+00 -0.20382345448E+00  0.15590452338E+00  0.10250341143E+01  0.51100000000E-03 0.  1.
         12    1    3    3    0    0 -0.13720259349E+01 -0.25219145444E-01 -0.65476888201E+01  0.66899417080E+01  0.00000000000E+00 0. -1.
</event>
<event>
 7    1  0.3708346E-009  0.4614232E+02  0.7816164E-02  0.1320468E+00
        -11   -1    0    0    0    0  0.00000000000E+00  0.00000000000E+00  0.45593999997E+02  0.45594000000E+02  0.51100000000E-03 0. -1.
         11   -1    0    0    0    0 -0.00000000000E+00 -0.00000000000E+00 -0.45593999997E+02  0.45594000000E+02  0.51100000000E-03 0.  1.
    9900012    2    1    2    0    0 -0.35887389416E+02  0.16417953598E+02  0.21717721962E+02  0.46142319112E+02  0.10000012320E+02 0.  0.
        -12    1    1    2    0    0  0.35887389416E+02 -0.16417953598E+02 -0.21717721962E+02  0.45045680888E+02  0.00000000000E+00 0.  1.
         11    1    3    3    0    0 -0.94096607181E+01  0.57152079433E+01  0.52583717505E+01  0.12200647130E+02  0.51100000000E-03 0. -1.
        -11    1    3    3    0    0 -0.21834493990E+02  0.11729366683E+02  0.12528877140E+02  0.27772215130E+02  0.51100000000E-03 0.  1.
        -12    1    3    3    0    0 -0.46432347079E+01 -0.10266210278E+01  0.39304730714E+01  0.61694568523E+01  0.00000000000E+00 0.  1.
</event>
<event>
 7    1  0.3708346E-009  0.4614232E+02  0.7816164E-02  0.1320468E+00
        -11   -1    0    0    0    0  0.00000000000E+00  0.00000000000E+00  0.45593999997E+02  0.45594000000E+02  0.51100000000E-03 0. -1.
         11   -1    0    0    0    0 -0.00000000000E+00 -0.00000000000E+00 -0.45593999997E+02  0.45594000000E+02  0.51100000000E-03 0.  1.
    9900012    2    1    2    0    0  0.20597085205E+02  0.38207118282E+02  0.12045318922E+02  0.46142317473E+02  0.99999973750E+01 0.  0.
        -12    1    1    2    0    0 -0.20597085205E+02 -0.38207118282E+02 -0.12045318922E+02  0.45045682527E+02  0.00000000000E+00 0.  1.
         11    1    3    3    0    0  0.11210658308E+02  0.25709177865E+02  0.57210241684E+01  0.28624653780E+02  0.51100000000E-03 0. -1.
        -11    1    3    3    0    0  0.35377823107E+00  0.29358270210E+01  0.23482928165E+01  0.37760718673E+01  0.51100000000E-03 0.  1.
         12    1    3    3    0    0  0.90326486658E+01  0.95621133960E+01  0.39760019368E+01  0.13741591826E+02  0.00000000000E+00 0. -1.
</event>
<event>
 7    1  0.3708346E-009  0.4614232E+02  0.7816164E-02  0.1320468E+00
        -11   -1    0    0    0    0  0.00000000000E+00  0.00000000000E+00  0.45593999997E+02  0.45594000000E+02  0.51100000000E-03 0.  1.
         11   -1    0    0    0    0 -0.00000000000E+00 -0.00000000000E+00 -0.45593999997E+02  0.45594000000E+02  0.51100000000E-03 0. -1.
    9900012    2    1    2    0    0 -0.38567376944E+02  0.76073654847E+01 -0.21995429067E+02  0.46142317922E+02  0.10000001472E+02 0.  0.
        -12    1    1    2    0    0  0.38567376944E+02 -0.76073654847E+01  0.21995429067E+02  0.45045682078E+02  0.00000000000E+00 0.  1.
         11    1    3    3    0    0 -0.71565710401E+01  0.23168493950E+01 -0.11263196048E+01  0.76061091423E+01  0.51100000000E-03 0. -1.
        -11    1    3    3    0    0 -0.17886271619E+02  0.18267757256E+01 -0.85142057224E+01  0.19893403966E+02  0.51100000000E-03 0.  1.
         12    1    3    3    0    0 -0.13524534285E+02  0.34637403641E+01 -0.12354903740E+02  0.18642804815E+02  0.00000000000E+00 0. -1.
</event>
<event>
 7    1  0.3708346E-009  0.4614232E+02  0.7816164E-02  0.1320468E+00
        -11   -1    0    0    0    0  0.00000000000E+00  0.00000000000E+00  0.45593999997E+02  0.45594000000E+02  0.51100000000E-03 0.  1.
         11   -1    0    0    0    0 -0.00000000000E+00 -0.00000000000E+00 -0.45593999997E+02  0.45594000000E+02  0.51100000000E-03 0. -1.
    9900012    2    1    2    0    0  0.19962732908E+02 -0.26908503269E+02 -0.30108721918E+02  0.46142318866E+02  0.10000010073E+02 0.  0.
        -12    1    1    2    0    0 -0.19962732908E+02  0.26908503269E+02  0.30108721918E+02  0.45045681134E+02  0.00000000000E+00 0.  1.
         11    1    3    3    0    0  0.31942240521E+01 -0.46575918915E+01 -0.44761230566E+01  0.72063796321E+01  0.51100000000E-03 0. -1.
        -11    1    3    3    0    0  0.17801487085E+02 -0.19741933249E+02 -0.22921621978E+02  0.35100393519E+02  0.51100000000E-03 0.  1.
        -12    1    3    3    0    0 -0.10329782283E+01 -0.25089781286E+01 -0.27109768830E+01  0.38355457148E+01  0.00000000000E+00 0.  1.
</event>
<event>
 7    1  0.3708346E-009  0.4614232E+02  0.7816164E-02  0.1320468E+00
        -11   -1    0    0    0    0  0.00000000000E+00  0.00000000000E+00  0.45593999997E+02  0.45594000000E+02  0.51100000000E-03 0.  1.
         11   -1    0    0    0    0 -0.00000000000E+00 -0.00000000000E+00 -0.45593999997E+02  0.45594000000E+02  0.51100000000E-03 0. -1.
    9900012    2    1    2    0    0 -0.31244826020E+02  0.29715890810E+02  0.13032278659E+02  0.46142316448E+02  0.99999880228E+01 0.  0.
        -12    1    1    2    0    0  0.31244826020E+02 -0.29715890810E+02 -0.13032278659E+02  0.45045683552E+02  0.00000000000E+00 0.  1.
         11    1    3    3    0    0 -0.17846615579E+02  0.10332455223E+02  0.54443456264E+01  0.21328436842E+02  0.51100000000E-03 0. -1.
        -11    1    3    3    0    0 -0.53593474205E+01  0.64250816739E+01  0.30175531297E+01  0.88943749888E+01  0.51100000000E-03 0.  1.
         12    1    3    3    0    0 -0.80388630211E+01  0.12958353912E+02  0.45703799030E+01  0.15919504617E+02  0.00000000000E+00 0. -1.
</event>
<event>
 7    1  0.3708346E-009  0.4614232E+02  0.7816164E-02  0.1320468E+00
        -11   -1    0    0    0    0  0.00000000000E+00  0.00000000000E+00  0.45593999997E+02  0.45594000000E+02  0.51100000000E-03 0.  1.
         11   -1    0    0    0    0 -0.00000000000E+00 -0.00000000000E+00 -0.45593999997E+02  0.45594000000E+02  0.51100000000E-03 0. -1.
    9900012    2    1    2    0    0  0.12606746316E+02  0.14057346234E+02 -0.40897122217E+02  0.46142316062E+02  0.99999845026E+01 0.  0.
        -12    1    1    2    0    0 -0.12606746316E+02 -0.14057346234E+02  0.40897122217E+02  0.45045683938E+02  0.00000000000E+00 0.  1.
         11    1    3    3    0    0  0.35295202968E+01  0.25742596128E+01 -0.13175423469E+02  0.13880782036E+02  0.51100000000E-03 0. -1.
        -11    1    3    3    0    0  0.56048877991E+01  0.13591752655E+01 -0.87685719903E+01  0.10495236046E+02  0.51100000000E-03 0.  1.
        -12    1    3    3    0    0  0.34723382201E+01  0.10123911356E+02 -0.18953126758E+02  0.21766297980E+02  0.00000000000E+00 0.  1.
</event>
<event>
 7    1  0.3708346E-009  0.4614232E+02  0.7816164E-02  0.1320468E+00
        -11   -1    0    0    0    0  0.00000000000E+00  0.00000000000E+00  0.45593999997E+02  0.45594000000E+02  0.51100000000E-03 0.  1.
         11   -1    0    0    0    0 -0.00000000000E+00 -0.00000000000E+00 -0.45593999997E+02  0.45594000000E+02  0.51100000000E-03 0. -1.
    9900012    2    1    2    0    0 -0.34861380229E+01  0.80036710107E+01 -0.44191647101E+02  0.46142316727E+02  0.99999905746E+01 0.  0.
        -12    1    1    2    0    0  0.34861380229E+01 -0.80036710107E+01  0.44191647101E+02  0.45045683273E+02  0.00000000000E+00 0.  1.
         11    1    3    3    0    0 -0.78498518595E+00  0.37116246593E+01 -0.19830999034E+02  0.20190613718E+02  0.51100000000E-03 0. -1.
        -11    1    3    3    0    0 -0.94322493088E+00 -0.47269359826E+00 -0.16862504633E+02  0.16895477953E+02  0.51100000000E-03 0.  1.
        -12    1    3    3    0    0 -0.17579279061E+01  0.47647399497E+01 -0.74981434339E+01  0.90562250561E+01  0.00000000000E+00 0.  1.
</event>
<event>
 7    1  0.3708346E-009  0.4614232E+02  0.7816164E-02  0.1320468E+00
        -11   -1    0    0    0    0  0.00000000000E+00  0.00000000000E+00  0.45593999997E+02  0.45594000000E+02  0.51100000000E-03 0. -1.
         11   -1    0    0    0    0 -0.00000000000E+00 -0.00000000000E+00 -0.45593999997E+02  0.45594000000E+02  0.51100000000E-03 0.  1.
    9900012    2    1    2    0    0  0.42534004030E+02  0.44226885565E+01 -0.14156688392E+02  0.46142317641E+02  0.99999989087E+01 0.  0.
        -12    1    1    2    0    0 -0.42534004030E+02 -0.44226885565E+01  0.14156688392E+02  0.45045682359E+02  0.00000000000E+00 0.  1.
         11    1    3    3    0    0  0.70375341912E+00 -0.43650885820E+00  0.44640495113E+00  0.94079035907E+00  0.51100000000E-03 0. -1.
        -11    1    3    3    0    0  0.35644514127E+02  0.41073105722E+01 -0.15147060263E+02  0.38946563678E+02  0.51100000000E-03 0.  1.
        -12    1    3    3    0    0  0.61857364845E+01  0.75188684248E+00  0.54396691986E+00  0.62549636042E+01  0.00000000000E+00 0.  1.
</event>
<event>
 7    1  0.3708346E-009  0.4614232E+02  0.7816164E-02  0.1320468E+00
        -11   -1    0    0    0    0  0.00000000000E+00  0.00000000000E+00  0.45593999997E+02  0.45594000000E+02  0.51100000000E-03 0.  1.
         11   -1    0    0    0    0 -0.00000000000E+00 -0.00000000000E+00 -0.45593999997E+02  0.45594000000E+02  0.51100000000E-03 0. -1.
    9900012    2    1    2    0    0  0.30353546496E+02  0.29367994771E+02 -0.15661944112E+02  0.46142318796E+02  0.10000009438E+02 0.  0.
        -12    1    1    2    0    0 -0.30353546496E+02 -0.29367994771E+02  0.15661944112E+02  0.45045681204E+02  0.00000000000E+00 0.  1.
         11    1    3    3    0    0  0.96317740198E+01  0.65125038573E+01 -0.10496733535E+01  0.11674142010E+02  0.51100000000E-03 0. -1.
        -11    1    3    3    0    0  0.31104415923E+00  0.12721775671E+01 -0.15166515475E+01  0.20038503958E+01  0.51100000000E-03 0.  1.
         12    1    3    3    0    0  0.20410728317E+02  0.21583313347E+02 -0.13095619211E+02  0.32464326390E+02  0.00000000000E+00 0. -1.
</event>
<event>
 7    1  0.3708346E-009  0.4614232E+02  0.7816164E-02  0.1320468E+00
        -11   -1    0    0    0    0  0.00000000000E+00  0.00000000000E+00  0.45593999997E+02  0.45594000000E+02  0.51100000000E-03 0. -1.
         11   -1    0    0    0    0 -0.00000000000E+00 -0.00000000000E+00 -0.45593999997E+02  0.45594000000E+02  0.51100000000E-03 0.  1.
    9900012    2    1    2    0    0 -0.43328576735E+02  0.63826708648E+01  0.10536104206E+02  0.46142317176E+02  0.99999946627E+01 0.  0.
        -12    1    1    2    0    0  0.43328576735E+02 -0.63826708648E+01 -0.10536104206E+02  0.45045682824E+02  0.00000000000E+00 0.  1.
         11    1    3    3    0    0 -0.28712390968E+02  0.43841643559E+01  0.48645014962E+01  0.29449714214E+02  0.51100000000E-03 0. -1.
        -11    1    3    3    0    0 -0.75109684216E+01 -0.16467951291E+01  0.23171704449E+01  0.80309314503E+01  0.51100000000E-03 0.  1.
        -12    1    3    3    0    0 -0.71052173451E+01  0.36453016380E+01  0.33544322647E+01  0.86616715114E+01  0.00000000000E+00 0.  1.
</event>
<event>
 7    1  0.3708346E-009  0.4614232E+02  0.7816164E-02  0.1320468E+00
        -11   -1    0    0    0    0  0.00000000000E+00  0.00000000000E+00  0.45593999997E+02  0.45594000000E+02  0.51100000000E-03 0.  1.
         11   -1    0    0    0    0 -0.00000000000E+00 -0.00000000000E+00 -0.45593999997E+02  0.45594000000E+02  0.51100000000E-03 0. -1.
    9900012    2    1    2    0    0  0.11194649017E+02 -0.30632178847E+02 -0.31071899556E+02  0.46142317748E+02  0.99999998783E+01 0.  0.
        -12    1    1    2    0    0 -0.11194649017E+02  0.30632178847E+02  0.31071899556E+02  0.45045682252E+02  0.00000000000E+00 0.  1.
         11    1    3    3    0    0  0.67004404988E+01 -0.13431033609E+02 -0.19083694061E+02  0.24279125725E+02  0.51100000000E-03 0. -1.
        -11    1    3    3    0    0 -0.73247571497E+00 -0.13712815026E+01 -0.15450823092E+01  0.21918515543E+01  0.51100000000E-03 0.  1.
         12    1    3    3    0    0  0.52266842336E+01 -0.15829863735E+02 -0.10443123186E+02  0.19671340469E+02  0.00000000000E+00 0. -1.
</event>
<event>
 7    1  0.3708346E-009  0.4614232E+02  0.7816164E-02  0.1320468E+00
        -11   -1    0    0    0    0  0.00000000000E+00  0.00000000000E+00  0.45593999997E+02  0.45594000000E+02  0.51100000000E-03 0.  1.
         11   -1    0    0    0    0 -0.00000000000E+00 -0.00000000000E+00 -0.45593999997E+02  0.45594000000E+02  0.51100000000E-03 0. -1.
    9900012    2    1    2    0    0  0.44455133935E+02 -0.70938879800E+01  0.15910111463E+01  0.46142317673E+02  0.99999991938E+01 0.  0.
        -12    1    1    2    0    0 -0.44455133935E+02  0.70938879800E+01 -0.15910111463E+01  0.45045682327E+02  0.00000000000E+00 0.  1.
         11    1    3    3    0    0  0.24686539584E+02 -0.12923861362E+01  0.15049347375E+01  0.24766112480E+02  0.51100000000E-03 0. -1.
        -11    1    3    3    0    0  0.83997284008E-01 -0.11414988408E+01  0.82258566048E-01  0.11475373110E+01  0.51100000000E-03 0.  1.
        -12    1    3    3    0    0  0.19684597067E+02 -0.46600030029E+01  0.38178427320E-02  0.20228667881E+02  0.00000000000E+00 0.  1.
</event>
<event>
 7    1  0.3708346E-009  0.4614232E+02  0.7816164E-02  0.1320468E+00
        -11   -1    0    0    0    0  0.00000000000E+00  0.00000000000E+00  0.45593999997E+02  0.45594000000E+02  0.51100000000E-03 0.  1.
         11   -1    0    0    0    0 -0.00000000000E+00 -0.00000000000E+00 -0.45593999997E+02  0.45594000000E+02  0.51100000000E-03 0. -1.
    9900012    2    1    2    0    0  0.28209127185E+02 -0.10070390918E+02 -0.33644403050E+02  0.46142317783E+02  0.10000000204E+02 0.  0.
        -12    1    1    2    0    0 -0.28209127185E+02  0.10070390918E+02  0.33644403050E+02  0.45045682217E+02  0.00000000000E+00 0.  1.
         11    1    3    3    0    0  0.20245018018E+02 -0.89682122954E+01 -0.24858971402E+02  0.33290509846E+02  0.51100000000E-03 0. -1.
        -11    1    3    3    0    0  0.79038272915E+01 -0.52860662326E-01 -0.61508196532E+01  0.10015281462E+02  0.51100000000E-03 0.  1.
        -12    1    3    3    0    0  0.60281875292E-01 -0.10493179604E+01 -0.26346119942E+01  0.28365264755E+01  0.00000000000E+00 0.  1.
</event>
<event>
 7    1  0.3708346E-009  0.4614232E+02  0.7816164E-02  0.1320468E+00
        -11   -1    0    0    0    0  0.00000000000E+00  0.00000000000E+00  0.45593999997E+02  0.45594000000E+02  0.51100000000E-03 0.  1.
         11   -1    0    0    0    0 -0.00000000000E+00 -0.00000000000E+00 -0.45593999997E+02  0.45594000000E+02  0.51100000000E-03 0. -1.
    9900012    2    1    2    0    0 -0.17623035822E+02 -0.32752130151E+02  0.25413383398E+02  0.46142317890E+02  0.10000001175E+02 0.  0.
        -12    1    1    2    0    0  0.17623035822E+02  0.32752130151E+02 -0.25413383398E+02  0.45045682110E+02  0.00000000000E+00 0.  1.
         11    1    3    3    0    0 -0.13048172639E+02 -0.21828738309E+02  0.12734607063E+02  0.28441498601E+02  0.51100000000E-03 0. -1.
        -11    1    3    3    0    0 -0.11866533302E+01 -0.61750021123E+01  0.82692761032E+01  0.10388441882E+02  0.51100000000E-03 0.  1.
         12    1    3    3    0    0 -0.33882098531E+01 -0.47483897293E+01  0.44095002324E+01  0.73123774062E+01  0.00000000000E+00 0. -1.
</event>
<event>
 7    1  0.3708346E-009  0.4614232E+02  0.7816164E-02  0.1320468E+00
        -11   -1    0    0    0    0  0.00000000000E+00  0.00000000000E+00  0.45593999997E+02  0.45594000000E+02  0.51100000000E-03 0.  1.
         11   -1    0    0    0    0 -0.00000000000E+00 -0.00000000000E+00 -0.45593999997E+02  0.45594000000E+02  0.51100000000E-03 0. -1.
    9900012    2    1    2    0    0 -0.10040603675E+02  0.42675371745E+02 -0.10349514146E+02  0.46142317423E+02  0.99999969197E+01 0.  0.
        -12    1    1    2    0    0  0.10040603675E+02 -0.42675371745E+02  0.10349514146E+02  0.45045682577E+02  0.00000000000E+00 0.  1.
         11    1    3    3    0    0  0.64417270947E+00  0.64113930169E+01  0.53143563192E+00  0.64655504784E+01  0.51100000000E-03 0. -1.
        -11    1    3    3    0    0 -0.10733513489E+02  0.34971795301E+02 -0.11348491193E+02  0.38301736658E+02  0.51100000000E-03 0.  1.
        -12    1    3    3    0    0  0.48737104411E-01  0.12921834276E+01  0.46754141542E+00  0.13750302873E+01  0.00000000000E+00 0.  1.
</event>
<event>
 7    1  0.3708346E-009  0.4614232E+02  0.7816164E-02  0.1320468E+00
        -11   -1    0    0    0    0  0.00000000000E+00  0.00000000000E+00  0.45593999997E+02  0.45594000000E+02  0.51100000000E-03 0.  1.
         11   -1    0    0    0    0 -0.00000000000E+00 -0.00000000000E+00 -0.45593999997E+02  0.45594000000E+02  0.51100000000E-03 0. -1.
    9900012    2    1    2    0    0  0.27864290723E+02  0.62714747635E+01 -0.34833365622E+02  0.46142318145E+02  0.10000003500E+02 0.  0.
        -12    1    1    2    0    0 -0.27864290723E+02 -0.62714747635E+01  0.34833365622E+02  0.45045681855E+02  0.00000000000E+00 0.  1.
         11    1    3    3    0    0  0.11950571902E+02 -0.73165743924E+00 -0.14940816289E+02  0.19146265512E+02  0.51100000000E-03 0. -1.
        -11    1    3    3    0    0  0.68563181019E+01  0.31942939903E+01 -0.47069553638E+01  0.89088742874E+01  0.51100000000E-03 0.  1.
         12    1    3    3    0    0  0.90574007195E+01  0.38088382124E+01 -0.15185593969E+02  0.18087178346E+02  0.00000000000E+00 0. -1.
</event>
<event>
 7    1  0.3708346E-009  0.4614232E+02  0.7816164E-02  0.1320468E+00
        -11   -1    0    0    0    0  0.00000000000E+00  0.00000000000E+00  0.45593999997E+02  0.45594000000E+02  0.51100000000E-03 0.  1.
         11   -1    0    0    0    0 -0.00000000000E+00 -0.00000000000E+00 -0.45593999997E+02  0.45594000000E+02  0.51100000000E-03 0. -1.
    9900012    2    1    2    0    0  0.27015744387E+02 -0.75685696774E+01 -0.35241735196E+02  0.46142316618E+02  0.99999895718E+01 0.  0.
        -12    1    1    2    0    0 -0.27015744387E+02  0.75685696774E+01  0.35241735196E+02  0.45045683382E+02  0.00000000000E+00 0.  1.
         11    1    3    3    0    0  0.99669938659E+01 -0.33531114103E+01 -0.11333519275E+02  0.15460691520E+02  0.51100000000E-03 0. -1.
        -11    1    3    3    0    0  0.50105152606E+01 -0.25813201326E+01 -0.27215789155E+01  0.62590309840E+01  0.51100000000E-03 0.  1.
        -12    1    3    3    0    0  0.12038235260E+02 -0.16341381344E+01 -0.21186637005E+02  0.24422594113E+02  0.00000000000E+00 0.  1.
</event>
<event>
 7    1  0.3708346E-009  0.4614232E+02  0.7816164E-02  0.1320468E+00
        -11   -1    0    0    0    0  0.00000000000E+00  0.00000000000E+00  0.45593999997E+02  0.45594000000E+02  0.51100000000E-03 0. -1.
         11   -1    0    0    0    0 -0.00000000000E+00 -0.00000000000E+00 -0.45593999997E+02  0.45594000000E+02  0.51100000000E-03 0.  1.
    9900012    2    1    2    0    0 -0.87014147624E+01  0.34613714158E+02  0.27482531485E+02  0.46142319147E+02  0.10000012639E+02 0.  0.
        -12    1    1    2    0    0  0.87014147624E+01 -0.34613714158E+02 -0.27482531485E+02  0.45045680853E+02  0.00000000000E+00 0.  1.
         11    1    3    3    0    0 -0.12745291480E+01  0.94049274715E+01  0.11579029374E+02  0.14971673480E+02  0.51100000000E-03 0. -1.
        -11    1    3    3    0    0 -0.67042685396E+01  0.20341679554E+02  0.15049366809E+02  0.26176603778E+02  0.51100000000E-03 0.  1.
        -12    1    3    3    0    0 -0.72261707479E+00  0.48671071321E+01  0.85413530163E+00  0.49940418887E+01  0.00000000000E+00 0.  1.
</event>
<event>
 7    1  0.3708346E-009  0.4614232E+02  0.7816164E-02  0.1320468E+00
        -11   -1    0    0    0    0  0.00000000000E+00  0.00000000000E+00  0.45593999997E+02  0.45594000000E+02  0.51100000000E-03 0. -1.
         11   -1    0    0    0    0 -0.00000000000E+00 -0.00000000000E+00 -0.45593999997E+02  0.45594000000E+02  0.51100000000E-03 0.  1.
    9900012    2    1    2    0    0 -0.43377409753E+02 -0.45154068761E+01 -0.11274968131E+02  0.46142317826E+02  0.10000000596E+02 0.  0.
        -12    1    1    2    0    0  0.43377409753E+02  0.45154068761E+01  0.11274968131E+02  0.45045682174E+02  0.00000000000E+00 0.  1.
         11    1    3    3    0    0 -0.16137696202E+02 -0.24907415511E+00 -0.52657460551E+01  0.16976906622E+02  0.51100000000E-03 0. -1.
        -11    1    3    3    0    0 -0.18801802376E+02  0.49542043646E+00 -0.32093346373E+01  0.19080174084E+02  0.51100000000E-03 0.  1.
        -12    1    3    3    0    0 -0.84379111745E+01 -0.47617531575E+01 -0.27998874385E+01  0.10085237121E+02  0.00000000000E+00 0.  1.
</event>
<event>
 7    1  0.3708346E-009  0.4614232E+02  0.7816164E-02  0.1320468E+00
        -11   -1    0    0    0    0  0.00000000000E+00  0.00000000000E+00  0.45593999997E+02  0.45594000000E+02  0.51100000000E-03 0. -1.
         11   -1    0    0    0    0 -0.00000000000E+00 -0.00000000000E+00 -0.45593999997E+02  0.45594000000E+02  0.51100000000E-03 0.  1.
    9900012    2    1    2    0    0  0.36757844885E+02 -0.19245758978E+02  0.17537822337E+02  0.46142316393E+02  0.99999875264E+01 0.  0.
        -12    1    1    2    0    0 -0.36757844885E+02  0.19245758978E+02 -0.17537822337E+02  0.45045683607E+02  0.00000000000E+00 0.  1.
         11    1    3    3    0    0  0.17104039275E+02 -0.84219514838E+01  0.11089259755E+02  0.22055591320E+02  0.51100000000E-03 0. -1.
        -11    1    3    3    0    0  0.72564173474E+01 -0.13991124861E+01  0.46830718640E+00  0.74048916501E+01  0.51100000000E-03 0.  1.
        -12    1    3    3    0    0  0.12397388263E+02 -0.94246950085E+01  0.59802553964E+01  0.16681833423E+02  0.00000000000E+00 0.  1.
</event>
<event>
 7    1  0.3708346E-009  0.4614232E+02  0.7816164E-02  0.1320468E+00
        -11   -1    0    0    0    0  0.00000000000E+00  0.00000000000E+00  0.45593999997E+02  0.45594000000E+02  0.51100000000E-03 0. -1.
         11   -1    0    0    0    0 -0.00000000000E+00 -0.00000000000E+00 -0.45593999997E+02  0.45594000000E+02  0.51100000000E-03 0.  1.
    9900012    2    1    2    0    0 -0.13466457515E+02 -0.17191205897E+02  0.39398355823E+02  0.46142317857E+02  0.10000000874E+02 0.  0.
        -12    1    1    2    0    0  0.13466457515E+02  0.17191205897E+02 -0.39398355823E+02  0.45045682143E+02  0.00000000000E+00 0.  1.
         11    1    3    3    0    0 -0.99001022158E+01 -0.14668661558E+02  0.33483200987E+02  0.37872237911E+02  0.51100000000E-03 0. -1.
        -11    1    3    3    0    0 -0.11748026895E+01 -0.30845257419E+01  0.30283846171E+01  0.44794613584E+01  0.51100000000E-03 0.  1.
         12    1    3    3    0    0 -0.23915526099E+01  0.56198140226E+00  0.28867702184E+01  0.37906185875E+01  0.00000000000E+00 0. -1.
</event>
<event>
 7    1  0.3708346E-009  0.4614232E+02  0.7816164E-02  0.1320468E+00
        -11   -1    0    0    0    0  0.00000000000E+00  0.00000000000E+00  0.45593999997E+02  0.45594000000E+02  0.51100000000E-03 0. -1.
         11   -1    0    0    0    0 -0.00000000000E+00 -0.00000000000E+00 -0.45593999997E+02  0.45594000000E+02  0.51100000000E-03 0.  1.
    9900012    2    1    2    0    0  0.89579874756E+01  0.33694500642E+02  0.28522774661E+02  0.46142316661E+02  0.99999899642E+01 0.  0.
        -12    1    1    2    0    0 -0.89579874756E+01 -0.33694500642E+02 -0.28522774661E+02  0.45045683339E+02  0.00000000000E+00 0.  1.
         11    1    3    3    0    0  0.18263740247E+01  0.45871153607E+01  0.19534223134E+01  0.53097201816E+01  0.51100000000E-03 0. -1.
        -11    1    3    3    0    0  0.36848422824E+01  0.69109071690E+01  0.33257369086E+01  0.85087735186E+01  0.51100000000E-03 0.  1.
         12    1    3    3    0    0  0.34467711685E+01  0.22196478113E+02  0.23243615439E+02  0.32323822960E+02  0.00000000000E+00 0. -1.
</event>
<event>
 7    1  0.3708346E-009  0.4614232E+02  0.7816164E-02  0.1320468E+00
        -11   -1    0    0    0    0  0.00000000000E+00  0.00000000000E+00  0.45593999997E+02  0.45594000000E+02  0.51100000000E-03 0. -1.
         11   -1    0    0    0    0 -0.00000000000E+00 -0.00000000000E+00 -0.45593999997E+02  0.45594000000E+02  0.51100000000E-03 0.  1.
    9900012    2    1    2    0    0  0.42017431791E+02 -0.16231348309E+02  0.43841402435E+00  0.46142318197E+02  0.10000003975E+02 0.  0.
        -12    1    1    2    0    0 -0.42017431791E+02  0.16231348309E+02 -0.43841402435E+00  0.45045681803E+02  0.00000000000E+00 0.  1.
         11    1    3    3    0    0  0.32078641623E+02 -0.15638924728E+02 -0.85516867019E+00  0.35697990543E+02  0.51100000000E-03 0. -1.
        -11    1    3    3    0    0  0.52700080057E+01 -0.93939902202E-01  0.21119650584E+01  0.56782220593E+01  0.51100000000E-03 0.  1.
         12    1    3    3    0    0  0.46687821617E+01 -0.49848367894E+00 -0.81838236387E+00  0.47661055953E+01  0.00000000000E+00 0. -1.
</event>
<event>
 7    1  0.3708346E-009  0.4614232E+02  0.7816164E-02  0.1320468E+00
        -11   -1    0    0    0    0  0.00000000000E+00  0.00000000000E+00  0.45593999997E+02  0.45594000000E+02  0.51100000000E-03 0.  1.
         11   -1    0    0    0    0 -0.00000000000E+00 -0.00000000000E+00 -0.45593999997E+02  0.45594000000E+02  0.51100000000E-03 0. -1.
    9900012    2    1    2    0    0  0.39458904253E+02 -0.20468257813E+02 -0.72909976924E+01  0.46142319296E+02  0.10000013992E+02 0.  0.
        -12    1    1    2    0    0 -0.39458904253E+02  0.20468257813E+02  0.72909976924E+01  0.45045680704E+02  0.00000000000E+00 0.  1.
         11    1    3    3    0    0  0.42982783926E+01 -0.53226329785E+00  0.52536244328E+00  0.43628554086E+01  0.51100000000E-03 0. -1.
        -11    1    3    3    0    0  0.23941943714E+02 -0.17228766161E+02 -0.53391074741E+01  0.29975875652E+02  0.51100000000E-03 0.  1.
         12    1    3    3    0    0  0.11218682147E+02 -0.27072283551E+01 -0.24772526616E+01  0.11803588235E+02  0.00000000000E+00 0. -1.
</event>
<event>
 7    1  0.3708346E-009  0.4614232E+02  0.7816164E-02  0.1320468E+00
        -11   -1    0    0    0    0  0.00000000000E+00  0.00000000000E+00  0.45593999997E+02  0.45594000000E+02  0.51100000000E-03 0.  1.
         11   -1    0    0    0    0 -0.00000000000E+00 -0.00000000000E+00 -0.45593999997E+02  0.45594000000E+02  0.51100000000E-03 0. -1.
    9900012    2    1    2    0    0 -0.35731470992E+02  0.27417878535E+01 -0.27292088198E+02  0.46142317653E+02  0.99999990141E+01 0.  0.
        -12    1    1    2    0    0  0.35731470992E+02 -0.27417878535E+01  0.27292088198E+02  0.45045682347E+02  0.00000000000E+00 0.  1.
         11    1    3    3    0    0 -0.21671891017E+00 -0.13162109572E+01 -0.55604728198E+00  0.14451876040E+01  0.51100000000E-03 0. -1.
        -11    1    3    3    0    0 -0.80630864602E+00  0.32097665529E+00 -0.10166093609E+01  0.13366579591E+01  0.51100000000E-03 0.  1.
         12    1    3    3    0    0 -0.34708443436E+02  0.37370221554E+01 -0.25719431556E+02  0.43360472090E+02  0.00000000000E+00 0. -1.
</event>
<event>
 7    1  0.3708346E-009  0.4614232E+02  0.7816164E-02  0.1320468E+00
        -11   -1    0    0    0    0  0.00000000000E+00  0.00000000000E+00  0.45593999997E+02  0.45594000000E+02  0.51100000000E-03 0.  1.
         11   -1    0    0    0    0 -0.00000000000E+00 -0.00000000000E+00 -0.45593999997E+02  0.45594000000E+02  0.51100000000E-03 0. -1.
    9900012    2    1    2    0    0  0.13221416663E+02  0.22311394288E+00 -0.43061094466E+02  0.46142317687E+02  0.99999993285E+01 0.  0.
        -12    1    1    2    0    0 -0.13221416663E+02 -0.22311394288E+00  0.43061094466E+02  0.45045682313E+02  0.00000000000E+00 0.  1.
         11    1    3    3    0    0  0.49982092215E+01  0.19883540925E+01 -0.19691764381E+02  0.20413261183E+02  0.51100000000E-03 0. -1.
        -11    1    3    3    0    0  0.79897808617E+01 -0.36791748206E+00 -0.22867843283E+02  0.24226229962E+02  0.51100000000E-03 0.  1.
        -12    1    3    3    0    0  0.23342657985E+00 -0.13973226676E+01 -0.50148680197E+00  0.15028265429E+01  0.00000000000E+00 0.  1.
</event>
<event>
 7    1  0.3708346E-009  0.4614232E+02  0.7816164E-02  0.1320468E+00
        -11   -1    0    0    0    0  0.00000000000E+00  0.00000000000E+00  0.45593999997E+02  0.45594000000E+02  0.51100000000E-03 0.  1.
         11   -1    0    0    0    0 -0.00000000000E+00 -0.00000000000E+00 -0.45593999997E+02  0.45594000000E+02  0.51100000000E-03 0. -1.
    9900012    2    1    2    0    0 -0.32553143766E+02  0.30831624935E+02  0.43378870129E+01  0.46142317311E+02  0.99999958957E+01 0.  0.
        -12    1    1    2    0    0  0.32553143766E+02 -0.30831624935E+02 -0.43378870129E+01  0.45045682689E+02  0.00000000000E+00 0.  1.
         11    1    3    3    0    0 -0.49343097573E+01  0.24372682159E+01 -0.13195000608E+01  0.56593965941E+01  0.51100000000E-03 0. -1.
        -11    1    3    3    0    0 -0.83575919377E+01  0.48855111468E+01  0.92482217493E+00  0.97248577614E+01  0.51100000000E-03 0.  1.
        -12    1    3    3    0    0 -0.19261242071E+02  0.23508845572E+02  0.47325648988E+01  0.30758062956E+02  0.00000000000E+00 0.  1.
</event>
<event>
 7    1  0.3708346E-009  0.4614232E+02  0.7816164E-02  0.1320468E+00
        -11   -1    0    0    0    0  0.00000000000E+00  0.00000000000E+00  0.45593999997E+02  0.45594000000E+02  0.51100000000E-03 0.  1.
         11   -1    0    0    0    0 -0.00000000000E+00 -0.00000000000E+00 -0.45593999997E+02  0.45594000000E+02  0.51100000000E-03 0. -1.
    9900012    2    1    2    0    0 -0.77171507147E+01 -0.18045114849E+02 -0.40545443467E+02  0.46142316844E+02  0.99999916350E+01 0.  0.
        -12    1    1    2    0    0  0.77171507147E+01  0.18045114849E+02  0.40545443467E+02  0.45045683156E+02  0.00000000000E+00 0.  1.
         11    1    3    3    0    0 -0.44653713180E+01 -0.14591940367E+02 -0.25745764462E+02  0.29928392083E+02  0.51100000000E-03 0. -1.
        -11    1    3    3    0    0  0.19954181220E+00 -0.22069649621E+01 -0.95835746353E+01  0.98364330085E+01  0.51100000000E-03 0.  1.
         12    1    3    3    0    0 -0.34513212089E+01 -0.12462095203E+01 -0.52161043693E+01  0.63774917520E+01  0.00000000000E+00 0. -1.
</event>
<event>
 7    1  0.4660393E-009  0.4614232E+02  0.7816164E-02  0.1320468E+00
        -11   -1    0    0    0    0  0.00000000000E+00  0.00000000000E+00  0.45593999997E+02  0.45594000000E+02  0.51100000000E-03 0. -1.
         11   -1    0    0    0    0 -0.00000000000E+00 -0.00000000000E+00 -0.45593999997E+02  0.45594000000E+02  0.51100000000E-03 0.  1.
    9900012    2    1    2    0    0 -0.27650610998E+02 -0.31087909594E+02  0.17265546241E+02  0.46142317649E+02  0.99999989749E+01 0.  0.
        -12    1    1    2    0    0  0.27650610998E+02  0.31087909594E+02 -0.17265546241E+02  0.45045682351E+02  0.00000000000E+00 0.  1.
         11    1    3    3    0    0 -0.16185025611E+02 -0.12333843342E+02  0.93032541436E+01  0.22374746558E+02  0.51100000000E-03 0. -1.
        -11    1    3    3    0    0 -0.94280440689E+00 -0.19951137260E+01 -0.47177349852E+00  0.22565303952E+01  0.51100000000E-03 0.  1.
         12    1    3    3    0    0 -0.10522780980E+02 -0.16758952526E+02  0.84340655959E+01  0.21511040695E+02  0.00000000000E+00 0. -1.
</event>
<event>
 7    1  0.3708346E-009  0.4614232E+02  0.7816164E-02  0.1320468E+00
        -11   -1    0    0    0    0  0.00000000000E+00  0.00000000000E+00  0.45593999997E+02  0.45594000000E+02  0.51100000000E-03 0.  1.
         11   -1    0    0    0    0 -0.00000000000E+00 -0.00000000000E+00 -0.45593999997E+02  0.45594000000E+02  0.51100000000E-03 0. -1.
    9900012    2    1    2    0    0 -0.30135001638E+02  0.24897083807E+02 -0.22385940637E+02  0.46142318254E+02  0.10000004491E+02 0.  0.
        -12    1    1    2    0    0  0.30135001638E+02 -0.24897083807E+02  0.22385940637E+02  0.45045681746E+02  0.00000000000E+00 0.  1.
         11    1    3    3    0    0 -0.17088458431E+02  0.18133138138E+02 -0.13187305160E+02  0.28190976001E+02  0.51100000000E-03 0. -1.
        -11    1    3    3    0    0 -0.18682769315E+01  0.18299969842E+01  0.68086807646E-01  0.26161008638E+01  0.51100000000E-03 0.  1.
        -12    1    3    3    0    0 -0.11178266275E+02  0.49339486854E+01 -0.92667222848E+01  0.15335241389E+02  0.00000000000E+00 0.  1.
</event>
<event>
 7    1  0.3708346E-009  0.4614232E+02  0.7816164E-02  0.1320468E+00
        -11   -1    0    0    0    0  0.00000000000E+00  0.00000000000E+00  0.45593999997E+02  0.45594000000E+02  0.51100000000E-03 0.  1.
         11   -1    0    0    0    0 -0.00000000000E+00 -0.00000000000E+00 -0.45593999997E+02  0.45594000000E+02  0.51100000000E-03 0. -1.
    9900012    2    1    2    0    0 -0.13970378543E+02 -0.40147252515E+02 -0.14904357806E+02  0.46142320488E+02  0.10000024862E+02 0.  0.
        -12    1    1    2    0    0  0.13970378543E+02  0.40147252515E+02  0.14904357806E+02  0.45045679512E+02  0.00000000000E+00 0.  1.
         11    1    3    3    0    0 -0.12567108875E+01 -0.80727970336E+01 -0.51317123917E+01  0.96479970218E+01  0.51100000000E-03 0.  1.
        -11    1    3    3    0    0 -0.21172563563E+01 -0.12820824642E+01  0.65498801015E-01  0.24760452899E+01  0.51100000000E-03 0. -1.
         12    1    3    3    0    0 -0.10596411299E+02 -0.30792373017E+02 -0.98381442150E+01  0.34018278176E+02  0.00000000000E+00 0. -1.
</event>
<event>
 7    1  0.3708346E-009  0.4614232E+02  0.7816164E-02  0.1320468E+00
        -11   -1    0    0    0    0  0.00000000000E+00  0.00000000000E+00  0.45593999997E+02  0.45594000000E+02  0.51100000000E-03 0. -1.
         11   -1    0    0    0    0 -0.00000000000E+00 -0.00000000000E+00 -0.45593999997E+02  0.45594000000E+02  0.51100000000E-03 0.  1.
    9900012    2    1    2    0    0 -0.13597243741E+02  0.37785809284E+02 -0.20407377118E+02  0.46142318060E+02  0.10000002726E+02 0.  0.
        -12    1    1    2    0    0  0.13597243741E+02 -0.37785809284E+02  0.20407377118E+02  0.45045681940E+02  0.00000000000E+00 0.  1.
         11    1    3    3    0    0 -0.69946139773E+01  0.22163838912E+02 -0.88740877891E+01  0.24877898109E+02  0.51100000000E-03 0. -1.
        -11    1    3    3    0    0  0.12691613843E+00  0.22439393069E+01 -0.37884610937E+01  0.44049754867E+01  0.51100000000E-03 0.  1.
        -12    1    3    3    0    0 -0.67295459026E+01  0.13378031066E+02 -0.77448282348E+01  0.16859444464E+02  0.00000000000E+00 0.  1.
</event>
<event>
 7    1  0.3708346E-009  0.4614232E+02  0.7816164E-02  0.1320468E+00
        -11   -1    0    0    0    0  0.00000000000E+00  0.00000000000E+00  0.45593999997E+02  0.45594000000E+02  0.51100000000E-03 0.  1.
         11   -1    0    0    0    0 -0.00000000000E+00 -0.00000000000E+00 -0.45593999997E+02  0.45594000000E+02  0.51100000000E-03 0. -1.
    9900012    2    1    2    0    0  0.29958123558E+02 -0.21000980801E+02 -0.26278939587E+02  0.46142322877E+02  0.10000046648E+02 0.  0.
        -12    1    1    2    0    0 -0.29958123558E+02  0.21000980801E+02  0.26278939587E+02  0.45045677123E+02  0.00000000000E+00 0.  1.
         11    1    3    3    0    0  0.12403637106E+02 -0.70500686647E+01 -0.83052939739E+01  0.16508530822E+02  0.51100000000E-03 0. -1.
        -11    1    3    3    0    0  0.10666703857E+02 -0.39255683576E+01 -0.79210780727E+01  0.13853957420E+02  0.51100000000E-03 0.  1.
        -12    1    3    3    0    0  0.68877825940E+01 -0.10025343778E+02 -0.10052567540E+02  0.15779834634E+02  0.00000000000E+00 0.  1.
</event>
<event>
 7    1  0.3708346E-009  0.4614232E+02  0.7816164E-02  0.1320468E+00
        -11   -1    0    0    0    0  0.00000000000E+00  0.00000000000E+00  0.45593999997E+02  0.45594000000E+02  0.51100000000E-03 0. -1.
         11   -1    0    0    0    0 -0.00000000000E+00 -0.00000000000E+00 -0.45593999997E+02  0.45594000000E+02  0.51100000000E-03 0.  1.
    9900012    2    1    2    0    0  0.33606214575E+02  0.89318981819E+01  0.28634889675E+02  0.46142319076E+02  0.10000011988E+02 0.  0.
        -12    1    1    2    0    0 -0.33606214575E+02 -0.89318981819E+01 -0.28634889675E+02  0.45045680924E+02  0.00000000000E+00 0.  1.
         11    1    3    3    0    0  0.22727689187E+02  0.62044733360E+01  0.19006104032E+02  0.30270040236E+02  0.51100000000E-03 0. -1.
        -11    1    3    3    0    0 -0.57837702540E-01 -0.94678356105E+00  0.19299223037E+00  0.96798273404E+00  0.51100000000E-03 0.  1.
        -12    1    3    3    0    0  0.10936363091E+02  0.36742084070E+01  0.94357934135E+01  0.14904296106E+02  0.00000000000E+00 0.  1.
</event>
<event>
 7    1  0.3708346E-009  0.4614232E+02  0.7816164E-02  0.1320468E+00
        -11   -1    0    0    0    0  0.00000000000E+00  0.00000000000E+00  0.45593999997E+02  0.45594000000E+02  0.51100000000E-03 0.  1.
         11   -1    0    0    0    0 -0.00000000000E+00 -0.00000000000E+00 -0.45593999997E+02  0.45594000000E+02  0.51100000000E-03 0. -1.
    9900012    2    1    2    0    0 -0.28010091504E+02 -0.67424763349E+01 -0.34627837657E+02  0.46142319252E+02  0.10000013597E+02 0.  0.
        -12    1    1    2    0    0  0.28010091504E+02  0.67424763349E+01  0.34627837657E+02  0.45045680748E+02  0.00000000000E+00 0.  1.
         11    1    3    3    0    0 -0.94647735606E+01 -0.10048279339E+01 -0.16958796623E+02  0.19447169483E+02  0.51100000000E-03 0. -1.
        -11    1    3    3    0    0 -0.25437390027E+01 -0.28266250720E+00 -0.51530602889E+00  0.26107559770E+01  0.51100000000E-03 0.  1.
         12    1    3    3    0    0 -0.16001578941E+02 -0.54549858937E+01 -0.17153735005E+02  0.24084393792E+02  0.00000000000E+00 0. -1.
</event>
<event>
 7    1  0.3708346E-009  0.4614232E+02  0.7816164E-02  0.1320468E+00
        -11   -1    0    0    0    0  0.00000000000E+00  0.00000000000E+00  0.45593999997E+02  0.45594000000E+02  0.51100000000E-03 0. -1.
         11   -1    0    0    0    0 -0.00000000000E+00 -0.00000000000E+00 -0.45593999997E+02  0.45594000000E+02  0.51100000000E-03 0.  1.
    9900012    2    1    2    0    0  0.40508535909E+02  0.75427110119E+01  0.18201070323E+02  0.46142323939E+02  0.10000056334E+02 0.  0.
        -12    1    1    2    0    0 -0.40508535909E+02 -0.75427110119E+01 -0.18201070323E+02  0.45045676061E+02  0.00000000000E+00 0.  1.
         11    1    3    3    0    0  0.27911870879E+02  0.40201949283E+01  0.10890665214E+02  0.30229804702E+02  0.51100000000E-03 0. -1.
        -11    1    3    3    0    0  0.79441964221E+00  0.15640811112E+01  0.24176650725E+01  0.29870649398E+01  0.51100000000E-03 0.  1.
        -12    1    3    3    0    0  0.11802245388E+02  0.19584349724E+01  0.48927400365E+01  0.12925454298E+02  0.00000000000E+00 0.  1.
</event>
<event>
 7    1  0.3708346E-009  0.4614232E+02  0.7816164E-02  0.1320468E+00
        -11   -1    0    0    0    0  0.00000000000E+00  0.00000000000E+00  0.45593999997E+02  0.45594000000E+02  0.51100000000E-03 0.  1.
         11   -1    0    0    0    0 -0.00000000000E+00 -0.00000000000E+00 -0.45593999997E+02  0.45594000000E+02  0.51100000000E-03 0. -1.
    9900012    2    1    2    0    0  0.25303782206E+02  0.82577183455E+01 -0.36340640700E+02  0.46142317935E+02  0.10000001590E+02 0.  0.
        -12    1    1    2    0    0 -0.25303782206E+02 -0.82577183455E+01  0.36340640700E+02  0.45045682065E+02  0.00000000000E+00 0.  1.
         11    1    3    3    0    0  0.92076611566E+01  0.88436674034E+00 -0.11193858631E+02  0.14521212064E+02  0.51100000000E-03 0. -1.
        -11    1    3    3    0    0  0.39187778265E+01 -0.38308334096E+00 -0.22006990666E+01  0.45107260105E+01  0.51100000000E-03 0.  1.
        -12    1    3    3    0    0  0.12177343223E+02  0.77564349461E+01 -0.22946083003E+02  0.27110379861E+02  0.00000000000E+00 0.  1.
</event>
<event>
 7    1  0.3708346E-009  0.4614231E+02  0.7816164E-02  0.1320468E+00
        -11   -1    0    0    0    0  0.00000000000E+00  0.00000000000E+00  0.45593999997E+02  0.45594000000E+02  0.51100000000E-03 0.  1.
         11   -1    0    0    0    0 -0.00000000000E+00 -0.00000000000E+00 -0.45593999997E+02  0.45594000000E+02  0.51100000000E-03 0. -1.
    9900012    2    1    2    0    0  0.17138468979E+02 -0.16668656128E+02 -0.38177776711E+02  0.46142313740E+02  0.99999633331E+01 0.  0.
        -12    1    1    2    0    0 -0.17138468979E+02  0.16668656128E+02  0.38177776711E+02  0.45045686260E+02  0.00000000000E+00 0.  1.
         11    1    3    3    0    0  0.49946895051E+01 -0.57028614404E+01 -0.10404094302E+02  0.12873023357E+02  0.51100000000E-03 0. -1.
        -11    1    3    3    0    0 -0.98672458495E+00 -0.23578483201E+01 -0.30218720217E+01  0.39578763098E+01  0.51100000000E-03 0.  1.
        -12    1    3    3    0    0  0.13130504058E+02 -0.86079463673E+01 -0.24751810388E+02  0.29311414073E+02  0.00000000000E+00 0.  1.
</event>
<event>
 7    1  0.3708346E-009  0.4614232E+02  0.7816164E-02  0.1320468E+00
        -11   -1    0    0    0    0  0.00000000000E+00  0.00000000000E+00  0.45593999997E+02  0.45594000000E+02  0.51100000000E-03 0.  1.
         11   -1    0    0    0    0 -0.00000000000E+00 -0.00000000000E+00 -0.45593999997E+02  0.45594000000E+02  0.51100000000E-03 0. -1.
    9900012    2    1    2    0    0  0.24894728031E+02 -0.21845753516E+02 -0.30530788272E+02  0.46142318043E+02  0.10000002574E+02 0.  0.
        -12    1    1    2    0    0 -0.24894728031E+02  0.21845753516E+02  0.30530788272E+02  0.45045681957E+02  0.00000000000E+00 0.  1.
         11    1    3    3    0    0  0.13131746109E+02 -0.10502361662E+02 -0.15252085189E+02  0.22701728111E+02  0.51100000000E-03 0. -1.
        -11    1    3    3    0    0  0.53032063159E+01 -0.54556181771E+01 -0.11785402044E+02  0.14027953112E+02  0.51100000000E-03 0.  1.
         12    1    3    3    0    0  0.64597756057E+01 -0.58877736772E+01 -0.34933010386E+01  0.94126368195E+01  0.00000000000E+00 0. -1.
</event>
<event>
 7    1  0.3708346E-009  0.4614232E+02  0.7816164E-02  0.1320468E+00
        -11   -1    0    0    0    0  0.00000000000E+00  0.00000000000E+00  0.45593999997E+02  0.45594000000E+02  0.51100000000E-03 0. -1.
         11   -1    0    0    0    0 -0.00000000000E+00 -0.00000000000E+00 -0.45593999997E+02  0.45594000000E+02  0.51100000000E-03 0.  1.
    9900012    2    1    2    0    0 -0.44492195403E+02  0.56982469039E+01 -0.41337737079E+01  0.46142317026E+02  0.99999932943E+01 0.  0.
        -12    1    1    2    0    0  0.44492195403E+02 -0.56982469039E+01  0.41337737079E+01  0.45045682974E+02  0.00000000000E+00 0.  1.
         11    1    3    3    0    0 -0.37554257830E+02  0.49543786616E+01 -0.36986905672E+00  0.37881459218E+02  0.51100000000E-03 0. -1.
        -11    1    3    3    0    0 -0.19918978497E+01 -0.81612326591E+00 -0.13451616423E+01  0.25383408624E+01  0.51100000000E-03 0.  1.
         12    1    3    3    0    0 -0.49460397234E+01  0.15599915082E+01 -0.24187430089E+01  0.57225169457E+01  0.00000000000E+00 0. -1.
</event>
<event>
 7    1  0.3708346E-009  0.4614232E+02  0.7816164E-02  0.1320468E+00
        -11   -1    0    0    0    0  0.00000000000E+00  0.00000000000E+00  0.45593999997E+02  0.45594000000E+02  0.51100000000E-03 0.  1.
         11   -1    0    0    0    0 -0.00000000000E+00 -0.00000000000E+00 -0.45593999997E+02  0.45594000000E+02  0.51100000000E-03 0. -1.
    9900012    2    1    2    0    0  0.71904165985E+01 -0.12594375350E+02 -0.42647311235E+02  0.46142317222E+02  0.99999950853E+01 0.  0.
        -12    1    1    2    0    0 -0.71904165985E+01  0.12594375350E+02  0.42647311235E+02  0.45045682778E+02  0.00000000000E+00 0.  1.
         11    1    3    3    0    0  0.26127695611E+01 -0.94083649836E+01 -0.21929341097E+02  0.24004997347E+02  0.51100000000E-03 0. -1.
        -11    1    3    3    0    0  0.98384764792E+00  0.13826359971E+01 -0.76328448334E+01  0.78192044996E+01  0.51100000000E-03 0.  1.
        -12    1    3    3    0    0  0.35937993895E+01 -0.45686463633E+01 -0.13085125305E+02  0.14318115375E+02  0.00000000000E+00 0.  1.
</event>
<event>
 7    1  0.3708346E-009  0.4614232E+02  0.7816164E-02  0.1320468E+00
        -11   -1    0    0    0    0  0.00000000000E+00  0.00000000000E+00  0.45593999997E+02  0.45594000000E+02  0.51100000000E-03 0.  1.
         11   -1    0    0    0    0 -0.00000000000E+00 -0.00000000000E+00 -0.45593999997E+02  0.45594000000E+02  0.51100000000E-03 0. -1.
    9900012    2    1    2    0    0  0.33640682248E+02 -0.29259931516E+02 -0.64245116232E+01  0.46142318254E+02  0.10000004490E+02 0.  0.
        -12    1    1    2    0    0 -0.33640682248E+02  0.29259931516E+02  0.64245116232E+01  0.45045681746E+02  0.00000000000E+00 0.  1.
         11    1    3    3    0    0  0.18802538189E+02 -0.17448888891E+02 -0.81165928785E+00  0.25664332388E+02  0.51100000000E-03 0. -1.
        -11    1    3    3    0    0  0.70981663911E+01 -0.24305829803E+01 -0.15988189369E+01  0.76712399255E+01  0.51100000000E-03 0.  1.
         12    1    3    3    0    0  0.77399776673E+01 -0.93804596449E+01 -0.40140333985E+01  0.12806745940E+02  0.00000000000E+00 0. -1.
</event>
<event>
 7    1  0.3708346E-009  0.4614232E+02  0.7816164E-02  0.1320468E+00
        -11   -1    0    0    0    0  0.00000000000E+00  0.00000000000E+00  0.45593999997E+02  0.45594000000E+02  0.51100000000E-03 0. -1.
         11   -1    0    0    0    0 -0.00000000000E+00 -0.00000000000E+00 -0.45593999997E+02  0.45594000000E+02  0.51100000000E-03 0.  1.
    9900012    2    1    2    0    0 -0.18530778878E+02 -0.10516912828E+02  0.39687758947E+02  0.46142318393E+02  0.10000005758E+02 0.  0.
        -12    1    1    2    0    0  0.18530778878E+02  0.10516912828E+02 -0.39687758947E+02  0.45045681607E+02  0.00000000000E+00 0.  1.
         11    1    3    3    0    0 -0.66730988790E+01 -0.38191201424E+01  0.14080737245E+02  0.16043163308E+02  0.51100000000E-03 0. -1.
        -11    1    3    3    0    0 -0.50775981277E+01 -0.73755887742E+01  0.13337771986E+02  0.16064789893E+02  0.51100000000E-03 0.  1.
        -12    1    3    3    0    0 -0.67800818717E+01  0.67779608853E+00  0.12269249716E+02  0.14034365191E+02  0.00000000000E+00 0.  1.
</event>
<event>
 7    1  0.3708346E-009  0.4614232E+02  0.7816164E-02  0.1320468E+00
        -11   -1    0    0    0    0  0.00000000000E+00  0.00000000000E+00  0.45593999997E+02  0.45594000000E+02  0.51100000000E-03 0. -1.
         11   -1    0    0    0    0 -0.00000000000E+00 -0.00000000000E+00 -0.45593999997E+02  0.45594000000E+02  0.51100000000E-03 0.  1.
    9900012    2    1    2    0    0 -0.20595825916E+02 -0.91685617815E+01  0.38998242590E+02  0.46142317683E+02  0.99999992854E+01 0.  0.
        -12    1    1    2    0    0  0.20595825916E+02  0.91685617815E+01 -0.38998242590E+02  0.45045682317E+02  0.00000000000E+00 0.  1.
         11    1    3    3    0    0 -0.22785975949E+01 -0.35858634895E+01  0.88842250589E+01  0.98478362661E+01  0.51100000000E-03 0. -1.
        -11    1    3    3    0    0 -0.10022859834E+02  0.39325885699E+00  0.15343985576E+02  0.18331673830E+02  0.51100000000E-03 0.  1.
        -12    1    3    3    0    0 -0.82943684865E+01 -0.59759571490E+01  0.14770031955E+02  0.17962807587E+02  0.00000000000E+00 0.  1.
</event>
<event>
 7    1  0.3708346E-009  0.4614232E+02  0.7816164E-02  0.1320468E+00
        -11   -1    0    0    0    0  0.00000000000E+00  0.00000000000E+00  0.45593999997E+02  0.45594000000E+02  0.51100000000E-03 0.  1.
         11   -1    0    0    0    0 -0.00000000000E+00 -0.00000000000E+00 -0.45593999997E+02  0.45594000000E+02  0.51100000000E-03 0. -1.
    9900012    2    1    2    0    0  0.94650400376E+01 -0.25529181743E+02 -0.35885754172E+02  0.46142318122E+02  0.10000003288E+02 0.  0.
        -12    1    1    2    0    0 -0.94650400376E+01  0.25529181743E+02  0.35885754172E+02  0.45045681878E+02  0.00000000000E+00 0.  1.
         11    1    3    3    0    0  0.38009054066E+00 -0.60386899488E+01 -0.51262304080E+01  0.79302259472E+01  0.51100000000E-03 0. -1.
        -11    1    3    3    0    0  0.90626224208E+00  0.24917783019E+00 -0.32275872603E+01  0.33616544478E+01  0.51100000000E-03 0.  1.
        -12    1    3    3    0    0  0.81786872548E+01 -0.19739669625E+02 -0.27531936504E+02  0.34850437727E+02  0.00000000000E+00 0.  1.
</event>
<event>
 7    1  0.3708346E-009  0.4614232E+02  0.7816164E-02  0.1320468E+00
        -11   -1    0    0    0    0  0.00000000000E+00  0.00000000000E+00  0.45593999997E+02  0.45594000000E+02  0.51100000000E-03 0.  1.
         11   -1    0    0    0    0 -0.00000000000E+00 -0.00000000000E+00 -0.45593999997E+02  0.45594000000E+02  0.51100000000E-03 0. -1.
    9900012    2    1    2    0    0  0.23170606818E+02  0.10692176828E+02 -0.37120261754E+02  0.46142317651E+02  0.99999989919E+01 0.  0.
        -12    1    1    2    0    0 -0.23170606818E+02 -0.10692176828E+02  0.37120261754E+02  0.45045682349E+02  0.00000000000E+00 0.  1.
         11    1    3    3    0    0  0.22710492756E+01 -0.45361475124E+00 -0.45078552412E+01  0.50679572109E+01  0.51100000000E-03 0. -1.
        -11    1    3    3    0    0  0.15726130309E+02  0.58550336757E+01 -0.26988361213E+02  0.31779934472E+02  0.51100000000E-03 0.  1.
        -12    1    3    3    0    0  0.51734272331E+01  0.52907579032E+01 -0.56240453006E+01  0.92944259677E+01  0.00000000000E+00 0.  1.
</event>
<event>
 7    1  0.3708346E-009  0.4614232E+02  0.7816164E-02  0.1320468E+00
        -11   -1    0    0    0    0  0.00000000000E+00  0.00000000000E+00  0.45593999997E+02  0.45594000000E+02  0.51100000000E-03 0.  1.
         11   -1    0    0    0    0 -0.00000000000E+00 -0.00000000000E+00 -0.45593999997E+02  0.45594000000E+02  0.51100000000E-03 0. -1.
    9900012    2    1    2    0    0  0.84468469585E+01  0.26729335578E+02 -0.35260556135E+02  0.46142318487E+02  0.10000006623E+02 0.  0.
        -12    1    1    2    0    0 -0.84468469585E+01 -0.26729335578E+02  0.35260556135E+02  0.45045681513E+02  0.00000000000E+00 0.  1.
         11    1    3    3    0    0  0.73844686532E+00  0.71200893418E+01 -0.81126701002E+01  0.10819260253E+02  0.51100000000E-03 0. -1.
        -11    1    3    3    0    0  0.69964000208E+01  0.14777455421E+02 -0.25254153638E+02  0.30084798125E+02  0.51100000000E-03 0.  1.
        -12    1    3    3    0    0  0.71200007233E+00  0.48317908154E+01 -0.18937323969E+01  0.52382601098E+01  0.00000000000E+00 0.  1.
</event>
<event>
 7    1  0.3708346E-009  0.4614232E+02  0.7816164E-02  0.1320468E+00
        -11   -1    0    0    0    0  0.00000000000E+00  0.00000000000E+00  0.45593999997E+02  0.45594000000E+02  0.51100000000E-03 0.  1.
         11   -1    0    0    0    0 -0.00000000000E+00 -0.00000000000E+00 -0.45593999997E+02  0.45594000000E+02  0.51100000000E-03 0. -1.
    9900012    2    1    2    0    0  0.32940864498E+02 -0.19190924719E+02 -0.23994185335E+02  0.46142322346E+02  0.10000041808E+02 0.  0.
        -12    1    1    2    0    0 -0.32940864498E+02  0.19190924719E+02  0.23994185335E+02  0.45045677654E+02  0.00000000000E+00 0.  1.
         11    1    3    3    0    0  0.17606243188E+02 -0.78872728119E+01 -0.72467227484E+01  0.20608344486E+02  0.51100000000E-03 0. -1.
        -11    1    3    3    0    0  0.38704619168E+00 -0.81230717706E+00 -0.27609711986E+00  0.94121070176E+00  0.51100000000E-03 0.  1.
         12    1    3    3    0    0  0.14947575118E+02 -0.10491344730E+02 -0.16471365466E+02  0.24592767158E+02  0.00000000000E+00 0. -1.
</event>
<event>
 7    1  0.3708346E-009  0.4614232E+02  0.7816164E-02  0.1320468E+00
        -11   -1    0    0    0    0  0.00000000000E+00  0.00000000000E+00  0.45593999997E+02  0.45594000000E+02  0.51100000000E-03 0.  1.
         11   -1    0    0    0    0 -0.00000000000E+00 -0.00000000000E+00 -0.45593999997E+02  0.45594000000E+02  0.51100000000E-03 0. -1.
    9900012    2    1    2    0    0 -0.25834130821E+02 -0.29222245002E+02 -0.22533786650E+02  0.46142318087E+02  0.10000002972E+02 0.  0.
        -12    1    1    2    0    0  0.25834130821E+02  0.29222245002E+02  0.22533786650E+02  0.45045681913E+02  0.00000000000E+00 0.  1.
         11    1    3    3    0    0 -0.11726029733E+02 -0.10618272820E+02 -0.10386941679E+02  0.18924482785E+02  0.51100000000E-03 0. -1.
        -11    1    3    3    0    0 -0.47842198190E+01 -0.30372196229E+01 -0.57369752861E+00  0.56958398353E+01  0.51100000000E-03 0.  1.
        -12    1    3    3    0    0 -0.93238812691E+01 -0.15566752559E+02 -0.11573147442E+02  0.21521995467E+02  0.00000000000E+00 0.  1.
</event>
<event>
 7    1  0.3708346E-009  0.4614232E+02  0.7816164E-02  0.1320468E+00
        -11   -1    0    0    0    0  0.00000000000E+00  0.00000000000E+00  0.45593999997E+02  0.45594000000E+02  0.51100000000E-03 0.  1.
         11   -1    0    0    0    0 -0.00000000000E+00 -0.00000000000E+00 -0.45593999997E+02  0.45594000000E+02  0.51100000000E-03 0. -1.
    9900012    2    1    2    0    0 -0.23777078924E+02  0.37925838060E+02 -0.50393260336E+01  0.46142317836E+02  0.10000000685E+02 0.  0.
        -12    1    1    2    0    0  0.23777078924E+02 -0.37925838060E+02  0.50393260336E+01  0.45045682164E+02  0.00000000000E+00 0.  1.
         11    1    3    3    0    0 -0.81888014091E+01  0.21729297064E+02 -0.20976960611E+01  0.23315641712E+02  0.51100000000E-03 0. -1.
        -11    1    3    3    0    0 -0.36316958557E+01  0.28846973079E+01  0.27748037638E+00  0.46462553704E+01  0.51100000000E-03 0.  1.
        -12    1    3    3    0    0 -0.11956581659E+02  0.13311843688E+02 -0.32191103489E+01  0.18180420754E+02  0.00000000000E+00 0.  1.
</event>
<event>
 7    1  0.3708346E-009  0.4614232E+02  0.7816164E-02  0.1320468E+00
        -11   -1    0    0    0    0  0.00000000000E+00  0.00000000000E+00  0.45593999997E+02  0.45594000000E+02  0.51100000000E-03 0.  1.
         11   -1    0    0    0    0 -0.00000000000E+00 -0.00000000000E+00 -0.45593999997E+02  0.45594000000E+02  0.51100000000E-03 0. -1.
    9900012    2    1    2    0    0 -0.39411155384E+02 -0.15146579315E+02 -0.15698899007E+02  0.46142318035E+02  0.10000002500E+02 0.  0.
        -12    1    1    2    0    0  0.39411155384E+02  0.15146579315E+02  0.15698899007E+02  0.45045681965E+02  0.00000000000E+00 0.  1.
         11    1    3    3    0    0 -0.21808721984E+02 -0.69250568974E+01 -0.10369101587E+02  0.25121604956E+02  0.51100000000E-03 0. -1.
        -11    1    3    3    0    0 -0.24209110975E+01 -0.37963837943E+01 -0.81732047568E+00  0.45761723609E+01  0.51100000000E-03 0.  1.
         12    1    3    3    0    0 -0.15181522302E+02 -0.44251386233E+01 -0.45124769446E+01  0.16444540718E+02  0.00000000000E+00 0. -1.
</event>
<event>
 7    1  0.3708346E-009  0.4614233E+02  0.7816164E-02  0.1320468E+00
        -11   -1    0    0    0    0  0.00000000000E+00  0.00000000000E+00  0.45593999997E+02  0.45594000000E+02  0.51100000000E-03 0.  1.
         11   -1    0    0    0    0 -0.00000000000E+00 -0.00000000000E+00 -0.45593999997E+02  0.45594000000E+02  0.51100000000E-03 0. -1.
    9900012    2    1    2    0    0  0.26412720680E+02  0.24914816691E+02 -0.26659568503E+02  0.46142328763E+02  0.10000100325E+02 0.  0.
        -12    1    1    2    0    0 -0.26412720680E+02 -0.24914816691E+02  0.26659568503E+02  0.45045671237E+02  0.00000000000E+00 0.  1.
         11    1    3    3    0    0  0.48607542842E+01  0.15760162097E+01 -0.12844775687E+01  0.52688368916E+01  0.51100000000E-03 0. -1.
        -11    1    3    3    0    0  0.61061034277E-02 -0.14796089177E+00 -0.24230037983E+00  0.28397085269E+00  0.51100000000E-03 0.  1.
         12    1    3    3    0    0  0.21545860292E+02  0.23486761373E+02 -0.25132790554E+02  0.40589521019E+02  0.00000000000E+00 0. -1.
</event>
<event>
 7    1  0.3708346E-009  0.4614231E+02  0.7816164E-02  0.1320468E+00
        -11   -1    0    0    0    0  0.00000000000E+00  0.00000000000E+00  0.45593999997E+02  0.45594000000E+02  0.51100000000E-03 0.  1.
         11   -1    0    0    0    0 -0.00000000000E+00 -0.00000000000E+00 -0.45593999997E+02  0.45594000000E+02  0.51100000000E-03 0. -1.
    9900012    2    1    2    0    0 -0.38580168960E+02 -0.95588468355E+01 -0.21197005769E+02  0.46142311600E+02  0.99999438213E+01 0.  0.
        -12    1    1    2    0    0  0.38580168960E+02  0.95588468355E+01  0.21197005769E+02  0.45045688400E+02  0.00000000000E+00 0.  1.
         11    1    3    3    0    0 -0.94569146787E+01 -0.54777013359E+01 -0.75279243799E+01  0.13270572440E+02  0.51100000000E-03 0. -1.
        -11    1    3    3    0    0 -0.22179361044E+02 -0.15192173516E+01 -0.83093038590E+01  0.23733449150E+02  0.51100000000E-03 0.  1.
         12    1    3    3    0    0 -0.69438932375E+01 -0.25619281480E+01 -0.53597775304E+01  0.91382900098E+01  0.00000000000E+00 0. -1.
</event>
<event>
 7    1  0.3708346E-009  0.4614232E+02  0.7816164E-02  0.1320468E+00
        -11   -1    0    0    0    0  0.00000000000E+00  0.00000000000E+00  0.45593999997E+02  0.45594000000E+02  0.51100000000E-03 0.  1.
         11   -1    0    0    0    0 -0.00000000000E+00 -0.00000000000E+00 -0.45593999997E+02  0.45594000000E+02  0.51100000000E-03 0. -1.
    9900012    2    1    2    0    0 -0.59657215992E+01 -0.22521479568E+02 -0.38552645678E+02  0.46142319132E+02  0.10000012497E+02 0.  0.
        -12    1    1    2    0    0  0.59657215992E+01  0.22521479568E+02  0.38552645678E+02  0.45045680868E+02  0.00000000000E+00 0.  1.
         11    1    3    3    0    0  0.40618812305E+00 -0.19618738911E+01 -0.66259946296E+01  0.69222643007E+01  0.51100000000E-03 0. -1.
        -11    1    3    3    0    0 -0.54169368618E+01 -0.62918604734E+01 -0.14149022845E+02  0.16405046812E+02  0.51100000000E-03 0.  1.
        -12    1    3    3    0    0 -0.95497286045E+00 -0.14267745203E+02 -0.17777628204E+02  0.22815008019E+02  0.00000000000E+00 0.  1.
</event>
<event>
 7    1  0.3708346E-009  0.4614232E+02  0.7816164E-02  0.1320468E+00
        -11   -1    0    0    0    0  0.00000000000E+00  0.00000000000E+00  0.45593999997E+02  0.45594000000E+02  0.51100000000E-03 0.  1.
         11   -1    0    0    0    0 -0.00000000000E+00 -0.00000000000E+00 -0.45593999997E+02  0.45594000000E+02  0.51100000000E-03 0. -1.
    9900012    2    1    2    0    0  0.32625624614E+02 -0.37087059714E+01 -0.30837113503E+02  0.46142318180E+02  0.10000003821E+02 0.  0.
        -12    1    1    2    0    0 -0.32625624614E+02  0.37087059714E+01  0.30837113503E+02  0.45045681820E+02  0.00000000000E+00 0.  1.
         11    1    3    3    0    0  0.30519767341E+02 -0.20084139900E+01 -0.24520984236E+02  0.39201640188E+02  0.51100000000E-03 0. -1.
        -11    1    3    3    0    0  0.10638455393E+01 -0.99560016089E+00 -0.22175035728E+01  0.26533581304E+01  0.51100000000E-03 0.  1.
         12    1    3    3    0    0  0.10420117340E+01 -0.70469182049E+00 -0.40986256936E+01  0.42873198612E+01  0.00000000000E+00 0. -1.
</event>
<event>
 7    1  0.3708346E-009  0.4614232E+02  0.7816164E-02  0.1320468E+00
        -11   -1    0    0    0    0  0.00000000000E+00  0.00000000000E+00  0.45593999997E+02  0.45594000000E+02  0.51100000000E-03 0.  1.
         11   -1    0    0    0    0 -0.00000000000E+00 -0.00000000000E+00 -0.45593999997E+02  0.45594000000E+02  0.51100000000E-03 0. -1.
    9900012    2    1    2    0    0 -0.54779020717E+01 -0.17097887184E+02 -0.41313052626E+02  0.46142317914E+02  0.10000001398E+02 0.  0.
        -12    1    1    2    0    0  0.54779020717E+01  0.17097887184E+02  0.41313052626E+02  0.45045682086E+02  0.00000000000E+00 0.  1.
         11    1    3    3    0    0 -0.21749673586E+01 -0.86546360911E+01 -0.22165579506E+02  0.23894478943E+02  0.51100000000E-03 0. -1.
        -11    1    3    3    0    0  0.87837661534E-01 -0.85940020708E+00 -0.94042069810E+01  0.94438018495E+01  0.51100000000E-03 0.  1.
        -12    1    3    3    0    0 -0.33907723746E+01 -0.75838508855E+01 -0.97432661398E+01  0.12804037122E+02  0.00000000000E+00 0.  1.
</event>
<event>
 7    1  0.3708346E-009  0.4614232E+02  0.7816164E-02  0.1320468E+00
        -11   -1    0    0    0    0  0.00000000000E+00  0.00000000000E+00  0.45593999997E+02  0.45594000000E+02  0.51100000000E-03 0.  1.
         11   -1    0    0    0    0 -0.00000000000E+00 -0.00000000000E+00 -0.45593999997E+02  0.45594000000E+02  0.51100000000E-03 0. -1.
    9900012    2    1    2    0    0 -0.15795667357E+01  0.14531490444E+02 -0.42608147487E+02  0.46142317878E+02  0.10000001067E+02 0.  0.
        -12    1    1    2    0    0  0.15795667357E+01 -0.14531490444E+02  0.42608147487E+02  0.45045682122E+02  0.00000000000E+00 0.  1.
         11    1    3    3    0    0  0.21446534473E+01  0.68213384181E+01 -0.25428836822E+02  0.26415070293E+02  0.51100000000E-03 0. -1.
        -11    1    3    3    0    0 -0.45629513821E+01  0.46925009847E+01 -0.12198248314E+02  0.13843314379E+02  0.51100000000E-03 0.  1.
         12    1    3    3    0    0  0.83873119911E+00  0.30176510409E+01 -0.49810623505E+01  0.58839332056E+01  0.00000000000E+00 0. -1.
</event>
<event>
 7    1  0.3708346E-009  0.4614232E+02  0.7816164E-02  0.1320468E+00
        -11   -1    0    0    0    0  0.00000000000E+00  0.00000000000E+00  0.45593999997E+02  0.45594000000E+02  0.51100000000E-03 0.  1.
         11   -1    0    0    0    0 -0.00000000000E+00 -0.00000000000E+00 -0.45593999997E+02  0.45594000000E+02  0.51100000000E-03 0. -1.
    9900012    2    1    2    0    0 -0.33567223537E+02  0.29291212860E+02  0.66617952438E+01  0.46142321376E+02  0.10000032965E+02 0.  0.
        -12    1    1    2    0    0  0.33567223537E+02 -0.29291212860E+02 -0.66617952438E+01  0.45045678624E+02  0.00000000000E+00 0.  1.
         11    1    3    3    0    0 -0.23564626558E+01  0.53470319061E+01  0.15332536231E-01  0.58432783436E+01  0.51100000000E-03 0. -1.
        -11    1    3    3    0    0 -0.50931010648E+01  0.15648504352E+01  0.40905088248E+00  0.53437588106E+01  0.51100000000E-03 0.  1.
         12    1    3    3    0    0 -0.26117659816E+02  0.22379330519E+02  0.62374118251E+01  0.34955284222E+02  0.00000000000E+00 0. -1.
</event>
<event>
 7    1  0.3708346E-009  0.4614232E+02  0.7816164E-02  0.1320468E+00
        -11   -1    0    0    0    0  0.00000000000E+00  0.00000000000E+00  0.45593999997E+02  0.45594000000E+02  0.51100000000E-03 0. -1.
         11   -1    0    0    0    0 -0.00000000000E+00 -0.00000000000E+00 -0.45593999997E+02  0.45594000000E+02  0.51100000000E-03 0.  1.
    9900012    2    1    2    0    0  0.11922720884E+02 -0.43420539582E+02 -0.12723343856E+01  0.46142319123E+02  0.10000012416E+02 0.  0.
        -12    1    1    2    0    0 -0.11922720884E+02  0.43420539582E+02  0.12723343856E+01  0.45045680877E+02  0.00000000000E+00 0.  1.
         11    1    3    3    0    0  0.99143699610E+01 -0.23961114617E+02  0.35322836932E+00  0.25933656047E+02  0.51100000000E-03 0. -1.
        -11    1    3    3    0    0  0.23713865094E+01 -0.19521598272E+02 -0.18893043582E+01  0.19755650945E+02  0.51100000000E-03 0.  1.
         12    1    3    3    0    0 -0.36303558592E+00  0.62173306637E-01  0.26374160337E+00  0.45301213014E+00  0.00000000000E+00 0. -1.
</event>
<event>
 7    1  0.3708346E-009  0.4614232E+02  0.7816164E-02  0.1320468E+00
        -11   -1    0    0    0    0  0.00000000000E+00  0.00000000000E+00  0.45593999997E+02  0.45594000000E+02  0.51100000000E-03 0. -1.
         11   -1    0    0    0    0 -0.00000000000E+00 -0.00000000000E+00 -0.45593999997E+02  0.45594000000E+02  0.51100000000E-03 0.  1.
    9900012    2    1    2    0    0  0.14337833893E+02  0.42411177961E+01  0.42491797400E+02  0.46142318662E+02  0.10000008216E+02 0.  0.
        -12    1    1    2    0    0 -0.14337833893E+02 -0.42411177961E+01 -0.42491797400E+02  0.45045681338E+02  0.00000000000E+00 0.  1.
         11    1    3    3    0    0 -0.66299012898E+00 -0.81582870739E+00  0.10430998192E+01  0.14809422287E+01  0.51100000000E-03 0. -1.
        -11    1    3    3    0    0  0.18609337615E+01 -0.57657318574E+00  0.89084970926E+01  0.91190367810E+01  0.51100000000E-03 0.  1.
         12    1    3    3    0    0  0.13139890260E+02  0.56335196892E+01  0.32540200488E+02  0.35542339652E+02  0.00000000000E+00 0. -1.
</event>
<event>
 7    1  0.3708346E-009  0.4614232E+02  0.7816164E-02  0.1320468E+00
        -11   -1    0    0    0    0  0.00000000000E+00  0.00000000000E+00  0.45593999997E+02  0.45594000000E+02  0.51100000000E-03 0. -1.
         11   -1    0    0    0    0 -0.00000000000E+00 -0.00000000000E+00 -0.45593999997E+02  0.45594000000E+02  0.51100000000E-03 0.  1.
    9900012    2    1    2    0    0 -0.66308138903E+01 -0.23320341734E+02  0.37964553084E+02  0.46142319604E+02  0.10000016805E+02 0.  0.
        -12    1    1    2    0    0  0.66308138903E+01  0.23320341734E+02 -0.37964553084E+02  0.45045680396E+02  0.00000000000E+00 0.  1.
         11    1    3    3    0    0 -0.14344707889E+01 -0.11324180971E+01  0.25755630083E+00  0.18456469598E+01  0.51100000000E-03 0. -1.
        -11    1    3    3    0    0  0.37244714262E+00 -0.14314865391E-01  0.79544930838E+00  0.87844274301E+00  0.51100000000E-03 0.  1.
         12    1    3    3    0    0 -0.55687902440E+01 -0.22173608772E+02  0.36911547475E+02  0.43418229901E+02  0.00000000000E+00 0. -1.
</event>
<event>
 7    1  0.3708346E-009  0.4614232E+02  0.7816164E-02  0.1320468E+00
        -11   -1    0    0    0    0  0.00000000000E+00  0.00000000000E+00  0.45593999997E+02  0.45594000000E+02  0.51100000000E-03 0.  1.
         11   -1    0    0    0    0 -0.00000000000E+00 -0.00000000000E+00 -0.45593999997E+02  0.45594000000E+02  0.51100000000E-03 0. -1.
    9900012    2    1    2    0    0 -0.31806701154E+01  0.38200412564E+02 -0.23658513755E+02  0.46142318126E+02  0.10000003324E+02 0.  0.
        -12    1    1    2    0    0  0.31806701154E+01 -0.38200412564E+02  0.23658513755E+02  0.45045681874E+02  0.00000000000E+00 0.  1.
         11    1    3    3    0    0 -0.33592583211E+00  0.17689482878E+02 -0.93853401354E+01  0.20027862102E+02  0.51100000000E-03 0. -1.
        -11    1    3    3    0    0 -0.40622038290E+01  0.82676605901E+01 -0.38295865179E+01  0.99760435414E+01  0.51100000000E-03 0.  1.
        -12    1    3    3    0    0  0.12174595457E+01  0.12243269096E+02 -0.10443587101E+02  0.16138412482E+02  0.00000000000E+00 0.  1.
</event>
<event>
 7    1  0.3708346E-009  0.4614231E+02  0.7816164E-02  0.1320468E+00
        -11   -1    0    0    0    0  0.00000000000E+00  0.00000000000E+00  0.45593999997E+02  0.45594000000E+02  0.51100000000E-03 0.  1.
         11   -1    0    0    0    0 -0.00000000000E+00 -0.00000000000E+00 -0.45593999997E+02  0.45594000000E+02  0.51100000000E-03 0. -1.
    9900012    2    1    2    0    0  0.31721778639E+02 -0.28313813928E+01 -0.31856336419E+02  0.46142310631E+02  0.99999349850E+01 0.  0.
        -12    1    1    2    0    0 -0.31721778639E+02  0.28313813928E+01  0.31856336419E+02  0.45045689369E+02  0.00000000000E+00 0.  1.
         11    1    3    3    0    0  0.17627910628E+02  0.29014816005E+01 -0.18163956972E+02  0.25477267548E+02  0.51100000000E-03 0. -1.
        -11    1    3    3    0    0  0.92640708246E+01 -0.29723348407E+01 -0.10203126537E+02  0.14098282663E+02  0.51100000000E-03 0.  1.
        -12    1    3    3    0    0  0.48297971864E+01 -0.27605281525E+01 -0.34892529107E+01  0.65667604203E+01  0.00000000000E+00 0.  1.
</event>
<event>
 7    1  0.3708346E-009  0.4614232E+02  0.7816164E-02  0.1320468E+00
        -11   -1    0    0    0    0  0.00000000000E+00  0.00000000000E+00  0.45593999997E+02  0.45594000000E+02  0.51100000000E-03 0.  1.
         11   -1    0    0    0    0 -0.00000000000E+00 -0.00000000000E+00 -0.45593999997E+02  0.45594000000E+02  0.51100000000E-03 0. -1.
    9900012    2    1    2    0    0 -0.13450139382E+01  0.42921829958E+02 -0.13602246833E+02  0.46142315763E+02  0.99999817790E+01 0.  0.
        -12    1    1    2    0    0  0.13450139382E+01 -0.42921829958E+02  0.13602246833E+02  0.45045684237E+02  0.00000000000E+00 0.  1.
         11    1    3    3    0    0  0.29689806566E+01  0.20074592758E+02 -0.50393030555E+01  0.20909296882E+02  0.51100000000E-03 0. -1.
        -11    1    3    3    0    0 -0.76320418676E+00  0.31545839836E+01 -0.31053711907E+01  0.44919050784E+01  0.51100000000E-03 0.  1.
        -12    1    3    3    0    0 -0.35507904080E+01  0.19692653217E+02 -0.54575725869E+01  0.20741113803E+02  0.00000000000E+00 0.  1.
</event>
<event>
 7    1  0.3708346E-009  0.4614232E+02  0.7816164E-02  0.1320468E+00
        -11   -1    0    0    0    0  0.00000000000E+00  0.00000000000E+00  0.45593999997E+02  0.45594000000E+02  0.51100000000E-03 0.  1.
         11   -1    0    0    0    0 -0.00000000000E+00 -0.00000000000E+00 -0.45593999997E+02  0.45594000000E+02  0.51100000000E-03 0. -1.
    9900012    2    1    2    0    0 -0.36794352419E+02 -0.18633767398E+02 -0.18112751577E+02  0.46142318442E+02  0.10000006208E+02 0.  0.
        -12    1    1    2    0    0  0.36794352419E+02  0.18633767398E+02  0.18112751577E+02  0.45045681558E+02  0.00000000000E+00 0.  1.
         11    1    3    3    0    0 -0.26125628863E+02 -0.14358653355E+02 -0.89255240093E+01  0.31118875121E+02  0.51100000000E-03 0. -1.
        -11    1    3    3    0    0 -0.10246793606E+02 -0.46979603173E+01 -0.88903499744E+01  0.14356389980E+02  0.51100000000E-03 0.  1.
         12    1    3    3    0    0 -0.42192994978E+00  0.42284627436E+00 -0.29687759335E+00  0.66705334097E+00  0.00000000000E+00 0. -1.
</event>
<event>
 7    1  0.3708346E-009  0.4614232E+02  0.7816164E-02  0.1320468E+00
        -11   -1    0    0    0    0  0.00000000000E+00  0.00000000000E+00  0.45593999997E+02  0.45594000000E+02  0.51100000000E-03 0. -1.
         11   -1    0    0    0    0 -0.00000000000E+00 -0.00000000000E+00 -0.45593999997E+02  0.45594000000E+02  0.51100000000E-03 0.  1.
    9900012    2    1    2    0    0 -0.19149748825E+02  0.36397960098E+02  0.18373600594E+02  0.46142316765E+02  0.99999909154E+01 0.  0.
        -12    1    1    2    0    0  0.19149748825E+02 -0.36397960098E+02 -0.18373600594E+02  0.45045683235E+02  0.00000000000E+00 0.  1.
         11    1    3    3    0    0 -0.78182082495E+01  0.19956236108E+02  0.13225581189E+02  0.25185149153E+02  0.51100000000E-03 0.  1.
        -11    1    3    3    0    0 -0.11070232235E+02  0.16510962041E+02  0.53877365812E+01  0.20595864026E+02  0.51100000000E-03 0. -1.
        -12    1    3    3    0    0 -0.26130834051E+00 -0.69238050934E-01 -0.23971717607E+00  0.36130358567E+00  0.00000000000E+00 0.  1.
</event>
<event>
 7    1  0.3708346E-009  0.4614232E+02  0.7816164E-02  0.1320468E+00
        -11   -1    0    0    0    0  0.00000000000E+00  0.00000000000E+00  0.45593999997E+02  0.45594000000E+02  0.51100000000E-03 0. -1.
         11   -1    0    0    0    0 -0.00000000000E+00 -0.00000000000E+00 -0.45593999997E+02  0.45594000000E+02  0.51100000000E-03 0.  1.
    9900012    2    1    2    0    0 -0.34448446008E+02  0.24805965058E+02  0.15069244316E+02  0.46142318086E+02  0.10000002964E+02 0.  0.
        -12    1    1    2    0    0  0.34448446008E+02 -0.24805965058E+02 -0.15069244316E+02  0.45045681914E+02  0.00000000000E+00 0.  1.
         11    1    3    3    0    0 -0.21803538663E+02  0.18535055483E+02  0.77546430211E+01  0.29649233863E+02  0.51100000000E-03 0. -1.
        -11    1    3    3    0    0 -0.18396308570E+00  0.57316625524E+00  0.14856103616E+01  0.16029349272E+01  0.51100000000E-03 0.  1.
        -12    1    3    3    0    0 -0.12460944259E+02  0.56977433198E+01  0.58289909328E+01  0.14890149296E+02  0.00000000000E+00 0.  1.
</event>
<event>
 7    1  0.3708346E-009  0.4614232E+02  0.7816164E-02  0.1320468E+00
        -11   -1    0    0    0    0  0.00000000000E+00  0.00000000000E+00  0.45593999997E+02  0.45594000000E+02  0.51100000000E-03 0.  1.
         11   -1    0    0    0    0 -0.00000000000E+00 -0.00000000000E+00 -0.45593999997E+02  0.45594000000E+02  0.51100000000E-03 0. -1.
    9900012    2    1    2    0    0 -0.22057188554E+02 -0.13208425899E+02 -0.36988262136E+02  0.46142316328E+02  0.99999869315E+01 0.  0.
        -12    1    1    2    0    0  0.22057188554E+02  0.13208425899E+02  0.36988262136E+02  0.45045683672E+02  0.00000000000E+00 0.  1.
         11    1    3    3    0    0 -0.36213240563E+01 -0.17124506750E+01 -0.27720291334E+01  0.48714085245E+01  0.51100000000E-03 0. -1.
        -11    1    3    3    0    0 -0.22166844219E+01 -0.43704109018E+00 -0.59189207692E+00  0.23356008291E+01  0.51100000000E-03 0.  1.
        -12    1    3    3    0    0 -0.16219180076E+02 -0.11058934134E+02 -0.33624340925E+02  0.38935306974E+02  0.00000000000E+00 0.  1.
</event>
<event>
 7    1  0.3708346E-009  0.4614232E+02  0.7816164E-02  0.1320468E+00
        -11   -1    0    0    0    0  0.00000000000E+00  0.00000000000E+00  0.45593999997E+02  0.45594000000E+02  0.51100000000E-03 0. -1.
         11   -1    0    0    0    0 -0.00000000000E+00 -0.00000000000E+00 -0.45593999997E+02  0.45594000000E+02  0.51100000000E-03 0.  1.
    9900012    2    1    2    0    0  0.84993130837E+01 -0.43273322497E+02  0.91812151549E+01  0.46142317915E+02  0.10000001400E+02 0.  0.
        -12    1    1    2    0    0 -0.84993130837E+01  0.43273322497E+02 -0.91812151549E+01  0.45045682085E+02  0.00000000000E+00 0.  1.
         11    1    3    3    0    0  0.35680722303E+01 -0.19752156767E+02  0.67837552007E+01  0.21187217167E+02  0.51100000000E-03 0. -1.
        -11    1    3    3    0    0  0.36892277986E+00 -0.12803298497E+02 -0.92521253872E+00  0.12841984851E+02  0.51100000000E-03 0.  1.
        -12    1    3    3    0    0  0.45623180736E+01 -0.10717867233E+02  0.33226724929E+01  0.12113115896E+02  0.00000000000E+00 0.  1.
</event>
<event>
 7    1  0.3708346E-009  0.4614232E+02  0.7816164E-02  0.1320468E+00
        -11   -1    0    0    0    0  0.00000000000E+00  0.00000000000E+00  0.45593999997E+02  0.45594000000E+02  0.51100000000E-03 0.  1.
         11   -1    0    0    0    0 -0.00000000000E+00 -0.00000000000E+00 -0.45593999997E+02  0.45594000000E+02  0.51100000000E-03 0. -1.
    9900012    2    1    2    0    0 -0.51095360285E+01 -0.41786312096E+02 -0.16028419496E+02  0.46142317981E+02  0.10000002003E+02 0.  0.
        -12    1    1    2    0    0  0.51095360285E+01  0.41786312096E+02  0.16028419496E+02  0.45045682019E+02  0.00000000000E+00 0.  1.
         11    1    3    3    0    0 -0.18424947526E+00 -0.38719379320E+01 -0.20057517058E+01  0.43645035668E+01  0.51100000000E-03 0. -1.
        -11    1    3    3    0    0 -0.45216644566E+01 -0.22926662493E+02 -0.13021241723E+02  0.26751262378E+02  0.51100000000E-03 0.  1.
        -12    1    3    3    0    0 -0.40362209665E+00 -0.14987711671E+02 -0.10014260679E+01  0.15026552036E+02  0.00000000000E+00 0.  1.
</event>
<event>
 7    1  0.3708346E-009  0.4614232E+02  0.7816164E-02  0.1320468E+00
        -11   -1    0    0    0    0  0.00000000000E+00  0.00000000000E+00  0.45593999997E+02  0.45594000000E+02  0.51100000000E-03 0. -1.
         11   -1    0    0    0    0 -0.00000000000E+00 -0.00000000000E+00 -0.45593999997E+02  0.45594000000E+02  0.51100000000E-03 0.  1.
    9900012    2    1    2    0    0 -0.50022739125E+01  0.22361562941E+02  0.38782100678E+02  0.46142316805E+02  0.99999912857E+01 0.  0.
        -12    1    1    2    0    0  0.50022739125E+01 -0.22361562941E+02 -0.38782100678E+02  0.45045683195E+02  0.00000000000E+00 0.  1.
         11    1    3    3    0    0 -0.54757077483E+01  0.18205423759E+02  0.25374132717E+02  0.31705952769E+02  0.51100000000E-03 0. -1.
        -11    1    3    3    0    0 -0.12416822892E+01  0.81170696724E+00  0.25990567042E+01  0.29926140948E+01  0.51100000000E-03 0.  1.
         12    1    3    3    0    0  0.17151161250E+01  0.33444322140E+01  0.10808911257E+02  0.11443749942E+02  0.00000000000E+00 0. -1.
</event>
<event>
 7    1  0.3708346E-009  0.4614232E+02  0.7816164E-02  0.1320468E+00
        -11   -1    0    0    0    0  0.00000000000E+00  0.00000000000E+00  0.45593999997E+02  0.45594000000E+02  0.51100000000E-03 0.  1.
         11   -1    0    0    0    0 -0.00000000000E+00 -0.00000000000E+00 -0.45593999997E+02  0.45594000000E+02  0.51100000000E-03 0. -1.
    9900012    2    1    2    0    0 -0.42096831158E+02 -0.12186644734E+02 -0.10414216894E+02  0.46142318555E+02  0.10000007236E+02 0.  0.
        -12    1    1    2    0    0  0.42096831158E+02  0.12186644734E+02  0.10414216894E+02  0.45045681445E+02  0.00000000000E+00 0.  1.
         11    1    3    3    0    0 -0.29320981992E+02 -0.87768988724E+01 -0.82459439194E+01  0.31697784310E+02  0.51100000000E-03 0. -1.
        -11    1    3    3    0    0  0.17375391202E+00  0.50959151037E+00 -0.62833827003E+00  0.82745584298E+00  0.51100000000E-03 0.  1.
         12    1    3    3    0    0 -0.12949603077E+02 -0.39193373717E+01 -0.15399347041E+01  0.13617078401E+02  0.00000000000E+00 0. -1.
</event>
<event>
 7    1  0.3708346E-009  0.4614232E+02  0.7816164E-02  0.1320468E+00
        -11   -1    0    0    0    0  0.00000000000E+00  0.00000000000E+00  0.45593999997E+02  0.45594000000E+02  0.51100000000E-03 0. -1.
         11   -1    0    0    0    0 -0.00000000000E+00 -0.00000000000E+00 -0.45593999997E+02  0.45594000000E+02  0.51100000000E-03 0.  1.
    9900012    2    1    2    0    0 -0.22499805744E+02 -0.38867404329E+02 -0.34924280798E+01  0.46142318391E+02  0.10000005740E+02 0.  0.
        -12    1    1    2    0    0  0.22499805744E+02  0.38867404329E+02  0.34924280798E+01  0.45045681609E+02  0.00000000000E+00 0.  1.
         11    1    3    3    0    0 -0.15709961963E+02 -0.23408637402E+02 -0.45523886560E+01  0.28556810967E+02  0.51100000000E-03 0. -1.
        -11    1    3    3    0    0 -0.39305641461E+01 -0.58289162111E+01  0.24487383598E+01  0.74445898825E+01  0.51100000000E-03 0.  1.
         12    1    3    3    0    0 -0.28592796349E+01 -0.96298507155E+01 -0.13887777836E+01  0.10140917541E+02  0.00000000000E+00 0. -1.
</event>
<event>
 7    1  0.3708346E-009  0.4614232E+02  0.7816164E-02  0.1320468E+00
        -11   -1    0    0    0    0  0.00000000000E+00  0.00000000000E+00  0.45593999997E+02  0.45594000000E+02  0.51100000000E-03 0.  1.
         11   -1    0    0    0    0 -0.00000000000E+00 -0.00000000000E+00 -0.45593999997E+02  0.45594000000E+02  0.51100000000E-03 0. -1.
    9900012    2    1    2    0    0  0.10989095780E+02  0.12405280459E+02 -0.41886301395E+02  0.46142318144E+02  0.10000003492E+02 0.  0.
        -12    1    1    2    0    0 -0.10989095780E+02 -0.12405280459E+02  0.41886301395E+02  0.45045681856E+02  0.00000000000E+00 0.  1.
         11    1    3    3    0    0  0.20947839277E+01 -0.82441508305E+00 -0.51641346188E+01  0.56334773058E+01  0.51100000000E-03 0. -1.
        -11    1    3    3    0    0  0.11142873732E+01  0.28475558151E+01 -0.26360624423E+01  0.40372064514E+01  0.51100000000E-03 0.  1.
        -12    1    3    3    0    0  0.77800244794E+01  0.10382139727E+02 -0.34086104333E+02  0.36471634387E+02  0.00000000000E+00 0.  1.
</event>
<event>
 7    1  0.3708346E-009  0.4614232E+02  0.7816164E-02  0.1320468E+00
        -11   -1    0    0    0    0  0.00000000000E+00  0.00000000000E+00  0.45593999997E+02  0.45594000000E+02  0.51100000000E-03 0. -1.
         11   -1    0    0    0    0 -0.00000000000E+00 -0.00000000000E+00 -0.45593999997E+02  0.45594000000E+02  0.51100000000E-03 0.  1.
    9900012    2    1    2    0    0  0.44597470317E+02  0.12492027145E+01  0.62143823971E+01  0.46142318579E+02  0.10000007461E+02 0.  0.
        -12    1    1    2    0    0 -0.44597470317E+02 -0.12492027145E+01 -0.62143823971E+01  0.45045681421E+02  0.00000000000E+00 0.  1.
         11    1    3    3    0    0  0.13616523350E+02  0.20487387810E+01 -0.10443571301E+01  0.13809334554E+02  0.51100000000E-03 0. -1.
        -11    1    3    3    0    0  0.25270397068E+02  0.26435550981E+00  0.79270359948E+01  0.26485859467E+02  0.51100000000E-03 0.  1.
        -12    1    3    3    0    0  0.57105498989E+01 -0.10638915763E+01 -0.66829646759E+00  0.58471245585E+01  0.00000000000E+00 0.  1.
</event>
<event>
 7    1  0.3708346E-009  0.4614232E+02  0.7816164E-02  0.1320468E+00
        -11   -1    0    0    0    0  0.00000000000E+00  0.00000000000E+00  0.45593999997E+02  0.45594000000E+02  0.51100000000E-03 0. -1.
         11   -1    0    0    0    0 -0.00000000000E+00 -0.00000000000E+00 -0.45593999997E+02  0.45594000000E+02  0.51100000000E-03 0.  1.
    9900012    2    1    2    0    0 -0.11757297299E+02  0.10637202527E+01  0.43471228154E+02  0.46142320765E+02  0.10000027393E+02 0.  0.
        -12    1    1    2    0    0  0.11757297299E+02 -0.10637202527E+01 -0.43471228154E+02  0.45045679235E+02  0.00000000000E+00 0.  1.
         11    1    3    3    0    0 -0.13272912450E+01  0.71261864987E+00  0.54620577923E+01  0.56660041455E+01  0.51100000000E-03 0. -1.
        -11    1    3    3    0    0 -0.53646813363E+01  0.47794065072E+01  0.19995932165E+02  0.21247584235E+02  0.51100000000E-03 0.  1.
        -12    1    3    3    0    0 -0.50653247176E+01 -0.44283049044E+01  0.18013238196E+02  0.19228732385E+02  0.00000000000E+00 0.  1.
</event>
<event>
 7    1  0.3708346E-009  0.4614232E+02  0.7816164E-02  0.1320468E+00
        -11   -1    0    0    0    0  0.00000000000E+00  0.00000000000E+00  0.45593999997E+02  0.45594000000E+02  0.51100000000E-03 0. -1.
         11   -1    0    0    0    0 -0.00000000000E+00 -0.00000000000E+00 -0.45593999997E+02  0.45594000000E+02  0.51100000000E-03 0.  1.
    9900012    2    1    2    0    0 -0.19210744448E+01  0.35960527600E+02  0.27060365883E+02  0.46142317921E+02  0.10000001457E+02 0.  0.
        -12    1    1    2    0    0  0.19210744448E+01 -0.35960527600E+02 -0.27060365883E+02  0.45045682079E+02  0.00000000000E+00 0.  1.
         11    1    3    3    0    0 -0.20280776432E+01  0.41843780887E+01  0.25921538342E+01  0.53236623369E+01  0.51100000000E-03 0. -1.
        -11    1    3    3    0    0  0.38494254870E+01  0.15417740112E+02  0.11945969642E+02  0.19880416940E+02  0.51100000000E-03 0.  1.
        -12    1    3    3    0    0 -0.37424222885E+01  0.16358409399E+02  0.12522242406E+02  0.20938238644E+02  0.00000000000E+00 0.  1.
</event>
<event>
 7    1  0.3708346E-009  0.4614232E+02  0.7816164E-02  0.1320468E+00
        -11   -1    0    0    0    0  0.00000000000E+00  0.00000000000E+00  0.45593999997E+02  0.45594000000E+02  0.51100000000E-03 0.  1.
         11   -1    0    0    0    0 -0.00000000000E+00 -0.00000000000E+00 -0.45593999997E+02  0.45594000000E+02  0.51100000000E-03 0. -1.
    9900012    2    1    2    0    0  0.33677419969E+02  0.18425081814E+02 -0.23568216225E+02  0.46142322387E+02  0.10000042180E+02 0.  0.
        -12    1    1    2    0    0 -0.33677419969E+02 -0.18425081814E+02  0.23568216225E+02  0.45045677613E+02  0.00000000000E+00 0.  1.
         11    1    3    3    0    0  0.18291694669E+01  0.14386119917E+01 -0.21669558483E+01  0.31798055461E+01  0.51100000000E-03 0. -1.
        -11    1    3    3    0    0  0.15572905401E+02  0.31815203974E+01 -0.85035324388E+01  0.18026300753E+02  0.51100000000E-03 0.  1.
        -12    1    3    3    0    0  0.16275345102E+02  0.13804949425E+02 -0.12897727938E+02  0.24936216087E+02  0.00000000000E+00 0.  1.
</event>
<event>
 7    1  0.3708346E-009  0.4614232E+02  0.7816164E-02  0.1320468E+00
        -11   -1    0    0    0    0  0.00000000000E+00  0.00000000000E+00  0.45593999997E+02  0.45594000000E+02  0.51100000000E-03 0. -1.
         11   -1    0    0    0    0 -0.00000000000E+00 -0.00000000000E+00 -0.45593999997E+02  0.45594000000E+02  0.51100000000E-03 0.  1.
    9900012    2    1    2    0    0  0.31927643197E+02 -0.10536259244E+02  0.29978757121E+02  0.46142322766E+02  0.10000045636E+02 0.  0.
        -12    1    1    2    0    0 -0.31927643197E+02  0.10536259244E+02 -0.29978757121E+02  0.45045677234E+02  0.00000000000E+00 0.  1.
         11    1    3    3    0    0  0.14983565610E+02 -0.16492431323E+01  0.13540370470E+02  0.20262499205E+02  0.51100000000E-03 0. -1.
        -11    1    3    3    0    0  0.13197054026E+02 -0.39987638714E+01  0.10595345137E+02  0.17390045610E+02  0.51100000000E-03 0.  1.
        -12    1    3    3    0    0  0.37470235608E+01 -0.48882522398E+01  0.58430415136E+01  0.84897779509E+01  0.00000000000E+00 0.  1.
</event>
<event>
 7    1  0.3708346E-009  0.4614232E+02  0.7816164E-02  0.1320468E+00
        -11   -1    0    0    0    0  0.00000000000E+00  0.00000000000E+00  0.45593999997E+02  0.45594000000E+02  0.51100000000E-03 0. -1.
         11   -1    0    0    0    0 -0.00000000000E+00 -0.00000000000E+00 -0.45593999997E+02  0.45594000000E+02  0.51100000000E-03 0.  1.
    9900012    2    1    2    0    0 -0.23659246062E+02  0.16857789154E+02  0.34426271481E+02  0.46142321545E+02  0.10000034508E+02 0.  0.
        -12    1    1    2    0    0  0.23659246062E+02 -0.16857789154E+02 -0.34426271481E+02  0.45045678455E+02  0.00000000000E+00 0.  1.
         11    1    3    3    0    0 -0.88446037317E+01  0.86047939603E+01  0.10290151701E+02  0.16067256037E+02  0.51100000000E-03 0. -1.
        -11    1    3    3    0    0 -0.12537009035E+02  0.83450358303E+01  0.17661379891E+02  0.23210785391E+02  0.51100000000E-03 0.  1.
        -12    1    3    3    0    0 -0.22776332959E+01 -0.92040636928E-01  0.64747398881E+01  0.68642801172E+01  0.00000000000E+00 0.  1.
</event>
<event>
 7    1  0.3708346E-009  0.4614232E+02  0.7816164E-02  0.1320468E+00
        -11   -1    0    0    0    0  0.00000000000E+00  0.00000000000E+00  0.45593999997E+02  0.45594000000E+02  0.51100000000E-03 0.  1.
         11   -1    0    0    0    0 -0.00000000000E+00 -0.00000000000E+00 -0.45593999997E+02  0.45594000000E+02  0.51100000000E-03 0. -1.
    9900012    2    1    2    0    0  0.21559766741E+02 -0.17612034251E+02 -0.35413361970E+02  0.46142317650E+02  0.99999989846E+01 0.  0.
        -12    1    1    2    0    0 -0.21559766741E+02  0.17612034251E+02  0.35413361970E+02  0.45045682350E+02  0.00000000000E+00 0.  1.
         11    1    3    3    0    0  0.16363192200E+02 -0.15322912089E+02 -0.30902683205E+02  0.38177500224E+02  0.51100000000E-03 0. -1.
        -11    1    3    3    0    0  0.18629810065E+01  0.24731760222E+00 -0.29437546168E+01  0.34924999259E+01  0.51100000000E-03 0.  1.
         12    1    3    3    0    0  0.33335935342E+01 -0.25364397649E+01 -0.15669241484E+01  0.44723174998E+01  0.00000000000E+00 0. -1.
</event>
<event>
 7    1  0.3708346E-009  0.4614232E+02  0.7816164E-02  0.1320468E+00
        -11   -1    0    0    0    0  0.00000000000E+00  0.00000000000E+00  0.45593999997E+02  0.45594000000E+02  0.51100000000E-03 0. -1.
         11   -1    0    0    0    0 -0.00000000000E+00 -0.00000000000E+00 -0.45593999997E+02  0.45594000000E+02  0.51100000000E-03 0.  1.
    9900012    2    1    2    0    0  0.44097796625E+02  0.75109586757E+01  0.52993742748E+01  0.46142317242E+02  0.99999952698E+01 0.  0.
        -12    1    1    2    0    0 -0.44097796625E+02 -0.75109586757E+01 -0.52993742748E+01  0.45045682758E+02  0.00000000000E+00 0.  1.
         11    1    3    3    0    0  0.24102746942E+02  0.75304683074E+01  0.43730028807E+01  0.25627592894E+02  0.51100000000E-03 0. -1.
        -11    1    3    3    0    0  0.19441392228E+02 -0.26330491615E+00  0.41980216011E-01  0.19443220511E+02  0.51100000000E-03 0.  1.
         12    1    3    3    0    0  0.55365745516E+00  0.24379528444E+00  0.88439117811E+00  0.10715038377E+01  0.00000000000E+00 0. -1.
</event>
<event>
 7    1  0.3708346E-009  0.4614232E+02  0.7816164E-02  0.1320468E+00
        -11   -1    0    0    0    0  0.00000000000E+00  0.00000000000E+00  0.45593999997E+02  0.45594000000E+02  0.51100000000E-03 0.  1.
         11   -1    0    0    0    0 -0.00000000000E+00 -0.00000000000E+00 -0.45593999997E+02  0.45594000000E+02  0.51100000000E-03 0. -1.
    9900012    2    1    2    0    0 -0.31056562454E+02 -0.31891058708E+02 -0.68966579187E+01  0.46142316662E+02  0.99999899748E+01 0.  0.
        -12    1    1    2    0    0  0.31056562454E+02  0.31891058708E+02  0.68966579187E+01  0.45045683338E+02  0.00000000000E+00 0.  1.
         11    1    3    3    0    0 -0.14609406484E+00 -0.29609221504E+01 -0.16482060280E+01  0.33919001796E+01  0.51100000000E-03 0. -1.
        -11    1    3    3    0    0 -0.15508610493E+01 -0.10098067219E+01  0.23389229036E+00  0.18653647028E+01  0.51100000000E-03 0.  1.
         12    1    3    3    0    0 -0.29359607340E+02 -0.27920329836E+02 -0.54823441810E+01  0.40885051779E+02  0.00000000000E+00 0. -1.
</event>
<event>
 7    1  0.3708346E-009  0.4614232E+02  0.7816164E-02  0.1320468E+00
        -11   -1    0    0    0    0  0.00000000000E+00  0.00000000000E+00  0.45593999997E+02  0.45594000000E+02  0.51100000000E-03 0.  1.
         11   -1    0    0    0    0 -0.00000000000E+00 -0.00000000000E+00 -0.45593999997E+02  0.45594000000E+02  0.51100000000E-03 0. -1.
    9900012    2    1    2    0    0  0.20280700791E+02  0.24206191965E+02 -0.32122685582E+02  0.46142317821E+02  0.10000000544E+02 0.  0.
        -12    1    1    2    0    0 -0.20280700791E+02 -0.24206191965E+02  0.32122685582E+02  0.45045682179E+02  0.00000000000E+00 0.  1.
         11    1    3    3    0    0  0.58083315885E+01  0.14314395858E+02 -0.15086659024E+02  0.21592728530E+02  0.51100000000E-03 0. -1.
        -11    1    3    3    0    0  0.29966163078E+01  0.14680590384E+01 -0.22505521757E+01  0.40249089422E+01  0.51100000000E-03 0.  1.
         12    1    3    3    0    0  0.11475752895E+02  0.84237370686E+01 -0.14785474382E+02  0.20524680348E+02  0.00000000000E+00 0. -1.
</event>
<event>
 7    1  0.3708346E-009  0.4614231E+02  0.7816164E-02  0.1320468E+00
        -11   -1    0    0    0    0  0.00000000000E+00  0.00000000000E+00  0.45593999997E+02  0.45594000000E+02  0.51100000000E-03 0. -1.
         11   -1    0    0    0    0 -0.00000000000E+00 -0.00000000000E+00 -0.45593999997E+02  0.45594000000E+02  0.51100000000E-03 0.  1.
    9900012    2    1    2    0    0 -0.17420935486E+02  0.22782354695E+00  0.41540017616E+02  0.46142312523E+02  0.99999522314E+01 0.  0.
        -12    1    1    2    0    0  0.17420935486E+02 -0.22782354695E+00 -0.41540017616E+02  0.45045687477E+02  0.00000000000E+00 0.  1.
         11    1    3    3    0    0 -0.34187464327E+01  0.93031062318E+00  0.15653692623E+02  0.16049654141E+02  0.51100000000E-03 0. -1.
        -11    1    3    3    0    0 -0.71765079429E+01 -0.10063745651E+01  0.19245576890E+02  0.20564709726E+02  0.51100000000E-03 0.  1.
        -12    1    3    3    0    0 -0.68256811108E+01  0.30388748882E+00  0.66407481020E+01  0.95279486557E+01  0.00000000000E+00 0.  1.
</event>
<event>
 7    1  0.3708346E-009  0.4614232E+02  0.7816164E-02  0.1320468E+00
        -11   -1    0    0    0    0  0.00000000000E+00  0.00000000000E+00  0.45593999997E+02  0.45594000000E+02  0.51100000000E-03 0.  1.
         11   -1    0    0    0    0 -0.00000000000E+00 -0.00000000000E+00 -0.45593999997E+02  0.45594000000E+02  0.51100000000E-03 0. -1.
    9900012    2    1    2    0    0 -0.12820830542E+02 -0.81471019519E+01 -0.42407126816E+02  0.46142319067E+02  0.10000011904E+02 0.  0.
        -12    1    1    2    0    0  0.12820830542E+02  0.81471019519E+01  0.42407126816E+02  0.45045680933E+02  0.00000000000E+00 0.  1.
         11    1    3    3    0    0 -0.10483141665E+02 -0.90392004770E+01 -0.25772928164E+02  0.29254866789E+02  0.51100000000E-03 0. -1.
        -11    1    3    3    0    0 -0.54484524470E+00  0.97592682758E+00 -0.61541488973E+01  0.62548252114E+01  0.51100000000E-03 0.  1.
         12    1    3    3    0    0 -0.17928436323E+01 -0.83828302491E-01 -0.10480049754E+02  0.10632627066E+02  0.00000000000E+00 0. -1.
</event>
<event>
 7    1  0.3708346E-009  0.4614232E+02  0.7816164E-02  0.1320468E+00
        -11   -1    0    0    0    0  0.00000000000E+00  0.00000000000E+00  0.45593999997E+02  0.45594000000E+02  0.51100000000E-03 0. -1.
         11   -1    0    0    0    0 -0.00000000000E+00 -0.00000000000E+00 -0.45593999997E+02  0.45594000000E+02  0.51100000000E-03 0.  1.
    9900012    2    1    2    0    0  0.13496697414E+02 -0.25279009379E+02  0.34755205528E+02  0.46142317992E+02  0.10000002107E+02 0.  0.
        -12    1    1    2    0    0 -0.13496697414E+02  0.25279009379E+02 -0.34755205528E+02  0.45045682008E+02  0.00000000000E+00 0.  1.
         11    1    3    3    0    0  0.98609167800E+00 -0.62831181308E+01  0.62199490252E+01  0.88959381956E+01  0.51100000000E-03 0. -1.
        -11    1    3    3    0    0  0.11265205270E+02 -0.12368158688E+02  0.23423132227E+02  0.28784011581E+02  0.51100000000E-03 0.  1.
        -12    1    3    3    0    0  0.12454004665E+01 -0.66277325598E+01  0.51121242751E+01  0.84623682152E+01  0.00000000000E+00 0.  1.
</event>
<event>
 7    1  0.3708346E-009  0.4614232E+02  0.7816164E-02  0.1320468E+00
        -11   -1    0    0    0    0  0.00000000000E+00  0.00000000000E+00  0.45593999997E+02  0.45594000000E+02  0.51100000000E-03 0.  1.
         11   -1    0    0    0    0 -0.00000000000E+00 -0.00000000000E+00 -0.45593999997E+02  0.45594000000E+02  0.51100000000E-03 0. -1.
    9900012    2    1    2    0    0 -0.42857911465E+02  0.13716594719E+02  0.20415361391E+01  0.46142318569E+02  0.10000007367E+02 0.  0.
        -12    1    1    2    0    0  0.42857911465E+02 -0.13716594719E+02 -0.20415361391E+01  0.45045681431E+02  0.00000000000E+00 0.  1.
         11    1    3    3    0    0 -0.38903119858E+01  0.32257334774E+01 -0.18292619533E+01  0.53745775061E+01  0.51100000000E-03 0. -1.
        -11    1    3    3    0    0 -0.34902982689E+01 -0.29250366712E+00  0.24917062453E+00  0.35113852910E+01  0.51100000000E-03 0.  1.
         12    1    3    3    0    0 -0.35477301210E+02  0.10783364908E+02  0.36216274679E+01  0.37256355772E+02  0.00000000000E+00 0. -1.
</event>
<event>
 7    1  0.3708346E-009  0.4614232E+02  0.7816164E-02  0.1320468E+00
        -11   -1    0    0    0    0  0.00000000000E+00  0.00000000000E+00  0.45593999997E+02  0.45594000000E+02  0.51100000000E-03 0.  1.
         11   -1    0    0    0    0 -0.00000000000E+00 -0.00000000000E+00 -0.45593999997E+02  0.45594000000E+02  0.51100000000E-03 0. -1.
    9900012    2    1    2    0    0 -0.17079871472E+02  0.29202316409E+02 -0.29742497437E+02  0.46142318221E+02  0.10000004191E+02 0.  0.
        -12    1    1    2    0    0  0.17079871472E+02 -0.29202316409E+02  0.29742497437E+02  0.45045681779E+02  0.00000000000E+00 0.  1.
         11    1    3    3    0    0 -0.26188200621E+01  0.40979804108E+01 -0.49915077127E+01  0.69689892719E+01  0.51100000000E-03 0. -1.
        -11    1    3    3    0    0 -0.80695320827E+01  0.21514456849E+02 -0.19749063117E+02  0.30298757331E+02  0.51100000000E-03 0.  1.
        -12    1    3    3    0    0 -0.63915193270E+01  0.35898791495E+01 -0.50019266078E+01  0.88745716182E+01  0.00000000000E+00 0.  1.
</event>
<event>
 7    1  0.3708346E-009  0.4614232E+02  0.7816164E-02  0.1320468E+00
        -11   -1    0    0    0    0  0.00000000000E+00  0.00000000000E+00  0.45593999997E+02  0.45594000000E+02  0.51100000000E-03 0.  1.
         11   -1    0    0    0    0 -0.00000000000E+00 -0.00000000000E+00 -0.45593999997E+02  0.45594000000E+02  0.51100000000E-03 0. -1.
    9900012    2    1    2    0    0  0.21823319198E+02  0.15569707990E+02 -0.36200005488E+02  0.46142318020E+02  0.10000002360E+02 0.  0.
        -12    1    1    2    0    0 -0.21823319198E+02 -0.15569707990E+02  0.36200005488E+02  0.45045681980E+02  0.00000000000E+00 0.  1.
         11    1    3    3    0    0  0.76195002502E-01  0.16674605416E+01 -0.50945639478E+01  0.53610458323E+01  0.51100000000E-03 0. -1.
        -11    1    3    3    0    0  0.33078025659E+01  0.29194359133E+01 -0.87011462898E+01  0.97557475820E+01  0.51100000000E-03 0.  1.
         12    1    3    3    0    0  0.18439321630E+02  0.10982811535E+02 -0.22404295251E+02  0.31025524606E+02  0.00000000000E+00 0. -1.
</event>
<event>
 7    1  0.3708346E-009  0.4614231E+02  0.7816164E-02  0.1320468E+00
        -11   -1    0    0    0    0  0.00000000000E+00  0.00000000000E+00  0.45593999997E+02  0.45594000000E+02  0.51100000000E-03 0.  1.
         11   -1    0    0    0    0 -0.00000000000E+00 -0.00000000000E+00 -0.45593999997E+02  0.45594000000E+02  0.51100000000E-03 0. -1.
    9900012    2    1    2    0    0 -0.19653964506E+02  0.99080880407E+01 -0.39302232882E+02  0.46142311650E+02  0.99999442733E+01 0.  0.
        -12    1    1    2    0    0  0.19653964506E+02 -0.99080880407E+01  0.39302232882E+02  0.45045688350E+02  0.00000000000E+00 0.  1.
         11    1    3    3    0    0 -0.71163356536E+01  0.23859419828E+01 -0.63350649780E+01  0.98218125016E+01  0.51100000000E-03 0.  1.
        -11    1    3    3    0    0 -0.75588032720E+01  0.65812258344E+01 -0.19357130202E+02  0.21797856095E+02  0.51100000000E-03 0. -1.
         12    1    3    3    0    0 -0.49788255800E+01  0.94092022355E+00 -0.13610037702E+02  0.14522643054E+02  0.00000000000E+00 0. -1.
</event>
<event>
 7    1  0.3708346E-009  0.4614232E+02  0.7816164E-02  0.1320468E+00
        -11   -1    0    0    0    0  0.00000000000E+00  0.00000000000E+00  0.45593999997E+02  0.45594000000E+02  0.51100000000E-03 0.  1.
         11   -1    0    0    0    0 -0.00000000000E+00 -0.00000000000E+00 -0.45593999997E+02  0.45594000000E+02  0.51100000000E-03 0. -1.
    9900012    2    1    2    0    0 -0.31316851828E+01 -0.32435007434E+02 -0.31101061720E+02  0.46142320968E+02  0.10000029243E+02 0.  0.
        -12    1    1    2    0    0  0.31316851828E+01  0.32435007434E+02  0.31101061720E+02  0.45045679032E+02  0.00000000000E+00 0.  1.
         11    1    3    3    0    0 -0.40594647180E+01 -0.25884585987E+02 -0.26928367371E+02  0.37571638440E+02  0.51100000000E-03 0. -1.
        -11    1    3    3    0    0  0.86414898414E+00 -0.94733896727E-01 -0.11513314295E+01  0.14426684649E+01  0.51100000000E-03 0.  1.
        -12    1    3    3    0    0  0.63630551045E-01 -0.64556875504E+01 -0.30213629194E+01  0.71280140632E+01  0.00000000000E+00 0.  1.
</event>
<event>
 7    1  0.3708346E-009  0.4614232E+02  0.7816164E-02  0.1320468E+00
        -11   -1    0    0    0    0  0.00000000000E+00  0.00000000000E+00  0.45593999997E+02  0.45594000000E+02  0.51100000000E-03 0.  1.
         11   -1    0    0    0    0 -0.00000000000E+00 -0.00000000000E+00 -0.45593999997E+02  0.45594000000E+02  0.51100000000E-03 0. -1.
    9900012    2    1    2    0    0  0.41276415752E+02 -0.17363473555E+02  0.48867814900E+01  0.46142319357E+02  0.10000014557E+02 0.  0.
        -12    1    1    2    0    0 -0.41276415752E+02  0.17363473555E+02 -0.48867814900E+01  0.45045680643E+02  0.00000000000E+00 0.  1.
         11    1    3    3    0    0  0.10276407910E+01 -0.77475873656E+00  0.14005886144E+01  0.19020897516E+01  0.51100000000E-03 0. -1.
        -11    1    3    3    0    0  0.19863793870E+01 -0.27248222501E+01  0.73159907911E+00  0.34504487878E+01  0.51100000000E-03 0.  1.
         12    1    3    3    0    0  0.38262395574E+02 -0.13863892568E+02  0.27545937965E+01  0.40789780818E+02  0.00000000000E+00 0. -1.
</event>
<event>
 7    1  0.3708346E-009  0.4614232E+02  0.7816164E-02  0.1320468E+00
        -11   -1    0    0    0    0  0.00000000000E+00  0.00000000000E+00  0.45593999997E+02  0.45594000000E+02  0.51100000000E-03 0.  1.
         11   -1    0    0    0    0 -0.00000000000E+00 -0.00000000000E+00 -0.45593999997E+02  0.45594000000E+02  0.51100000000E-03 0. -1.
    9900012    2    1    2    0    0  0.31125723812E+02 -0.36319700249E+01 -0.32359104730E+02  0.46142317099E+02  0.99999939618E+01 0.  0.
        -12    1    1    2    0    0 -0.31125723812E+02  0.36319700249E+01  0.32359104730E+02  0.45045682901E+02  0.00000000000E+00 0.  1.
         11    1    3    3    0    0  0.26712339617E+01 -0.11977327933E+01 -0.46912700286E+01  0.55297440687E+01  0.51100000000E-03 0. -1.
        -11    1    3    3    0    0  0.12100902625E+02  0.29178531257E+01 -0.10200543110E+02  0.16093377247E+02  0.51100000000E-03 0.  1.
        -12    1    3    3    0    0  0.16353587225E+02 -0.53520903574E+01 -0.17467291592E+02  0.24519195783E+02  0.00000000000E+00 0.  1.
</event>
<event>
 7    1  0.3708346E-009  0.4614232E+02  0.7816164E-02  0.1320468E+00
        -11   -1    0    0    0    0  0.00000000000E+00  0.00000000000E+00  0.45593999997E+02  0.45594000000E+02  0.51100000000E-03 0.  1.
         11   -1    0    0    0    0 -0.00000000000E+00 -0.00000000000E+00 -0.45593999997E+02  0.45594000000E+02  0.51100000000E-03 0. -1.
    9900012    2    1    2    0    0 -0.25966452938E+02  0.36334146528E+02 -0.58895356230E+01  0.46142317499E+02  0.99999976129E+01 0.  0.
        -12    1    1    2    0    0  0.25966452938E+02 -0.36334146528E+02  0.58895356230E+01  0.45045682501E+02  0.00000000000E+00 0.  1.
         11    1    3    3    0    0 -0.15845126860E+02  0.17306091957E+02 -0.12371622857E+01  0.23496796267E+02  0.51100000000E-03 0. -1.
        -11    1    3    3    0    0 -0.56493362230E+01  0.73730944296E+01  0.97132592650E-01  0.92890772539E+01  0.51100000000E-03 0.  1.
         12    1    3    3    0    0 -0.44719898545E+01  0.11654960142E+02 -0.47495059300E+01  0.13356443978E+02  0.00000000000E+00 0. -1.
</event>
<event>
 7    1  0.3708346E-009  0.4614232E+02  0.7816164E-02  0.1320468E+00
        -11   -1    0    0    0    0  0.00000000000E+00  0.00000000000E+00  0.45593999997E+02  0.45594000000E+02  0.51100000000E-03 0.  1.
         11   -1    0    0    0    0 -0.00000000000E+00 -0.00000000000E+00 -0.45593999997E+02  0.45594000000E+02  0.51100000000E-03 0. -1.
    9900012    2    1    2    0    0 -0.64456976069E+01 -0.29874534804E+02 -0.33091970793E+02  0.46142318982E+02  0.10000011132E+02 0.  0.
        -12    1    1    2    0    0  0.64456976069E+01  0.29874534804E+02  0.33091970793E+02  0.45045681018E+02  0.00000000000E+00 0.  1.
         11    1    3    3    0    0 -0.83479283454E+01 -0.23352698461E+02 -0.25343084206E+02  0.35458544110E+02  0.51100000000E-03 0. -1.
        -11    1    3    3    0    0  0.58936982816E+00 -0.24700415882E+01 -0.10551448395E+01  0.27498714761E+01  0.51100000000E-03 0.  1.
         12    1    3    3    0    0  0.13128609103E+01 -0.40517947548E+01 -0.66937417476E+01  0.79339033954E+01  0.00000000000E+00 0. -1.
</event>
<event>
 7    1  0.3708346E-009  0.4614232E+02  0.7816164E-02  0.1320468E+00
        -11   -1    0    0    0    0  0.00000000000E+00  0.00000000000E+00  0.45593999997E+02  0.45594000000E+02  0.51100000000E-03 0.  1.
         11   -1    0    0    0    0 -0.00000000000E+00 -0.00000000000E+00 -0.45593999997E+02  0.45594000000E+02  0.51100000000E-03 0. -1.
    9900012    2    1    2    0    0  0.10840041808E+02  0.36070366166E+02 -0.24709022259E+02  0.46142316492E+02  0.99999884258E+01 0.  0.
        -12    1    1    2    0    0 -0.10840041808E+02 -0.36070366166E+02  0.24709022259E+02  0.45045683508E+02  0.00000000000E+00 0.  1.
         11    1    3    3    0    0  0.70900926131E+01  0.22508012562E+02 -0.14473822644E+02  0.27683417147E+02  0.51100000000E-03 0. -1.
        -11    1    3    3    0    0 -0.49013024418E+00  0.93797410935E+01 -0.66308339715E+01  0.11497292292E+02  0.51100000000E-03 0.  1.
        -12    1    3    3    0    0  0.42400794391E+01  0.41826125106E+01 -0.36043656430E+01  0.69616070524E+01  0.00000000000E+00 0.  1.
</event>
<event>
 7    1  0.3708346E-009  0.4614230E+02  0.7816164E-02  0.1320468E+00
        -11   -1    0    0    0    0  0.00000000000E+00  0.00000000000E+00  0.45593999997E+02  0.45594000000E+02  0.51100000000E-03 0.  1.
         11   -1    0    0    0    0 -0.00000000000E+00 -0.00000000000E+00 -0.45593999997E+02  0.45594000000E+02  0.51100000000E-03 0. -1.
    9900012    2    1    2    0    0 -0.25123804270E+02  0.36442912283E+02 -0.83560427275E+01  0.46142302683E+02  0.99998625080E+01 0.  0.
        -12    1    1    2    0    0  0.25123804270E+02 -0.36442912283E+02  0.83560427275E+01  0.45045697317E+02  0.00000000000E+00 0.  1.
         11    1    3    3    0    0 -0.35549116217E+01  0.76067043425E+01 -0.25286090373E+01  0.87688774377E+01  0.51100000000E-03 0.  1.
        -11    1    3    3    0    0 -0.69386745519E+01  0.10390192096E+02  0.18046908788E+01  0.12623716005E+02  0.51100000000E-03 0. -1.
        -12    1    3    3    0    0 -0.14630218097E+02  0.18446015844E+02 -0.76321245691E+01  0.24749709241E+02  0.00000000000E+00 0.  1.
</event>
<event>
 7    1  0.3708346E-009  0.4614232E+02  0.7816164E-02  0.1320468E+00
        -11   -1    0    0    0    0  0.00000000000E+00  0.00000000000E+00  0.45593999997E+02  0.45594000000E+02  0.51100000000E-03 0.  1.
         11   -1    0    0    0    0 -0.00000000000E+00 -0.00000000000E+00 -0.45593999997E+02  0.45594000000E+02  0.51100000000E-03 0. -1.
    9900012    2    1    2    0    0  0.21788956115E+02 -0.32214842710E+02 -0.22727930137E+02  0.46142317547E+02  0.99999980459E+01 0.  0.
        -12    1    1    2    0    0 -0.21788956115E+02  0.32214842710E+02  0.22727930137E+02  0.45045682453E+02  0.00000000000E+00 0.  1.
         11    1    3    3    0    0  0.71546781864E+01 -0.10112455930E+02 -0.35785427471E+01  0.12894074350E+02  0.51100000000E-03 0. -1.
        -11    1    3    3    0    0  0.14548278049E+02 -0.18388439170E+02 -0.16930610663E+02  0.28921145673E+02  0.51100000000E-03 0.  1.
        -12    1    3    3    0    0  0.85999879033E-01 -0.37139476096E+01 -0.22187767262E+01  0.43270975245E+01  0.00000000000E+00 0.  1.
</event>
<event>
 7    1  0.3708346E-009  0.4614232E+02  0.7816164E-02  0.1320468E+00
        -11   -1    0    0    0    0  0.00000000000E+00  0.00000000000E+00  0.45593999997E+02  0.45594000000E+02  0.51100000000E-03 0.  1.
         11   -1    0    0    0    0 -0.00000000000E+00 -0.00000000000E+00 -0.45593999997E+02  0.45594000000E+02  0.51100000000E-03 0. -1.
    9900012    2    1    2    0    0 -0.21248183615E+02 -0.83897713578E+01 -0.38823189522E+02  0.46142316355E+02  0.99999871787E+01 0.  0.
        -12    1    1    2    0    0  0.21248183615E+02  0.83897713578E+01  0.38823189522E+02  0.45045683645E+02  0.00000000000E+00 0.  1.
         11    1    3    3    0    0 -0.49596551299E+01 -0.76969261435E+00 -0.14974256307E+02  0.15793003449E+02  0.51100000000E-03 0. -1.
        -11    1    3    3    0    0 -0.43955141261E+01  0.10212115034E+00 -0.39203355946E+01  0.58906709802E+01  0.51100000000E-03 0.  1.
         12    1    3    3    0    0 -0.11893014359E+02 -0.77221998938E+01 -0.19928597621E+02  0.24458641926E+02  0.00000000000E+00 0. -1.
</event>
<event>
 7    1  0.3708346E-009  0.4614232E+02  0.7816164E-02  0.1320468E+00
        -11   -1    0    0    0    0  0.00000000000E+00  0.00000000000E+00  0.45593999997E+02  0.45594000000E+02  0.51100000000E-03 0.  1.
         11   -1    0    0    0    0 -0.00000000000E+00 -0.00000000000E+00 -0.45593999997E+02  0.45594000000E+02  0.51100000000E-03 0. -1.
    9900012    2    1    2    0    0  0.13118788631E+02  0.14997544229E+02 -0.40399066204E+02  0.46142317652E+02  0.99999990066E+01 0.  0.
        -12    1    1    2    0    0 -0.13118788631E+02 -0.14997544229E+02  0.40399066204E+02  0.45045682348E+02  0.00000000000E+00 0.  1.
         11    1    3    3    0    0 -0.69262622259E+00  0.14433509182E+01 -0.55487313579E+01  0.57750682161E+01  0.51100000000E-03 0. -1.
        -11    1    3    3    0    0  0.18471827162E+01  0.52832535524E+01 -0.71452974726E+01  0.90763499448E+01  0.51100000000E-03 0.  1.
         12    1    3    3    0    0  0.11964232137E+02  0.82709397588E+01 -0.27705037373E+02  0.31290899491E+02  0.00000000000E+00 0. -1.
</event>
<event>
 7    1  0.3708346E-009  0.4614232E+02  0.7816164E-02  0.1320468E+00
        -11   -1    0    0    0    0  0.00000000000E+00  0.00000000000E+00  0.45593999997E+02  0.45594000000E+02  0.51100000000E-03 0. -1.
         11   -1    0    0    0    0 -0.00000000000E+00 -0.00000000000E+00 -0.45593999997E+02  0.45594000000E+02  0.51100000000E-03 0.  1.
    9900012    2    1    2    0    0  0.36734384304E+02 -0.26044331289E+02  0.11795656394E+01  0.46142316993E+02  0.99999929945E+01 0.  0.
        -12    1    1    2    0    0 -0.36734384304E+02  0.26044331289E+02 -0.11795656394E+01  0.45045683007E+02  0.00000000000E+00 0.  1.
         11    1    3    3    0    0  0.25436183208E+02 -0.13437380277E+02  0.39448007921E+00  0.28770092452E+02  0.51100000000E-03 0. -1.
        -11    1    3    3    0    0  0.53753565617E+00 -0.99947957744E+00 -0.90873698097E+00  0.14538594049E+01  0.51100000000E-03 0.  1.
        -12    1    3    3    0    0  0.10760665440E+02 -0.11607471434E+02  0.16938225411E+01  0.15918365136E+02  0.00000000000E+00 0.  1.
</event>
<event>
 7    1  0.3708346E-009  0.4614232E+02  0.7816164E-02  0.1320468E+00
        -11   -1    0    0    0    0  0.00000000000E+00  0.00000000000E+00  0.45593999997E+02  0.45594000000E+02  0.51100000000E-03 0.  1.
         11   -1    0    0    0    0 -0.00000000000E+00 -0.00000000000E+00 -0.45593999997E+02  0.45594000000E+02  0.51100000000E-03 0. -1.
    9900012    2    1    2    0    0 -0.44012645468E+01  0.33029076617E+02 -0.30312083978E+02  0.46142318000E+02  0.10000002180E+02 0.  0.
        -12    1    1    2    0    0  0.44012645468E+01 -0.33029076617E+02  0.30312083978E+02  0.45045682000E+02  0.00000000000E+00 0.  1.
         11    1    3    3    0    0  0.96954027555E+00  0.12024332722E+02 -0.97270963468E+01  0.15496483128E+02  0.51100000000E-03 0. -1.
        -11    1    3    3    0    0 -0.26237108810E+01  0.23533343383E+01 -0.15349245298E+01  0.38442209703E+01  0.51100000000E-03 0.  1.
        -12    1    3    3    0    0 -0.27470939413E+01  0.18651409557E+02 -0.19050063101E+02  0.26801613902E+02  0.00000000000E+00 0.  1.
</event>
<event>
 7    1  0.3751719E-009  0.4614232E+02  0.7816164E-02  0.1320468E+00
        -11   -1    0    0    0    0  0.00000000000E+00  0.00000000000E+00  0.45593999997E+02  0.45594000000E+02  0.51100000000E-03 0. -1.
         11   -1    0    0    0    0 -0.00000000000E+00 -0.00000000000E+00 -0.45593999997E+02  0.45594000000E+02  0.51100000000E-03 0.  1.
    9900012    2    1    2    0    0  0.13282368918E+02 -0.20674917001E+02  0.37752350455E+02  0.46142317832E+02  0.10000000650E+02 0.  0.
        -12    1    1    2    0    0 -0.13282368918E+02  0.20674917001E+02 -0.37752350455E+02  0.45045682168E+02  0.00000000000E+00 0.  1.
         11    1    3    3    0    0  0.13282433762E+02 -0.13461224407E+02  0.26787072935E+02  0.32789859498E+02  0.51100000000E-03 0. -1.
        -11    1    3    3    0    0 -0.78705905081E+00 -0.22061328369E+01  0.21281497523E+01  0.31647283726E+01  0.51100000000E-03 0.  1.
         12    1    3    3    0    0  0.78699420681E+00 -0.50075597575E+01  0.88371277671E+01  0.10187729962E+02  0.00000000000E+00 0. -1.
</event>
<event>
 7    1  0.3708346E-009  0.4614232E+02  0.7816164E-02  0.1320468E+00
        -11   -1    0    0    0    0  0.00000000000E+00  0.00000000000E+00  0.45593999997E+02  0.45594000000E+02  0.51100000000E-03 0. -1.
         11   -1    0    0    0    0 -0.00000000000E+00 -0.00000000000E+00 -0.45593999997E+02  0.45594000000E+02  0.51100000000E-03 0.  1.
    9900012    2    1    2    0    0  0.40487128742E+02 -0.10938558994E+02 -0.16439397694E+02  0.46142318041E+02  0.10000002552E+02 0.  0.
        -12    1    1    2    0    0 -0.40487128742E+02  0.10938558994E+02  0.16439397694E+02  0.45045681959E+02  0.00000000000E+00 0.  1.
         11    1    3    3    0    0  0.27135195439E+01 -0.12249494153E+01  0.36255906874E+00  0.29991896780E+01  0.51100000000E-03 0. -1.
        -11    1    3    3    0    0  0.19387726141E+01  0.45121601408E+00 -0.26100615176E+01  0.32825076584E+01  0.51100000000E-03 0.  1.
        -12    1    3    3    0    0  0.35834836584E+02 -0.10164825593E+02 -0.14191895245E+02  0.39860620705E+02  0.00000000000E+00 0.  1.
</event>
<event>
 7    1  0.3708346E-009  0.4614232E+02  0.7816164E-02  0.1320468E+00
        -11   -1    0    0    0    0  0.00000000000E+00  0.00000000000E+00  0.45593999997E+02  0.45594000000E+02  0.51100000000E-03 0.  1.
         11   -1    0    0    0    0 -0.00000000000E+00 -0.00000000000E+00 -0.45593999997E+02  0.45594000000E+02  0.51100000000E-03 0. -1.
    9900012    2    1    2    0    0 -0.28130905058E+02  0.11403699045E+02 -0.33282450283E+02  0.46142315766E+02  0.99999818032E+01 0.  0.
        -12    1    1    2    0    0  0.28130905058E+02 -0.11403699045E+02  0.33282450283E+02  0.45045684234E+02  0.00000000000E+00 0.  1.
         11    1    3    3    0    0 -0.14206075667E+02  0.74133773222E+01 -0.11034303574E+02  0.19455760196E+02  0.51100000000E-03 0. -1.
        -11    1    3    3    0    0 -0.92042359993E+01  0.12829347760E+01 -0.13800383669E+02  0.16637742384E+02  0.51100000000E-03 0.  1.
         12    1    3    3    0    0 -0.47205933913E+01  0.27073869471E+01 -0.84477630401E+01  0.10048813185E+02  0.00000000000E+00 0. -1.
</event>
<event>
 7    1  0.3708346E-009  0.4614232E+02  0.7816164E-02  0.1320468E+00
        -11   -1    0    0    0    0  0.00000000000E+00  0.00000000000E+00  0.45593999997E+02  0.45594000000E+02  0.51100000000E-03 0. -1.
         11   -1    0    0    0    0 -0.00000000000E+00 -0.00000000000E+00 -0.45593999997E+02  0.45594000000E+02  0.51100000000E-03 0.  1.
    9900012    2    1    2    0    0  0.21843279287E+02  0.32057243597E+02  0.22897980585E+02  0.46142320608E+02  0.10000025959E+02 0.  0.
        -12    1    1    2    0    0 -0.21843279287E+02 -0.32057243597E+02 -0.22897980585E+02  0.45045679392E+02  0.00000000000E+00 0.  1.
         11    1    3    3    0    0  0.10315402463E+02  0.18379035435E+02  0.98835863158E+01  0.23278353684E+02  0.51100000000E-03 0. -1.
        -11    1    3    3    0    0 -0.13706685313E+00  0.28855719957E+01  0.23703215172E+01  0.37368084539E+01  0.51100000000E-03 0.  1.
         12    1    3    3    0    0  0.11664943677E+02  0.10792636165E+02  0.10644072752E+02  0.19127158470E+02  0.00000000000E+00 0. -1.
</event>
<event>
 7    1  0.3708346E-009  0.4614232E+02  0.7816164E-02  0.1320468E+00
        -11   -1    0    0    0    0  0.00000000000E+00  0.00000000000E+00  0.45593999997E+02  0.45594000000E+02  0.51100000000E-03 0.  1.
         11   -1    0    0    0    0 -0.00000000000E+00 -0.00000000000E+00 -0.45593999997E+02  0.45594000000E+02  0.51100000000E-03 0. -1.
    9900012    2    1    2    0    0  0.36843896576E+02 -0.96420944660E+01 -0.24055576778E+02  0.46142317912E+02  0.10000001380E+02 0.  0.
        -12    1    1    2    0    0 -0.36843896576E+02  0.96420944660E+01  0.24055576778E+02  0.45045682088E+02  0.00000000000E+00 0.  1.
         11    1    3    3    0    0  0.20152588603E+02 -0.31818150228E+01 -0.94026988647E+01  0.22464672721E+02  0.51100000000E-03 0. -1.
        -11    1    3    3    0    0  0.67951860160E+01 -0.24761289252E+01 -0.91831031483E+01  0.11689103949E+02  0.51100000000E-03 0.  1.
         12    1    3    3    0    0  0.98961219570E+01 -0.39841505180E+01 -0.54697747654E+01  0.11988541242E+02  0.00000000000E+00 0. -1.
</event>
<event>
 7    1  0.3708346E-009  0.4614232E+02  0.7816164E-02  0.1320468E+00
        -11   -1    0    0    0    0  0.00000000000E+00  0.00000000000E+00  0.45593999997E+02  0.45594000000E+02  0.51100000000E-03 0. -1.
         11   -1    0    0    0    0 -0.00000000000E+00 -0.00000000000E+00 -0.45593999997E+02  0.45594000000E+02  0.51100000000E-03 0.  1.
    9900012    2    1    2    0    0 -0.21155633732E+02 -0.34054936428E+02  0.20538110067E+02  0.46142317645E+02  0.99999989375E+01 0.  0.
        -12    1    1    2    0    0  0.21155633732E+02  0.34054936428E+02 -0.20538110067E+02  0.45045682355E+02  0.00000000000E+00 0.  1.
         11    1    3    3    0    0 -0.10104121260E+02 -0.22715512067E+02  0.13594785911E+02  0.28335595267E+02  0.51100000000E-03 0. -1.
        -11    1    3    3    0    0 -0.58231367737E+01 -0.55901715458E+01  0.12387651814E+01  0.81666075718E+01  0.51100000000E-03 0.  1.
        -12    1    3    3    0    0 -0.52283756981E+01 -0.57492528157E+01  0.57045589737E+01  0.96401148056E+01  0.00000000000E+00 0.  1.
</event>
<event>
 7    1  0.3708346E-009  0.4614232E+02  0.7816164E-02  0.1320468E+00
        -11   -1    0    0    0    0  0.00000000000E+00  0.00000000000E+00  0.45593999997E+02  0.45594000000E+02  0.51100000000E-03 0. -1.
         11   -1    0    0    0    0 -0.00000000000E+00 -0.00000000000E+00 -0.45593999997E+02  0.45594000000E+02  0.51100000000E-03 0.  1.
    9900012    2    1    2    0    0  0.41171910906E+02 -0.16346747821E+02  0.81713521322E+01  0.46142318657E+02  0.10000008172E+02 0.  0.
        -12    1    1    2    0    0 -0.41171910906E+02  0.16346747821E+02 -0.81713521322E+01  0.45045681343E+02  0.00000000000E+00 0.  1.
         11    1    3    3    0    0  0.17681424644E+02 -0.56595993388E+01  0.31260997690E+01  0.18826479813E+02  0.51100000000E-03 0.  1.
        -11    1    3    3    0    0  0.20659299955E+02 -0.10494373014E+02  0.21655813125E+01  0.23272908763E+02  0.51100000000E-03 0. -1.
        -12    1    3    3    0    0  0.28311863060E+01 -0.19277546836E+00  0.28796710507E+01  0.40429300811E+01  0.00000000000E+00 0.  1.
</event>
<event>
 7    1  0.3708346E-009  0.4614232E+02  0.7816164E-02  0.1320468E+00
        -11   -1    0    0    0    0  0.00000000000E+00  0.00000000000E+00  0.45593999997E+02  0.45594000000E+02  0.51100000000E-03 0.  1.
         11   -1    0    0    0    0 -0.00000000000E+00 -0.00000000000E+00 -0.45593999997E+02  0.45594000000E+02  0.51100000000E-03 0. -1.
    9900012    2    1    2    0    0 -0.48443463060E+01 -0.21023277599E+01 -0.44735065805E+02  0.46142316680E+02  0.99999901461E+01 0.  0.
        -12    1    1    2    0    0  0.48443463060E+01  0.21023277599E+01  0.44735065805E+02  0.45045683320E+02  0.00000000000E+00 0.  1.
         11    1    3    3    0    0 -0.42276114014E+01 -0.30478935711E+01 -0.10680955203E+02  0.11884660605E+02  0.51100000000E-03 0. -1.
        -11    1    3    3    0    0  0.48642049215E+00 -0.11741937951E+01 -0.15125320472E+02  0.15178624957E+02  0.51100000000E-03 0.  1.
         12    1    3    3    0    0 -0.11031553967E+01  0.21197596063E+01 -0.18928790130E+02  0.19079031118E+02  0.00000000000E+00 0. -1.
</event>
<event>
 7    1  0.3708346E-009  0.4614232E+02  0.7816164E-02  0.1320468E+00
        -11   -1    0    0    0    0  0.00000000000E+00  0.00000000000E+00  0.45593999997E+02  0.45594000000E+02  0.51100000000E-03 0.  1.
         11   -1    0    0    0    0 -0.00000000000E+00 -0.00000000000E+00 -0.45593999997E+02  0.45594000000E+02  0.51100000000E-03 0. -1.
    9900012    2    1    2    0    0 -0.26646097537E+02  0.26010845397E+02 -0.25348273754E+02  0.46142316805E+02  0.99999912771E+01 0.  0.
        -12    1    1    2    0    0  0.26646097537E+02 -0.26010845397E+02  0.25348273754E+02  0.45045683195E+02  0.00000000000E+00 0.  1.
         11    1    3    3    0    0 -0.59469264498E+01  0.74568614430E+01 -0.61853588652E+01  0.11367910157E+02  0.51100000000E-03 0. -1.
        -11    1    3    3    0    0 -0.19324054021E+02  0.13234566461E+02 -0.16625686201E+02  0.28722573964E+02  0.51100000000E-03 0.  1.
        -12    1    3    3    0    0 -0.13751170666E+01  0.53194174937E+01 -0.25372286876E+01  0.60518326838E+01  0.00000000000E+00 0.  1.
</event>
<event>
 7    1  0.3708346E-009  0.4614232E+02  0.7816164E-02  0.1320468E+00
        -11   -1    0    0    0    0  0.00000000000E+00  0.00000000000E+00  0.45593999997E+02  0.45594000000E+02  0.51100000000E-03 0.  1.
         11   -1    0    0    0    0 -0.00000000000E+00 -0.00000000000E+00 -0.45593999997E+02  0.45594000000E+02  0.51100000000E-03 0. -1.
    9900012    2    1    2    0    0  0.43780823506E+02 -0.50989876283E+01 -0.92926505201E+01  0.46142317239E+02  0.99999952421E+01 0.  0.
        -12    1    1    2    0    0 -0.43780823506E+02  0.50989876283E+01  0.92926505201E+01  0.45045682761E+02  0.00000000000E+00 0.  1.
         11    1    3    3    0    0  0.25959752541E+02 -0.63227733136E+01 -0.82966678813E+01  0.27977149829E+02  0.51100000000E-03 0. -1.
        -11    1    3    3    0    0  0.63337564694E+01  0.12402319112E+01 -0.16421648267E+01  0.66596810574E+01  0.51100000000E-03 0.  1.
         12    1    3    3    0    0  0.11487314495E+02 -0.16446225937E-01  0.64618218791E+00  0.11505486353E+02  0.00000000000E+00 0. -1.
</event>
<event>
 7    1  0.3708346E-009  0.4614232E+02  0.7816164E-02  0.1320468E+00
        -11   -1    0    0    0    0  0.00000000000E+00  0.00000000000E+00  0.45593999997E+02  0.45594000000E+02  0.51100000000E-03 0. -1.
         11   -1    0    0    0    0 -0.00000000000E+00 -0.00000000000E+00 -0.45593999997E+02  0.45594000000E+02  0.51100000000E-03 0.  1.
    9900012    2    1    2    0    0  0.21525669376E+02 -0.37118560765E+02  0.13710268029E+02  0.46142318245E+02  0.10000004411E+02 0.  0.
        -12    1    1    2    0    0 -0.21525669376E+02  0.37118560765E+02 -0.13710268029E+02  0.45045681755E+02  0.00000000000E+00 0.  1.
         11    1    3    3    0    0  0.16690154840E+02 -0.22156362601E+02  0.89656956336E+01  0.29152176089E+02  0.51100000000E-03 0. -1.
        -11    1    3    3    0    0 -0.12756308152E+00 -0.55497882246E+01  0.65165617477E+00  0.55893718528E+01  0.51100000000E-03 0.  1.
        -12    1    3    3    0    0  0.49630776183E+01 -0.94124099396E+01  0.40929162210E+01  0.11400770303E+02  0.00000000000E+00 0.  1.
</event>
<event>
 7    1  0.4822289E-009  0.4614232E+02  0.7816164E-02  0.1320468E+00
        -11   -1    0    0    0    0  0.00000000000E+00  0.00000000000E+00  0.45593999997E+02  0.45594000000E+02  0.51100000000E-03 0.  1.
         11   -1    0    0    0    0 -0.00000000000E+00 -0.00000000000E+00 -0.45593999997E+02  0.45594000000E+02  0.51100000000E-03 0. -1.
    9900012    2    1    2    0    0 -0.41181490135E+02  0.14503280600E+02 -0.11083917320E+02  0.46142317620E+02  0.99999987171E+01 0.  0.
        -12    1    1    2    0    0  0.41181490135E+02 -0.14503280600E+02  0.11083917320E+02  0.45045682380E+02  0.00000000000E+00 0.  1.
         11    1    3    3    0    0 -0.33095719121E+02  0.97700297828E+01 -0.73206950320E+01  0.35275666998E+02  0.51100000000E-03 0. -1.
        -11    1    3    3    0    0 -0.74599519460E+01  0.32007332698E+01 -0.42205844515E+01  0.91492573401E+01  0.51100000000E-03 0.  1.
         12    1    3    3    0    0 -0.62581906724E+00  0.15325175477E+01  0.45736216327E+00  0.17173932827E+01  0.00000000000E+00 0. -1.
</event>
<event>
 7    1  0.3708346E-009  0.4614232E+02  0.7816164E-02  0.1320468E+00
        -11   -1    0    0    0    0  0.00000000000E+00  0.00000000000E+00  0.45593999997E+02  0.45594000000E+02  0.51100000000E-03 0. -1.
         11   -1    0    0    0    0 -0.00000000000E+00 -0.00000000000E+00 -0.45593999997E+02  0.45594000000E+02  0.51100000000E-03 0.  1.
    9900012    2    1    2    0    0  0.25896768391E+02  0.65745188172E+01 -0.36266328339E+02  0.46142317833E+02  0.10000000651E+02 0.  0.
        -12    1    1    2    0    0 -0.25896768391E+02 -0.65745188172E+01  0.36266328339E+02  0.45045682167E+02  0.00000000000E+00 0.  1.
         11    1    3    3    0    0  0.31832406968E+01 -0.83555868276E+00 -0.14731935638E+01  0.36057563955E+01  0.51100000000E-03 0. -1.
        -11    1    3    3    0    0  0.73750426836E+01  0.42317885525E+00 -0.13401299621E+02  0.15302456232E+02  0.51100000000E-03 0.  1.
         12    1    3    3    0    0  0.15338485010E+02  0.69868986447E+01 -0.21391835153E+02  0.27234105205E+02  0.00000000000E+00 0. -1.
</event>
<event>
 7    1  0.3708346E-009  0.4614232E+02  0.7816164E-02  0.1320468E+00
        -11   -1    0    0    0    0  0.00000000000E+00  0.00000000000E+00  0.45593999997E+02  0.45594000000E+02  0.51100000000E-03 0.  1.
         11   -1    0    0    0    0 -0.00000000000E+00 -0.00000000000E+00 -0.45593999997E+02  0.45594000000E+02  0.51100000000E-03 0. -1.
    9900012    2    1    2    0    0  0.31807134169E+01 -0.43767565381E+02 -0.10168423381E+02  0.46142317062E+02  0.99999936286E+01 0.  0.
        -12    1    1    2    0    0 -0.31807134169E+01  0.43767565381E+02  0.10168423381E+02  0.45045682938E+02  0.00000000000E+00 0.  1.
         11    1    3    3    0    0  0.48667810712E+01 -0.20830094428E+02 -0.25324271119E+01  0.21540463765E+02  0.51100000000E-03 0. -1.
        -11    1    3    3    0    0 -0.76606541511E-01 -0.11537017263E+02 -0.17440730692E+01  0.11668351513E+02  0.51100000000E-03 0.  1.
        -12    1    3    3    0    0 -0.16094611129E+01 -0.11400453690E+02 -0.58919232001E+01  0.12933501785E+02  0.00000000000E+00 0.  1.
</event>
<event>
 7    1  0.3708346E-009  0.4614232E+02  0.7816164E-02  0.1320468E+00
        -11   -1    0    0    0    0  0.00000000000E+00  0.00000000000E+00  0.45593999997E+02  0.45594000000E+02  0.51100000000E-03 0.  1.
         11   -1    0    0    0    0 -0.00000000000E+00 -0.00000000000E+00 -0.45593999997E+02  0.45594000000E+02  0.51100000000E-03 0. -1.
    9900012    2    1    2    0    0 -0.25269083851E+02  0.29569862565E+02 -0.22720256461E+02  0.46142318471E+02  0.10000006471E+02 0.  0.
        -12    1    1    2    0    0  0.25269083851E+02 -0.29569862565E+02  0.22720256461E+02  0.45045681529E+02  0.00000000000E+00 0.  1.
         11    1    3    3    0    0 -0.77277262941E+01  0.11689242543E+02 -0.53757714809E+01  0.15008499731E+02  0.51100000000E-03 0. -1.
        -11    1    3    3    0    0 -0.75529043229E+01  0.53267708003E+01 -0.95778122949E+01  0.13309971431E+02  0.51100000000E-03 0.  1.
        -12    1    3    3    0    0 -0.99884532343E+01  0.12553849222E+02 -0.77666726847E+01  0.17823847309E+02  0.00000000000E+00 0.  1.
</event>
<event>
 7    1  0.3708346E-009  0.4614232E+02  0.7816164E-02  0.1320468E+00
        -11   -1    0    0    0    0  0.00000000000E+00  0.00000000000E+00  0.45593999997E+02  0.45594000000E+02  0.51100000000E-03 0.  1.
         11   -1    0    0    0    0 -0.00000000000E+00 -0.00000000000E+00 -0.45593999997E+02  0.45594000000E+02  0.51100000000E-03 0. -1.
    9900012    2    1    2    0    0 -0.89116585646E+01  0.27940051269E+02 -0.34191363399E+02  0.46142318139E+02  0.10000003442E+02 0.  0.
        -12    1    1    2    0    0  0.89116585646E+01 -0.27940051269E+02  0.34191363399E+02  0.45045681861E+02  0.00000000000E+00 0.  1.
         11    1    3    3    0    0 -0.27211487269E+01  0.11689139976E+02 -0.75988566532E+01  0.14205043698E+02  0.51100000000E-03 0. -1.
        -11    1    3    3    0    0 -0.80482194254E+00  0.12451362870E+01 -0.41611132586E+01  0.44173483612E+01  0.51100000000E-03 0.  1.
         12    1    3    3    0    0 -0.53856878952E+01  0.15005775007E+02 -0.22431393487E+02  0.27519926079E+02  0.00000000000E+00 0. -1.
</event>
<event>
 7    1  0.3708346E-009  0.4614232E+02  0.7816164E-02  0.1320468E+00
        -11   -1    0    0    0    0  0.00000000000E+00  0.00000000000E+00  0.45593999997E+02  0.45594000000E+02  0.51100000000E-03 0.  1.
         11   -1    0    0    0    0 -0.00000000000E+00 -0.00000000000E+00 -0.45593999997E+02  0.45594000000E+02  0.51100000000E-03 0. -1.
    9900012    2    1    2    0    0  0.44310975259E+02 -0.46829296649E+01 -0.66121948382E+01  0.46142317862E+02  0.10000000921E+02 0.  0.
        -12    1    1    2    0    0 -0.44310975259E+02  0.46829296649E+01  0.66121948382E+01  0.45045682138E+02  0.00000000000E+00 0.  1.
         11    1    3    3    0    0  0.30722281723E+02 -0.15832952443E+01 -0.28581805163E+01  0.30895543598E+02  0.51100000000E-03 0. -1.
        -11    1    3    3    0    0  0.76841666418E+01 -0.37914209051E+01 -0.79291952193E+00  0.86052316115E+01  0.51100000000E-03 0.  1.
         12    1    3    3    0    0  0.59045268952E+01  0.69178648455E+00 -0.29610947999E+01  0.66415426529E+01  0.00000000000E+00 0. -1.
</event>
<event>
 7    1  0.3708346E-009  0.4614232E+02  0.7816164E-02  0.1320468E+00
        -11   -1    0    0    0    0  0.00000000000E+00  0.00000000000E+00  0.45593999997E+02  0.45594000000E+02  0.51100000000E-03 0.  1.
         11   -1    0    0    0    0 -0.00000000000E+00 -0.00000000000E+00 -0.45593999997E+02  0.45594000000E+02  0.51100000000E-03 0. -1.
    9900012    2    1    2    0    0 -0.43287279517E+02  0.10733958729E+02  0.63330138338E+01  0.46142317608E+02  0.99999986036E+01 0.  0.
        -12    1    1    2    0    0  0.43287279517E+02 -0.10733958729E+02 -0.63330138338E+01  0.45045682392E+02  0.00000000000E+00 0.  1.
         11    1    3    3    0    0 -0.64933043201E+01  0.40338456706E+01  0.64094203043E-01  0.76445418578E+01  0.51100000000E-03 0.  1.
        -11    1    3    3    0    0 -0.10704863571E+01  0.37408772715E+00 -0.98308357915E+00  0.15007785490E+01  0.51100000000E-03 0. -1.
         12    1    3    3    0    0 -0.35723488839E+02  0.63260253316E+01  0.72520032099E+01  0.36996997201E+02  0.00000000000E+00 0. -1.
</event>
<event>
 7    1  0.3708346E-009  0.4614232E+02  0.7816164E-02  0.1320468E+00
        -11   -1    0    0    0    0  0.00000000000E+00  0.00000000000E+00  0.45593999997E+02  0.45594000000E+02  0.51100000000E-03 0.  1.
         11   -1    0    0    0    0 -0.00000000000E+00 -0.00000000000E+00 -0.45593999997E+02  0.45594000000E+02  0.51100000000E-03 0. -1.
    9900012    2    1    2    0    0 -0.29766999281E+02 -0.31022477272E+02  0.13440428842E+02  0.46142317968E+02  0.10000001884E+02 0.  0.
        -12    1    1    2    0    0  0.29766999281E+02  0.31022477272E+02 -0.13440428842E+02  0.45045682032E+02  0.00000000000E+00 0.  1.
         11    1    3    3    0    0 -0.88250944865E+01 -0.53246688378E+01  0.39278370008E+01  0.11030063223E+02  0.51100000000E-03 0. -1.
        -11    1    3    3    0    0 -0.39263220030E+01 -0.95945330554E+01  0.26443446455E+01  0.10698767587E+02  0.51100000000E-03 0.  1.
        -12    1    3    3    0    0 -0.17015582792E+02 -0.16103275379E+02  0.68682471953E+01  0.24413487158E+02  0.00000000000E+00 0.  1.
</event>
<event>
 7    1  0.3708346E-009  0.4614232E+02  0.7816164E-02  0.1320468E+00
        -11   -1    0    0    0    0  0.00000000000E+00  0.00000000000E+00  0.45593999997E+02  0.45594000000E+02  0.51100000000E-03 0. -1.
         11   -1    0    0    0    0 -0.00000000000E+00 -0.00000000000E+00 -0.45593999997E+02  0.45594000000E+02  0.51100000000E-03 0.  1.
    9900012    2    1    2    0    0 -0.18534218857E+02 -0.91527228824E+01  0.40022790814E+02  0.46142318860E+02  0.10000010023E+02 0.  0.
        -12    1    1    2    0    0  0.18534218857E+02  0.91527228824E+01 -0.40022790814E+02  0.45045681140E+02  0.00000000000E+00 0.  1.
         11    1    3    3    0    0 -0.16419468387E+02 -0.93020576248E+01  0.30923233497E+02  0.36226697177E+02  0.51100000000E-03 0. -1.
        -11    1    3    3    0    0 -0.16948252051E+01  0.68103136533E+00  0.17325720218E+01  0.25175468751E+01  0.51100000000E-03 0.  1.
        -12    1    3    3    0    0 -0.41992526426E+00 -0.53169662294E+00  0.73669852950E+01  0.73980748079E+01  0.00000000000E+00 0.  1.
</event>
<event>
 7    1  0.3708346E-009  0.4614232E+02  0.7816164E-02  0.1320468E+00
        -11   -1    0    0    0    0  0.00000000000E+00  0.00000000000E+00  0.45593999997E+02  0.45594000000E+02  0.51100000000E-03 0. -1.
         11   -1    0    0    0    0 -0.00000000000E+00 -0.00000000000E+00 -0.45593999997E+02  0.45594000000E+02  0.51100000000E-03 0.  1.
    9900012    2    1    2    0    0  0.48141869764E+01 -0.18552112455E+02  0.40764646012E+02  0.46142316109E+02  0.99999849325E+01 0.  0.
        -12    1    1    2    0    0 -0.48141869764E+01  0.18552112455E+02 -0.40764646012E+02  0.45045683891E+02  0.00000000000E+00 0.  1.
         11    1    3    3    0    0  0.10002797540E+00 -0.96261627009E+01  0.21663847058E+02  0.23706439706E+02  0.51100000000E-03 0. -1.
        -11    1    3    3    0    0 -0.69182940112E+00 -0.47608660378E+01  0.62690291523E+01  0.79022275419E+01  0.51100000000E-03 0.  1.
        -12    1    3    3    0    0  0.54059884021E+01 -0.41650837161E+01  0.12831769802E+02  0.14533648861E+02  0.00000000000E+00 0.  1.
</event>
<event>
 7    1  0.3708346E-009  0.4614232E+02  0.7816164E-02  0.1320468E+00
        -11   -1    0    0    0    0  0.00000000000E+00  0.00000000000E+00  0.45593999997E+02  0.45594000000E+02  0.51100000000E-03 0.  1.
         11   -1    0    0    0    0 -0.00000000000E+00 -0.00000000000E+00 -0.45593999997E+02  0.45594000000E+02  0.51100000000E-03 0. -1.
    9900012    2    1    2    0    0 -0.24302163806E+02 -0.82689826158E+01 -0.37015432769E+02  0.46142317607E+02  0.99999985962E+01 0.  0.
        -12    1    1    2    0    0  0.24302163806E+02  0.82689826158E+01  0.37015432769E+02  0.45045682393E+02  0.00000000000E+00 0.  1.
         11    1    3    3    0    0 -0.66868820292E+01 -0.36067049528E+01 -0.15068799813E+02  0.16875764870E+02  0.51100000000E-03 0. -1.
        -11    1    3    3    0    0 -0.65697762151E+01  0.47647635905E+00 -0.44605591433E+01  0.79552232759E+01  0.51100000000E-03 0.  1.
         12    1    3    3    0    0 -0.11045505562E+02 -0.51387540220E+01 -0.17486073813E+02  0.21311329461E+02  0.00000000000E+00 0. -1.
</event>
<event>
 7    1  0.3708346E-009  0.4614232E+02  0.7816164E-02  0.1320468E+00
        -11   -1    0    0    0    0  0.00000000000E+00  0.00000000000E+00  0.45593999997E+02  0.45594000000E+02  0.51100000000E-03 0.  1.
         11   -1    0    0    0    0 -0.00000000000E+00 -0.00000000000E+00 -0.45593999997E+02  0.45594000000E+02  0.51100000000E-03 0. -1.
    9900012    2    1    2    0    0  0.26023586072E+02  0.26122405638E+02 -0.25874821963E+02  0.46142317410E+02  0.99999967945E+01 0.  0.
        -12    1    1    2    0    0 -0.26023586072E+02 -0.26122405638E+02  0.25874821963E+02  0.45045682590E+02  0.00000000000E+00 0.  1.
         11    1    3    3    0    0  0.15460526688E+02  0.16374607827E+02 -0.17314283547E+02  0.28406690796E+02  0.51100000000E-03 0. -1.
        -11    1    3    3    0    0 -0.73653723682E+00  0.98063084932E+00 -0.79391424255E+00  0.14609668201E+01  0.51100000000E-03 0.  1.
         12    1    3    3    0    0  0.11299596621E+02  0.87671669618E+01 -0.77666241738E+01  0.16274659794E+02  0.00000000000E+00 0. -1.
</event>
<event>
 7    1  0.3708346E-009  0.4614232E+02  0.7816164E-02  0.1320468E+00
        -11   -1    0    0    0    0  0.00000000000E+00  0.00000000000E+00  0.45593999997E+02  0.45594000000E+02  0.51100000000E-03 0.  1.
         11   -1    0    0    0    0 -0.00000000000E+00 -0.00000000000E+00 -0.45593999997E+02  0.45594000000E+02  0.51100000000E-03 0. -1.
    9900012    2    1    2    0    0 -0.16411362296E+02  0.40528312493E+02 -0.10827593517E+02  0.46142315331E+02  0.99999778392E+01 0.  0.
        -12    1    1    2    0    0  0.16411362296E+02 -0.40528312493E+02  0.10827593517E+02  0.45045684669E+02  0.00000000000E+00 0.  1.
         11    1    3    3    0    0 -0.69586908932E+01  0.25522855301E+02 -0.48494977705E+01  0.26895299786E+02  0.51100000000E-03 0. -1.
        -11    1    3    3    0    0 -0.67360416109E+01  0.98521398208E+01 -0.17808067891E+01  0.12066904686E+02  0.51100000000E-03 0.  1.
        -12    1    3    3    0    0 -0.27166297922E+01  0.51533173711E+01 -0.41972889572E+01  0.71801108588E+01  0.00000000000E+00 0.  1.
</event>
<event>
 7    1  0.3708346E-009  0.4614232E+02  0.7816164E-02  0.1320468E+00
        -11   -1    0    0    0    0  0.00000000000E+00  0.00000000000E+00  0.45593999997E+02  0.45594000000E+02  0.51100000000E-03 0.  1.
         11   -1    0    0    0    0 -0.00000000000E+00 -0.00000000000E+00 -0.45593999997E+02  0.45594000000E+02  0.51100000000E-03 0. -1.
    9900012    2    1    2    0    0  0.36414022070E+02  0.24540932818E+02 -0.10043658612E+02  0.46142318018E+02  0.10000002343E+02 0.  0.
        -12    1    1    2    0    0 -0.36414022070E+02 -0.24540932818E+02  0.10043658612E+02  0.45045681982E+02  0.00000000000E+00 0.  1.
         11    1    3    3    0    0  0.46474981649E+01  0.40040331707E+01 -0.26356236782E+01  0.66766783102E+01  0.51100000000E-03 0. -1.
        -11    1    3    3    0    0  0.29534256124E+02  0.18529043528E+02 -0.42754937063E+01  0.35126593708E+02  0.51100000000E-03 0.  1.
        -12    1    3    3    0    0  0.22322677814E+01  0.20078561194E+01 -0.31325412275E+01  0.43390459995E+01  0.00000000000E+00 0.  1.
</event>
<event>
 7    1  0.3708346E-009  0.4614232E+02  0.7816164E-02  0.1320468E+00
        -11   -1    0    0    0    0  0.00000000000E+00  0.00000000000E+00  0.45593999997E+02  0.45594000000E+02  0.51100000000E-03 0.  1.
         11   -1    0    0    0    0 -0.00000000000E+00 -0.00000000000E+00 -0.45593999997E+02  0.45594000000E+02  0.51100000000E-03 0. -1.
    9900012    2    1    2    0    0 -0.43492621960E+02  0.62797613834E+01 -0.99030272832E+01  0.46142317439E+02  0.99999970667E+01 0.  0.
        -12    1    1    2    0    0  0.43492621960E+02 -0.62797613834E+01  0.99030272832E+01  0.45045682561E+02  0.00000000000E+00 0.  1.
         11    1    3    3    0    0 -0.11384056892E+02  0.36809436824E+01 -0.68346361337E+01  0.13778909574E+02  0.51100000000E-03 0. -1.
        -11    1    3    3    0    0 -0.32725597939E+01  0.12411313889E+00 -0.24707029990E+00  0.32842191873E+01  0.51100000000E-03 0.  1.
         12    1    3    3    0    0 -0.28836005274E+02  0.24747045620E+01 -0.28213208497E+01  0.29079188678E+02  0.00000000000E+00 0. -1.
</event>
<event>
 7    1  0.3708346E-009  0.4614232E+02  0.7816164E-02  0.1320468E+00
        -11   -1    0    0    0    0  0.00000000000E+00  0.00000000000E+00  0.45593999997E+02  0.45594000000E+02  0.51100000000E-03 0.  1.
         11   -1    0    0    0    0 -0.00000000000E+00 -0.00000000000E+00 -0.45593999997E+02  0.45594000000E+02  0.51100000000E-03 0. -1.
    9900012    2    1    2    0    0 -0.26321866724E+02  0.36162086852E+02  0.53456758195E+01  0.46142318261E+02  0.10000004561E+02 0.  0.
        -12    1    1    2    0    0  0.26321866724E+02 -0.36162086852E+02 -0.53456758195E+01  0.45045681739E+02  0.00000000000E+00 0.  1.
         11    1    3    3    0    0 -0.69361260934E+01  0.97101795261E+01  0.31506454283E+01  0.12341960885E+02  0.51100000000E-03 0.  1.
        -11    1    3    3    0    0 -0.15401002346E+02  0.16327434337E+02  0.39180900052E+01  0.22784367774E+02  0.51100000000E-03 0. -1.
        -12    1    3    3    0    0 -0.39847382854E+01  0.10124472988E+02 -0.17230596140E+01  0.11015989603E+02  0.00000000000E+00 0.  1.
</event>
<event>
 7    1  0.3708346E-009  0.4614232E+02  0.7816164E-02  0.1320468E+00
        -11   -1    0    0    0    0  0.00000000000E+00  0.00000000000E+00  0.45593999997E+02  0.45594000000E+02  0.51100000000E-03 0. -1.
         11   -1    0    0    0    0 -0.00000000000E+00 -0.00000000000E+00 -0.45593999997E+02  0.45594000000E+02  0.51100000000E-03 0.  1.
    9900012    2    1    2    0    0 -0.38807927534E+02 -0.59633112436E+01  0.22079338151E+02  0.46142317703E+02  0.99999994677E+01 0.  0.
        -12    1    1    2    0    0  0.38807927534E+02  0.59633112436E+01 -0.22079338151E+02  0.45045682297E+02  0.00000000000E+00 0.  1.
         11    1    3    3    0    0 -0.30467956737E+02 -0.78488752963E+00  0.16372692406E+02  0.34597362516E+02  0.51100000000E-03 0. -1.
        -11    1    3    3    0    0 -0.54927407473E+00 -0.10142971770E+01  0.31460714938E+00  0.11956080846E+01  0.51100000000E-03 0.  1.
        -12    1    3    3    0    0 -0.77906967213E+01 -0.41641265370E+01  0.53920385954E+01  0.10349347102E+02  0.00000000000E+00 0.  1.
</event>
<event>
 7    1  0.3708346E-009  0.4614232E+02  0.7816164E-02  0.1320468E+00
        -11   -1    0    0    0    0  0.00000000000E+00  0.00000000000E+00  0.45593999997E+02  0.45594000000E+02  0.51100000000E-03 0. -1.
         11   -1    0    0    0    0 -0.00000000000E+00 -0.00000000000E+00 -0.45593999997E+02  0.45594000000E+02  0.51100000000E-03 0.  1.
    9900012    2    1    2    0    0 -0.35157740933E+02 -0.15766960701E+02  0.23333445581E+02  0.46142317854E+02  0.10000000848E+02 0.  0.
        -12    1    1    2    0    0  0.35157740933E+02  0.15766960701E+02 -0.23333445581E+02  0.45045682146E+02  0.00000000000E+00 0.  1.
         11    1    3    3    0    0 -0.11521146844E+02 -0.31411406753E+01  0.79367464690E+01  0.14338602935E+02  0.51100000000E-03 0. -1.
        -11    1    3    3    0    0 -0.12150257932E+02 -0.24863470404E+01  0.82658510681E+01  0.14904193489E+02  0.51100000000E-03 0.  1.
        -12    1    3    3    0    0 -0.11486336158E+02 -0.10139472986E+02  0.71308480444E+01  0.16899521431E+02  0.00000000000E+00 0.  1.
</event>
<event>
 7    1  0.3708346E-009  0.4614232E+02  0.7816164E-02  0.1320468E+00
        -11   -1    0    0    0    0  0.00000000000E+00  0.00000000000E+00  0.45593999997E+02  0.45594000000E+02  0.51100000000E-03 0. -1.
         11   -1    0    0    0    0 -0.00000000000E+00 -0.00000000000E+00 -0.45593999997E+02  0.45594000000E+02  0.51100000000E-03 0.  1.
    9900012    2    1    2    0    0  0.83888845061E+01 -0.30088492292E+02  0.32456474548E+02  0.46142317724E+02  0.99999996616E+01 0.  0.
        -12    1    1    2    0    0 -0.83888845061E+01  0.30088492292E+02 -0.32456474548E+02  0.45045682276E+02  0.00000000000E+00 0.  1.
         11    1    3    3    0    0  0.15601833552E+01 -0.16652193099E+01  0.93034160429E+00  0.24642774223E+01  0.51100000000E-03 0. -1.
        -11    1    3    3    0    0  0.99333508412E+00 -0.19758028963E+02  0.20516884965E+02  0.28501034929E+02  0.51100000000E-03 0.  1.
        -12    1    3    3    0    0  0.58353660667E+01 -0.86652440192E+01  0.11009247979E+02  0.15177005373E+02  0.00000000000E+00 0.  1.
</event>
<event>
 7    1  0.3708346E-009  0.4614232E+02  0.7816164E-02  0.1320468E+00
        -11   -1    0    0    0    0  0.00000000000E+00  0.00000000000E+00  0.45593999997E+02  0.45594000000E+02  0.51100000000E-03 0.  1.
         11   -1    0    0    0    0 -0.00000000000E+00 -0.00000000000E+00 -0.45593999997E+02  0.45594000000E+02  0.51100000000E-03 0. -1.
    9900012    2    1    2    0    0  0.13880694267E+01  0.15361072499E+02 -0.42322856728E+02  0.46142317780E+02  0.10000000175E+02 0.  0.
        -12    1    1    2    0    0 -0.13880694267E+01 -0.15361072499E+02  0.42322856728E+02  0.45045682220E+02  0.00000000000E+00 0.  1.
         11    1    3    3    0    0  0.29843584448E+01  0.53938735453E+01 -0.96376053746E+01  0.11440441633E+02  0.51100000000E-03 0. -1.
        -11    1    3    3    0    0  0.20361248184E+00  0.10402544456E+01 -0.12647541327E+02  0.12691882809E+02  0.51100000000E-03 0.  1.
         12    1    3    3    0    0 -0.17999014998E+01  0.89269445081E+01 -0.20037710026E+02  0.22009993338E+02  0.00000000000E+00 0. -1.
</event>
<event>
 7    1  0.3708346E-009  0.4614232E+02  0.7816164E-02  0.1320468E+00
        -11   -1    0    0    0    0  0.00000000000E+00  0.00000000000E+00  0.45593999997E+02  0.45594000000E+02  0.51100000000E-03 0. -1.
         11   -1    0    0    0    0 -0.00000000000E+00 -0.00000000000E+00 -0.45593999997E+02  0.45594000000E+02  0.51100000000E-03 0.  1.
    9900012    2    1    2    0    0 -0.60312090114E+01 -0.42997329402E+02  0.11998653066E+02  0.46142317707E+02  0.99999995099E+01 0.  0.
        -12    1    1    2    0    0  0.60312090114E+01  0.42997329402E+02 -0.11998653066E+02  0.45045682293E+02  0.00000000000E+00 0.  1.
         11    1    3    3    0    0  0.22896837405E+00 -0.73845020711E+01  0.76120146712E-01  0.73884431304E+01  0.51100000000E-03 0. -1.
        -11    1    3    3    0    0  0.15624087102E+00  0.32019464219E+00  0.53334443549E-02  0.35632081811E+00  0.51100000000E-03 0.  1.
         12    1    3    3    0    0 -0.64164182565E+01 -0.35933021973E+02  0.11917199475E+02  0.38397553759E+02  0.00000000000E+00 0. -1.
</event>
<event>
 7    1  0.3708346E-009  0.4614232E+02  0.7816164E-02  0.1320468E+00
        -11   -1    0    0    0    0  0.00000000000E+00  0.00000000000E+00  0.45593999997E+02  0.45594000000E+02  0.51100000000E-03 0.  1.
         11   -1    0    0    0    0 -0.00000000000E+00 -0.00000000000E+00 -0.45593999997E+02  0.45594000000E+02  0.51100000000E-03 0. -1.
    9900012    2    1    2    0    0 -0.27190204630E+00  0.24000818675E+02 -0.38118240929E+02  0.46142317418E+02  0.99999968709E+01 0.  0.
        -12    1    1    2    0    0  0.27190204630E+00 -0.24000818675E+02  0.38118240929E+02  0.45045682582E+02  0.00000000000E+00 0.  1.
         11    1    3    3    0    0 -0.89227083157E+00  0.16362995006E+02 -0.26821208929E+02  0.31431210627E+02  0.51100000000E-03 0. -1.
        -11    1    3    3    0    0  0.10968488532E+01  0.97626765215E+00 -0.60280367867E+01  0.62043052551E+01  0.51100000000E-03 0.  1.
        -12    1    3    3    0    0 -0.47648006791E+00  0.66615560162E+01 -0.52689952129E+01  0.85068015355E+01  0.00000000000E+00 0.  1.
</event>
<event>
 7    1  0.3708346E-009  0.4614232E+02  0.7816164E-02  0.1320468E+00
        -11   -1    0    0    0    0  0.00000000000E+00  0.00000000000E+00  0.45593999997E+02  0.45594000000E+02  0.51100000000E-03 0.  1.
         11   -1    0    0    0    0 -0.00000000000E+00 -0.00000000000E+00 -0.45593999997E+02  0.45594000000E+02  0.51100000000E-03 0. -1.
    9900012    2    1    2    0    0  0.25841124979E+02 -0.33161091482E+02 -0.16176889944E+02  0.46142317668E+02  0.99999991550E+01 0.  0.
        -12    1    1    2    0    0 -0.25841124979E+02  0.33161091482E+02  0.16176889944E+02  0.45045682332E+02  0.00000000000E+00 0.  1.
         11    1    3    3    0    0  0.13710454303E+02 -0.22202994145E+02 -0.10432513423E+02  0.28103146492E+02  0.51100000000E-03 0. -1.
        -11    1    3    3    0    0 -0.96445519691E-01 -0.97120646082E+00  0.45680478610E+00  0.10775966785E+01  0.51100000000E-03 0.  1.
        -12    1    3    3    0    0  0.12227116195E+02 -0.99868908769E+01 -0.62011813070E+01  0.16961574498E+02  0.00000000000E+00 0.  1.
</event>
<event>
 7    1  0.3708346E-009  0.4614232E+02  0.7816164E-02  0.1320468E+00
        -11   -1    0    0    0    0  0.00000000000E+00  0.00000000000E+00  0.45593999997E+02  0.45594000000E+02  0.51100000000E-03 0. -1.
         11   -1    0    0    0    0 -0.00000000000E+00 -0.00000000000E+00 -0.45593999997E+02  0.45594000000E+02  0.51100000000E-03 0.  1.
    9900012    2    1    2    0    0  0.49283661580E+01 -0.36428412666E+02  0.26034502900E+02  0.46142318924E+02  0.10000010608E+02 0.  0.
        -12    1    1    2    0    0 -0.49283661580E+01  0.36428412666E+02 -0.26034502900E+02  0.45045681076E+02  0.00000000000E+00 0.  1.
         11    1    3    3    0    0  0.14452224386E+01 -0.38601084244E+01  0.31714363603E+01  0.52006839737E+01  0.51100000000E-03 0. -1.
        -11    1    3    3    0    0  0.31384262821E+00 -0.31481324993E+01 -0.54705064828E+00  0.32106853009E+01  0.51100000000E-03 0.  1.
        -12    1    3    3    0    0  0.31693010912E+01 -0.29420171742E+02  0.23410117188E+02  0.37730949650E+02  0.00000000000E+00 0.  1.
</event>
<event>
 7    1  0.3708346E-009  0.4614233E+02  0.7816164E-02  0.1320468E+00
        -11   -1    0    0    0    0  0.00000000000E+00  0.00000000000E+00  0.45593999997E+02  0.45594000000E+02  0.51100000000E-03 0. -1.
         11   -1    0    0    0    0 -0.00000000000E+00 -0.00000000000E+00 -0.45593999997E+02  0.45594000000E+02  0.51100000000E-03 0.  1.
    9900012    2    1    2    0    0  0.44720595320E+02 -0.64445676445E+00 -0.53633506244E+01  0.46142328729E+02  0.10000100013E+02 0.  0.
        -12    1    1    2    0    0 -0.44720595320E+02  0.64445676445E+00  0.53633506244E+01  0.45045671271E+02  0.00000000000E+00 0.  1.
         11    1    3    3    0    0  0.33199857574E+02 -0.15102468972E+01 -0.30561609819E+01  0.33374413985E+02  0.51100000000E-03 0. -1.
        -11    1    3    3    0    0 -0.28969278271E+00 -0.58772731889E+00 -0.59334074869E-01  0.65792560620E+00  0.51100000000E-03 0.  1.
        -12    1    3    3    0    0  0.11810430529E+02  0.14535174516E+01 -0.22478555676E+01  0.12109989138E+02  0.00000000000E+00 0.  1.
</event>
<event>
 7    1  0.3708346E-009  0.4614232E+02  0.7816164E-02  0.1320468E+00
        -11   -1    0    0    0    0  0.00000000000E+00  0.00000000000E+00  0.45593999997E+02  0.45594000000E+02  0.51100000000E-03 0.  1.
         11   -1    0    0    0    0 -0.00000000000E+00 -0.00000000000E+00 -0.45593999997E+02  0.45594000000E+02  0.51100000000E-03 0. -1.
    9900012    2    1    2    0    0 -0.42053110982E+02  0.15097191900E+02  0.57205091196E+01  0.46142316842E+02  0.99999916224E+01 0.  0.
        -12    1    1    2    0    0  0.42053110982E+02 -0.15097191900E+02 -0.57205091196E+01  0.45045683158E+02  0.00000000000E+00 0.  1.
         11    1    3    3    0    0 -0.93435738502E+01  0.52999563474E+01 -0.13657562994E+01  0.10828536379E+02  0.51100000000E-03 0. -1.
        -11    1    3    3    0    0 -0.15746025812E+02  0.21293513784E+01  0.19951103908E+01  0.16014116645E+02  0.51100000000E-03 0.  1.
         12    1    3    3    0    0 -0.16963511320E+02  0.76678841739E+01  0.50911550282E+01  0.19299663819E+02  0.00000000000E+00 0. -1.
</event>
<event>
 7    1  0.3708346E-009  0.4614232E+02  0.7816164E-02  0.1320468E+00
        -11   -1    0    0    0    0  0.00000000000E+00  0.00000000000E+00  0.45593999997E+02  0.45594000000E+02  0.51100000000E-03 0. -1.
         11   -1    0    0    0    0 -0.00000000000E+00 -0.00000000000E+00 -0.45593999997E+02  0.45594000000E+02  0.51100000000E-03 0.  1.
    9900012    2    1    2    0    0  0.47160550683E+01  0.41513058587E+02 -0.16838593842E+02  0.46142318173E+02  0.10000003759E+02 0.  0.
        -12    1    1    2    0    0 -0.47160550683E+01 -0.41513058587E+02  0.16838593842E+02  0.45045681827E+02  0.00000000000E+00 0.  1.
         11    1    3    3    0    0  0.61098227162E+01  0.28079563544E+02 -0.11925223052E+02  0.31112742848E+02  0.51100000000E-03 0. -1.
        -11    1    3    3    0    0  0.12025333903E+01  0.46647744523E+01 -0.40671647473E+00  0.48344209371E+01  0.51100000000E-03 0.  1.
         12    1    3    3    0    0 -0.25963010381E+01  0.87687205913E+01 -0.45066543147E+01  0.10195154388E+02  0.00000000000E+00 0. -1.
</event>
<event>
 7    1  0.3708346E-009  0.4614232E+02  0.7816164E-02  0.1320468E+00
        -11   -1    0    0    0    0  0.00000000000E+00  0.00000000000E+00  0.45593999997E+02  0.45594000000E+02  0.51100000000E-03 0.  1.
         11   -1    0    0    0    0 -0.00000000000E+00 -0.00000000000E+00 -0.45593999997E+02  0.45594000000E+02  0.51100000000E-03 0. -1.
    9900012    2    1    2    0    0 -0.62120719778E+01  0.42801611464E+02 -0.12591493974E+02  0.46142317602E+02  0.99999985527E+01 0.  0.
        -12    1    1    2    0    0  0.62120719778E+01 -0.42801611464E+02  0.12591493974E+02  0.45045682398E+02  0.00000000000E+00 0.  1.
         11    1    3    3    0    0 -0.18742714174E+01  0.14485462679E+02 -0.53492634533E+01  0.15554939477E+02  0.51100000000E-03 0. -1.
        -11    1    3    3    0    0 -0.64884879578E+01  0.21815569555E+02 -0.44402085853E+01  0.23189113901E+02  0.51100000000E-03 0.  1.
        -12    1    3    3    0    0  0.21506873974E+01  0.65005792302E+01 -0.28020219354E+01  0.73982642245E+01  0.00000000000E+00 0.  1.
</event>
<event>
 7    1  0.3708346E-009  0.4614232E+02  0.7816164E-02  0.1320468E+00
        -11   -1    0    0    0    0  0.00000000000E+00  0.00000000000E+00  0.45593999997E+02  0.45594000000E+02  0.51100000000E-03 0.  1.
         11   -1    0    0    0    0 -0.00000000000E+00 -0.00000000000E+00 -0.45593999997E+02  0.45594000000E+02  0.51100000000E-03 0. -1.
    9900012    2    1    2    0    0  0.12829948717E+02 -0.13366281059E+02 -0.41059084932E+02  0.46142317534E+02  0.99999979250E+01 0.  0.
        -12    1    1    2    0    0 -0.12829948717E+02  0.13366281059E+02  0.41059084932E+02  0.45045682466E+02  0.00000000000E+00 0.  1.
         11    1    3    3    0    0  0.93904426303E+01 -0.82361962408E+01 -0.19190529012E+02  0.22897417875E+02  0.51100000000E-03 0. -1.
        -11    1    3    3    0    0  0.13342157311E+01 -0.13782795897E+01 -0.15123317778E+02  0.15244491698E+02  0.51100000000E-03 0.  1.
        -12    1    3    3    0    0  0.21052903557E+01 -0.37518052288E+01 -0.67452381418E+01  0.80004079612E+01  0.00000000000E+00 0.  1.
</event>
<event>
 7    1  0.3708346E-009  0.4614232E+02  0.7816164E-02  0.1320468E+00
        -11   -1    0    0    0    0  0.00000000000E+00  0.00000000000E+00  0.45593999997E+02  0.45594000000E+02  0.51100000000E-03 0.  1.
         11   -1    0    0    0    0 -0.00000000000E+00 -0.00000000000E+00 -0.45593999997E+02  0.45594000000E+02  0.51100000000E-03 0. -1.
    9900012    2    1    2    0    0 -0.29052525127E+02 -0.28443261094E+02 -0.19391881144E+02  0.46142319050E+02  0.10000011754E+02 0.  0.
        -12    1    1    2    0    0  0.29052525127E+02  0.28443261094E+02  0.19391881144E+02  0.45045680950E+02  0.00000000000E+00 0.  1.
         11    1    3    3    0    0 -0.20209434370E+02 -0.18270500100E+02 -0.13970786040E+02  0.30617238188E+02  0.51100000000E-03 0. -1.
        -11    1    3    3    0    0 -0.32759291207E+01 -0.25903342279E+01  0.79330364813E+00  0.42509850570E+01  0.51100000000E-03 0.  1.
        -12    1    3    3    0    0 -0.55671616362E+01 -0.75824267664E+01 -0.62143987530E+01  0.11274095805E+02  0.00000000000E+00 0.  1.
</event>
<event>
 7    1  0.3708346E-009  0.4614232E+02  0.7816164E-02  0.1320468E+00
        -11   -1    0    0    0    0  0.00000000000E+00  0.00000000000E+00  0.45593999997E+02  0.45594000000E+02  0.51100000000E-03 0.  1.
         11   -1    0    0    0    0 -0.00000000000E+00 -0.00000000000E+00 -0.45593999997E+02  0.45594000000E+02  0.51100000000E-03 0. -1.
    9900012    2    1    2    0    0  0.28888742980E+02 -0.96419996376E+01 -0.33190146488E+02  0.46142318167E+02  0.10000003698E+02 0.  0.
        -12    1    1    2    0    0 -0.28888742980E+02  0.96419996376E+01  0.33190146488E+02  0.45045681833E+02  0.00000000000E+00 0.  1.
         11    1    3    3    0    0  0.14736431433E+02 -0.51619924143E+01 -0.22414167494E+02  0.27316725312E+02  0.51100000000E-03 0. -1.
        -11    1    3    3    0    0  0.63719566153E+01 -0.84245075963E+00 -0.68140831610E+01  0.93671385159E+01  0.51100000000E-03 0.  1.
         12    1    3    3    0    0  0.77803549313E+01 -0.36375564637E+01 -0.39618958324E+01  0.94584543384E+01  0.00000000000E+00 0. -1.
</event>
<event>
 7    1  0.3708346E-009  0.4614232E+02  0.7816164E-02  0.1320468E+00
        -11   -1    0    0    0    0  0.00000000000E+00  0.00000000000E+00  0.45593999997E+02  0.45594000000E+02  0.51100000000E-03 0. -1.
         11   -1    0    0    0    0 -0.00000000000E+00 -0.00000000000E+00 -0.45593999997E+02  0.45594000000E+02  0.51100000000E-03 0.  1.
    9900012    2    1    2    0    0  0.73752751409E+01 -0.44397982060E+02 -0.18809753382E+01  0.46142316937E+02  0.99999924808E+01 0.  0.
        -12    1    1    2    0    0 -0.73752751409E+01  0.44397982060E+02  0.18809753382E+01  0.45045683063E+02  0.00000000000E+00 0.  1.
         11    1    3    3    0    0  0.41228761938E+01 -0.22263551295E+02 -0.24858064537E+01  0.22778126753E+02  0.51100000000E-03 0. -1.
        -11    1    3    3    0    0  0.43008355571E+01 -0.83576729948E+01  0.15015089836E+01  0.95185300265E+01  0.51100000000E-03 0.  1.
        -12    1    3    3    0    0 -0.10484366101E+01 -0.13776757770E+02 -0.89667786811E+00  0.13845660157E+02  0.00000000000E+00 0.  1.
</event>
<event>
 7    1  0.3708346E-009  0.4614232E+02  0.7816164E-02  0.1320468E+00
        -11   -1    0    0    0    0  0.00000000000E+00  0.00000000000E+00  0.45593999997E+02  0.45594000000E+02  0.51100000000E-03 0. -1.
         11   -1    0    0    0    0 -0.00000000000E+00 -0.00000000000E+00 -0.45593999997E+02  0.45594000000E+02  0.51100000000E-03 0.  1.
    9900012    2    1    2    0    0  0.37822960304E+02 -0.12662664889E+02  0.20933083585E+02  0.46142318779E+02  0.10000009284E+02 0.  0.
        -12    1    1    2    0    0 -0.37822960304E+02  0.12662664889E+02 -0.20933083585E+02  0.45045681221E+02  0.00000000000E+00 0.  1.
         11    1    3    3    0    0  0.25699639839E+02 -0.83090691687E+01  0.14545631810E+02  0.30677149856E+02  0.51100000000E-03 0. -1.
        -11    1    3    3    0    0  0.97149734774E+01 -0.19767676759E+01  0.23341038031E+01  0.10185104856E+02  0.51100000000E-03 0.  1.
        -12    1    3    3    0    0  0.24083469882E+01 -0.23768280447E+01  0.40533479715E+01  0.52800640666E+01  0.00000000000E+00 0.  1.
</event>
<event>
 7    1  0.3708346E-009  0.4614232E+02  0.7816164E-02  0.1320468E+00
        -11   -1    0    0    0    0  0.00000000000E+00  0.00000000000E+00  0.45593999997E+02  0.45594000000E+02  0.51100000000E-03 0. -1.
         11   -1    0    0    0    0 -0.00000000000E+00 -0.00000000000E+00 -0.45593999997E+02  0.45594000000E+02  0.51100000000E-03 0.  1.
    9900012    2    1    2    0    0  0.15665713724E+01  0.35170466105E+01  0.44880839471E+02  0.46142317473E+02  0.99999973736E+01 0.  0.
        -12    1    1    2    0    0 -0.15665713724E+01 -0.35170466105E+01 -0.44880839471E+02  0.45045682527E+02  0.00000000000E+00 0.  1.
         11    1    3    3    0    0  0.30197488892E+00 -0.20297549823E+01  0.87491536904E+01  0.89865891572E+01  0.51100000000E-03 0. -1.
        -11    1    3    3    0    0  0.26354861787E+01 -0.30368402250E+00  0.11356727019E+02  0.11662472303E+02  0.51100000000E-03 0.  1.
         12    1    3    3    0    0 -0.13708896953E+01  0.58504856153E+01  0.24774958761E+02  0.25493256012E+02  0.00000000000E+00 0. -1.
</event>
<event>
 7    1  0.3708346E-009  0.4614232E+02  0.7816164E-02  0.1320468E+00
        -11   -1    0    0    0    0  0.00000000000E+00  0.00000000000E+00  0.45593999997E+02  0.45594000000E+02  0.51100000000E-03 0.  1.
         11   -1    0    0    0    0 -0.00000000000E+00 -0.00000000000E+00 -0.45593999997E+02  0.45594000000E+02  0.51100000000E-03 0. -1.
    9900012    2    1    2    0    0  0.39673297374E+01  0.98441088111E+01 -0.43777474124E+02  0.46142318474E+02  0.10000006497E+02 0.  0.
        -12    1    1    2    0    0 -0.39673297374E+01 -0.98441088111E+01  0.43777474124E+02  0.45045681526E+02  0.00000000000E+00 0.  1.
         11    1    3    3    0    0 -0.23063766773E+00  0.31155047647E+01 -0.87815182838E+01  0.93206559481E+01  0.51100000000E-03 0. -1.
        -11    1    3    3    0    0  0.41065509058E+01  0.17837453750E+01 -0.64572205294E+01  0.78575571988E+01  0.51100000000E-03 0.  1.
        -12    1    3    3    0    0  0.91416499259E-01  0.49448586715E+01 -0.28538735310E+02  0.28964105327E+02  0.00000000000E+00 0.  1.
</event>
<event>
 7    1  0.3708346E-009  0.4614232E+02  0.7816164E-02  0.1320468E+00
        -11   -1    0    0    0    0  0.00000000000E+00  0.00000000000E+00  0.45593999997E+02  0.45594000000E+02  0.51100000000E-03 0.  1.
         11   -1    0    0    0    0 -0.00000000000E+00 -0.00000000000E+00 -0.45593999997E+02  0.45594000000E+02  0.51100000000E-03 0. -1.
    9900012    2    1    2    0    0  0.34751437250E+02 -0.32209850748E+01 -0.28479402353E+02  0.46142317697E+02  0.99999994128E+01 0.  0.
        -12    1    1    2    0    0 -0.34751437250E+02  0.32209850748E+01  0.28479402353E+02  0.45045682303E+02  0.00000000000E+00 0.  1.
         11    1    3    3    0    0  0.10521050433E+02 -0.26656800772E+01 -0.10759864528E+02  0.15283096460E+02  0.51100000000E-03 0. -1.
        -11    1    3    3    0    0 -0.39060112544E+00 -0.10683803665E+00  0.15194935575E+00  0.43251875463E+00  0.51100000000E-03 0.  1.
        -12    1    3    3    0    0  0.24620987942E+02 -0.44846696093E+00 -0.17871487181E+02  0.30426702482E+02  0.00000000000E+00 0.  1.
</event>
<event>
 7    1  0.3708346E-009  0.4614232E+02  0.7816164E-02  0.1320468E+00
        -11   -1    0    0    0    0  0.00000000000E+00  0.00000000000E+00  0.45593999997E+02  0.45594000000E+02  0.51100000000E-03 0.  1.
         11   -1    0    0    0    0 -0.00000000000E+00 -0.00000000000E+00 -0.45593999997E+02  0.45594000000E+02  0.51100000000E-03 0. -1.
    9900012    2    1    2    0    0 -0.93381234244E+01 -0.36350138138E+01 -0.43916961674E+02  0.46142318773E+02  0.10000009224E+02 0.  0.
        -12    1    1    2    0    0  0.93381234244E+01  0.36350138138E+01  0.43916961674E+02  0.45045681227E+02  0.00000000000E+00 0.  1.
         11    1    3    3    0    0 -0.28500023223E+01 -0.35913201246E+00 -0.13638668750E+02  0.13937889890E+02  0.51100000000E-03 0. -1.
        -11    1    3    3    0    0 -0.27153607418E+01  0.27457370592E+01 -0.11016923228E+02  0.11674110400E+02  0.51100000000E-03 0.  1.
        -12    1    3    3    0    0 -0.37727603603E+01 -0.60216188605E+01 -0.19261369696E+02  0.20530318483E+02  0.00000000000E+00 0.  1.
</event>
<event>
 7    1  0.3708346E-009  0.4614232E+02  0.7816164E-02  0.1320468E+00
        -11   -1    0    0    0    0  0.00000000000E+00  0.00000000000E+00  0.45593999997E+02  0.45594000000E+02  0.51100000000E-03 0. -1.
         11   -1    0    0    0    0 -0.00000000000E+00 -0.00000000000E+00 -0.45593999997E+02  0.45594000000E+02  0.51100000000E-03 0.  1.
    9900012    2    1    2    0    0 -0.30760309542E+02 -0.16081560950E+02  0.28710630697E+02  0.46142316958E+02  0.99999926748E+01 0.  0.
        -12    1    1    2    0    0  0.30760309542E+02  0.16081560950E+02 -0.28710630697E+02  0.45045683042E+02  0.00000000000E+00 0.  1.
         11    1    3    3    0    0 -0.71101237915E+01 -0.41653581571E-01  0.38100275281E+01  0.80667158978E+01  0.51100000000E-03 0. -1.
        -11    1    3    3    0    0 -0.16236171468E+01 -0.23698529560E+01  0.22159654786E+01  0.36280626974E+01  0.51100000000E-03 0.  1.
         12    1    3    3    0    0 -0.22026568604E+02 -0.13670054412E+02  0.22684637691E+02  0.34447538363E+02  0.00000000000E+00 0. -1.
</event>
<event>
 7    1  0.3708346E-009  0.4614232E+02  0.7816164E-02  0.1320468E+00
        -11   -1    0    0    0    0  0.00000000000E+00  0.00000000000E+00  0.45593999997E+02  0.45594000000E+02  0.51100000000E-03 0.  1.
         11   -1    0    0    0    0 -0.00000000000E+00 -0.00000000000E+00 -0.45593999997E+02  0.45594000000E+02  0.51100000000E-03 0. -1.
    9900012    2    1    2    0    0  0.40724028917E+02  0.78340492539E+01 -0.17586773658E+02  0.46142318002E+02  0.10000002197E+02 0.  0.
        -12    1    1    2    0    0 -0.40724028917E+02 -0.78340492539E+01  0.17586773658E+02  0.45045681998E+02  0.00000000000E+00 0.  1.
         11    1    3    3    0    0  0.38406977839E+02  0.69020742987E+01 -0.16416645376E+02  0.42334865324E+02  0.51100000000E-03 0. -1.
        -11    1    3    3    0    0  0.26589857318E+01  0.13930558849E+01 -0.11996944307E+01  0.32326578552E+01  0.51100000000E-03 0.  1.
         12    1    3    3    0    0 -0.34193465367E+00 -0.46108092979E+00  0.29566148382E-01  0.57479482281E+00  0.00000000000E+00 0. -1.
</event>
<event>
 7    1  0.3708346E-009  0.4614232E+02  0.7816164E-02  0.1320468E+00
        -11   -1    0    0    0    0  0.00000000000E+00  0.00000000000E+00  0.45593999997E+02  0.45594000000E+02  0.51100000000E-03 0.  1.
         11   -1    0    0    0    0 -0.00000000000E+00 -0.00000000000E+00 -0.45593999997E+02  0.45594000000E+02  0.51100000000E-03 0. -1.
    9900012    2    1    2    0    0 -0.99978244941E+01 -0.21579979699E+02 -0.38255214522E+02  0.46142318114E+02  0.10000003220E+02 0.  0.
        -12    1    1    2    0    0  0.99978244941E+01  0.21579979699E+02  0.38255214522E+02  0.45045681886E+02  0.00000000000E+00 0.  1.
         11    1    3    3    0    0 -0.97879358816E+01 -0.16298056793E+02 -0.26056106989E+02  0.32254473422E+02  0.51100000000E-03 0. -1.
        -11    1    3    3    0    0  0.97188285578E+00 -0.35195500726E+01 -0.39881400593E+01  0.54071295891E+01  0.51100000000E-03 0.  1.
         12    1    3    3    0    0 -0.11817714683E+01 -0.17623728337E+01 -0.82109674738E+01  0.84807151033E+01  0.00000000000E+00 0. -1.
</event>
<event>
 7    1  0.3708346E-009  0.4614232E+02  0.7816164E-02  0.1320468E+00
        -11   -1    0    0    0    0  0.00000000000E+00  0.00000000000E+00  0.45593999997E+02  0.45594000000E+02  0.51100000000E-03 0.  1.
         11   -1    0    0    0    0 -0.00000000000E+00 -0.00000000000E+00 -0.45593999997E+02  0.45594000000E+02  0.51100000000E-03 0. -1.
    9900012    2    1    2    0    0 -0.28944788375E+02 -0.30392117512E+02 -0.16359455754E+02  0.46142319036E+02  0.10000011626E+02 0.  0.
        -12    1    1    2    0    0  0.28944788375E+02  0.30392117512E+02  0.16359455754E+02  0.45045680964E+02  0.00000000000E+00 0.  1.
         11    1    3    3    0    0 -0.78410559765E+01 -0.73802969658E+01 -0.44680067205E+01  0.11658217121E+02  0.51100000000E-03 0. -1.
        -11    1    3    3    0    0 -0.16291899827E+02 -0.19464484569E+02 -0.59821262561E+01  0.26078305051E+02  0.51100000000E-03 0.  1.
        -12    1    3    3    0    0 -0.48118325712E+01 -0.35473359770E+01 -0.59093227773E+01  0.84057968636E+01  0.00000000000E+00 0.  1.
</event>
<event>
 7    1  0.3708346E-009  0.4614232E+02  0.7816164E-02  0.1320468E+00
        -11   -1    0    0    0    0  0.00000000000E+00  0.00000000000E+00  0.45593999997E+02  0.45594000000E+02  0.51100000000E-03 0. -1.
         11   -1    0    0    0    0 -0.00000000000E+00 -0.00000000000E+00 -0.45593999997E+02  0.45594000000E+02  0.51100000000E-03 0.  1.
    9900012    2    1    2    0    0  0.29464241760E+02  0.23650975322E+02  0.24527603045E+02  0.46142317773E+02  0.10000000108E+02 0.  0.
        -12    1    1    2    0    0 -0.29464241760E+02 -0.23650975322E+02 -0.24527603045E+02  0.45045682227E+02  0.00000000000E+00 0.  1.
         11    1    3    3    0    0  0.15772752717E+02  0.77384594471E+01  0.14032618291E+02  0.22485058578E+02  0.51100000000E-03 0. -1.
        -11    1    3    3    0    0  0.37530653604E+01  0.58247801200E+01  0.46069423107E+01  0.83209062464E+01  0.51100000000E-03 0.  1.
         12    1    3    3    0    0  0.99384236832E+01  0.10087735754E+02  0.58880424425E+01  0.15336352949E+02  0.00000000000E+00 0. -1.
</event>
<event>
 7    1  0.3708346E-009  0.4614232E+02  0.7816164E-02  0.1320468E+00
        -11   -1    0    0    0    0  0.00000000000E+00  0.00000000000E+00  0.45593999997E+02  0.45594000000E+02  0.51100000000E-03 0.  1.
         11   -1    0    0    0    0 -0.00000000000E+00 -0.00000000000E+00 -0.45593999997E+02  0.45594000000E+02  0.51100000000E-03 0. -1.
    9900012    2    1    2    0    0  0.30363367485E+02 -0.20437837737E+02 -0.26257833655E+02  0.46142321799E+02  0.10000036817E+02 0.  0.
        -12    1    1    2    0    0 -0.30363367485E+02  0.20437837737E+02  0.26257833655E+02  0.45045678201E+02  0.00000000000E+00 0.  1.
         11    1    3    3    0    0  0.19209852297E+02 -0.95312562631E+01 -0.15851759742E+02  0.26667237547E+02  0.51100000000E-03 0. -1.
        -11    1    3    3    0    0  0.20851736716E+01 -0.97318083905E+00  0.25087413248E+00  0.23147285538E+01  0.51100000000E-03 0.  1.
         12    1    3    3    0    0  0.90683415159E+01 -0.99334006349E+01 -0.10656948045E+02  0.17160355697E+02  0.00000000000E+00 0. -1.
</event>
<event>
 7    1  0.3708346E-009  0.4614232E+02  0.7816164E-02  0.1320468E+00
        -11   -1    0    0    0    0  0.00000000000E+00  0.00000000000E+00  0.45593999997E+02  0.45594000000E+02  0.51100000000E-03 0.  1.
         11   -1    0    0    0    0 -0.00000000000E+00 -0.00000000000E+00 -0.45593999997E+02  0.45594000000E+02  0.51100000000E-03 0. -1.
    9900012    2    1    2    0    0 -0.30398318065E+02 -0.29964720285E+02 -0.14393445071E+02  0.46142318032E+02  0.10000002472E+02 0.  0.
        -12    1    1    2    0    0  0.30398318065E+02  0.29964720285E+02  0.14393445071E+02  0.45045681968E+02  0.00000000000E+00 0.  1.
         11    1    3    3    0    0 -0.14513195745E+01 -0.36680751226E+01 -0.51794645959E+00  0.39786143830E+01  0.51100000000E-03 0. -1.
        -11    1    3    3    0    0 -0.21783433184E+02 -0.22219143576E+02 -0.82724643844E+01  0.32196924850E+02  0.51100000000E-03 0.  1.
        -12    1    3    3    0    0 -0.71635653070E+01 -0.40775015859E+01 -0.56030342269E+01  0.99667787995E+01  0.00000000000E+00 0.  1.
</event>
<event>
 7    1  0.3708346E-009  0.4614232E+02  0.7816164E-02  0.1320468E+00
        -11   -1    0    0    0    0  0.00000000000E+00  0.00000000000E+00  0.45593999997E+02  0.45594000000E+02  0.51100000000E-03 0.  1.
         11   -1    0    0    0    0 -0.00000000000E+00 -0.00000000000E+00 -0.45593999997E+02  0.45594000000E+02  0.51100000000E-03 0. -1.
    9900012    2    1    2    0    0 -0.34939027685E+02 -0.53621127042E+01 -0.27921777524E+02  0.46142316873E+02  0.99999919035E+01 0.  0.
        -12    1    1    2    0    0  0.34939027685E+02  0.53621127042E+01  0.27921777524E+02  0.45045683127E+02  0.00000000000E+00 0.  1.
         11    1    3    3    0    0 -0.30763273190E+02 -0.57331765655E+01 -0.25768861761E+02  0.40537421324E+02  0.51100000000E-03 0. -1.
        -11    1    3    3    0    0 -0.42724918819E+01  0.20358108937E+00 -0.94356576063E+00  0.43801767940E+01  0.51100000000E-03 0.  1.
         12    1    3    3    0    0  0.96737386275E-01  0.16748277188E+00 -0.12093500027E+01  0.12247187554E+01  0.00000000000E+00 0. -1.
</event>
<event>
 7    1  0.3708346E-009  0.4614232E+02  0.7816164E-02  0.1320468E+00
        -11   -1    0    0    0    0  0.00000000000E+00  0.00000000000E+00  0.45593999997E+02  0.45594000000E+02  0.51100000000E-03 0. -1.
         11   -1    0    0    0    0 -0.00000000000E+00 -0.00000000000E+00 -0.45593999997E+02  0.45594000000E+02  0.51100000000E-03 0.  1.
    9900012    2    1    2    0    0  0.21168274300E+02  0.23910190700E+02  0.31769802796E+02  0.46142318455E+02  0.10000006330E+02 0.  0.
        -12    1    1    2    0    0 -0.21168274300E+02 -0.23910190700E+02 -0.31769802796E+02  0.45045681545E+02  0.00000000000E+00 0.  1.
         11    1    3    3    0    0  0.52919549856E+01  0.48458387680E+01  0.11060241787E+02  0.13183925424E+02  0.51100000000E-03 0. -1.
        -11    1    3    3    0    0  0.78689749496E+00  0.43115873175E+01  0.22776929380E+01  0.49393196135E+01  0.51100000000E-03 0.  1.
         12    1    3    3    0    0  0.15089421820E+02  0.14752764614E+02  0.18431868070E+02  0.28019073418E+02  0.00000000000E+00 0. -1.
</event>
<event>
 7    1  0.3708346E-009  0.4614231E+02  0.7816164E-02  0.1320468E+00
        -11   -1    0    0    0    0  0.00000000000E+00  0.00000000000E+00  0.45593999997E+02  0.45594000000E+02  0.51100000000E-03 0.  1.
         11   -1    0    0    0    0 -0.00000000000E+00 -0.00000000000E+00 -0.45593999997E+02  0.45594000000E+02  0.51100000000E-03 0. -1.
    9900012    2    1    2    0    0  0.41701712997E+02 -0.46208734194E+01  0.16392942524E+02  0.46142313163E+02  0.99999580737E+01 0.  0.
        -12    1    1    2    0    0 -0.41701712997E+02  0.46208734194E+01 -0.16392942524E+02  0.45045686837E+02  0.00000000000E+00 0.  1.
         11    1    3    3    0    0  0.13880612240E+02  0.12347627721E+01  0.62806933574E+01  0.15285389905E+02  0.51100000000E-03 0. -1.
        -11    1    3    3    0    0  0.14187530603E+01  0.30505753395E+00 -0.77006160957E+00  0.16428376331E+01  0.51100000000E-03 0.  1.
         12    1    3    3    0    0  0.26402347697E+02 -0.61606937254E+01  0.10882310776E+02  0.29214085625E+02  0.00000000000E+00 0. -1.
</event>
<event>
 7    1  0.3708346E-009  0.4614233E+02  0.7816164E-02  0.1320468E+00
        -11   -1    0    0    0    0  0.00000000000E+00  0.00000000000E+00  0.45593999997E+02  0.45594000000E+02  0.51100000000E-03 0.  1.
         11   -1    0    0    0    0 -0.00000000000E+00 -0.00000000000E+00 -0.45593999997E+02  0.45594000000E+02  0.51100000000E-03 0. -1.
    9900012    2    1    2    0    0 -0.26006449855E+02 -0.12060338759E+02 -0.34746585404E+02  0.46142329817E+02  0.10000109932E+02 0.  0.
        -12    1    1    2    0    0  0.26006449855E+02  0.12060338759E+02  0.34746585404E+02  0.45045670183E+02  0.00000000000E+00 0.  1.
         11    1    3    3    0    0 -0.61053600320E+01 -0.34348267967E+01 -0.11500607651E+02  0.13466158801E+02  0.51100000000E-03 0. -1.
        -11    1    3    3    0    0 -0.75676664823E+01 -0.26337124765E+01 -0.14023714010E+02  0.16151488238E+02  0.51100000000E-03 0.  1.
        -12    1    3    3    0    0 -0.12333423341E+02 -0.59917994857E+01 -0.92222637425E+01  0.16524682778E+02  0.00000000000E+00 0.  1.
</event>
<event>
 7    1  0.3708346E-009  0.4614232E+02  0.7816164E-02  0.1320468E+00
        -11   -1    0    0    0    0  0.00000000000E+00  0.00000000000E+00  0.45593999997E+02  0.45594000000E+02  0.51100000000E-03 0. -1.
         11   -1    0    0    0    0 -0.00000000000E+00 -0.00000000000E+00 -0.45593999997E+02  0.45594000000E+02  0.51100000000E-03 0.  1.
    9900012    2    1    2    0    0  0.33173964217E+02  0.29417376227E+01  0.30330640185E+02  0.46142318119E+02  0.10000003263E+02 0.  0.
        -12    1    1    2    0    0 -0.33173964217E+02 -0.29417376227E+01 -0.30330640185E+02  0.45045681881E+02  0.00000000000E+00 0.  1.
         11    1    3    3    0    0  0.79430654476E+01  0.10560011134E+01  0.78565529525E+01  0.11221980735E+02  0.51100000000E-03 0. -1.
        -11    1    3    3    0    0  0.15059661405E+02  0.45282341994E+01  0.10117301216E+02  0.18699146792E+02  0.51100000000E-03 0.  1.
        -12    1    3    3    0    0  0.10171237364E+02 -0.26424976902E+01  0.12356786016E+02  0.16221190592E+02  0.00000000000E+00 0.  1.
</event>
<event>
 7    1  0.3708346E-009  0.4614232E+02  0.7816164E-02  0.1320468E+00
        -11   -1    0    0    0    0  0.00000000000E+00  0.00000000000E+00  0.45593999997E+02  0.45594000000E+02  0.51100000000E-03 0. -1.
         11   -1    0    0    0    0 -0.00000000000E+00 -0.00000000000E+00 -0.45593999997E+02  0.45594000000E+02  0.51100000000E-03 0.  1.
    9900012    2    1    2    0    0 -0.44341932428E+02 -0.79193262676E+01 -0.43677353675E+00  0.46142317953E+02  0.10000001752E+02 0.  0.
        -12    1    1    2    0    0  0.44341932428E+02  0.79193262676E+01  0.43677353675E+00  0.45045682047E+02  0.00000000000E+00 0.  1.
         11    1    3    3    0    0 -0.10075649640E+02 -0.33901306627E+00 -0.15966514679E+01  0.10207004541E+02  0.51100000000E-03 0. -1.
        -11    1    3    3    0    0 -0.21771757960E+02 -0.12102925330E+01 -0.51198523663E+00  0.21811381933E+02  0.51100000000E-03 0.  1.
        -12    1    3    3    0    0 -0.12494524828E+02 -0.63700206683E+01  0.16718631678E+01  0.14123931480E+02  0.00000000000E+00 0.  1.
</event>
<event>
 7    1  0.3708346E-009  0.4614232E+02  0.7816164E-02  0.1320468E+00
        -11   -1    0    0    0    0  0.00000000000E+00  0.00000000000E+00  0.45593999997E+02  0.45594000000E+02  0.51100000000E-03 0.  1.
         11   -1    0    0    0    0 -0.00000000000E+00 -0.00000000000E+00 -0.45593999997E+02  0.45594000000E+02  0.51100000000E-03 0. -1.
    9900012    2    1    2    0    0  0.28897270977E+01  0.23477254816E+02 -0.38335119611E+02  0.46142318609E+02  0.10000007732E+02 0.  0.
        -12    1    1    2    0    0 -0.28897270977E+01 -0.23477254816E+02  0.38335119611E+02  0.45045681391E+02  0.00000000000E+00 0.  1.
         11    1    3    3    0    0 -0.29952057891E+01  0.61961079694E+01 -0.94539838156E+01  0.11693623131E+02  0.51100000000E-03 0. -1.
        -11    1    3    3    0    0  0.46405549229E+01  0.13041840457E+02 -0.18019265407E+02  0.22722638020E+02  0.51100000000E-03 0.  1.
        -12    1    3    3    0    0  0.12443779639E+01  0.42393063890E+01 -0.10861870388E+02  0.11726057458E+02  0.00000000000E+00 0.  1.
</event>
<event>
 7    1  0.3708346E-009  0.4614232E+02  0.7816164E-02  0.1320468E+00
        -11   -1    0    0    0    0  0.00000000000E+00  0.00000000000E+00  0.45593999997E+02  0.45594000000E+02  0.51100000000E-03 0.  1.
         11   -1    0    0    0    0 -0.00000000000E+00 -0.00000000000E+00 -0.45593999997E+02  0.45594000000E+02  0.51100000000E-03 0. -1.
    9900012    2    1    2    0    0 -0.17371509582E+02 -0.77778072687E+01 -0.40827072937E+02  0.46142317458E+02  0.99999972363E+01 0.  0.
        -12    1    1    2    0    0  0.17371509582E+02  0.77778072687E+01  0.40827072937E+02  0.45045682542E+02  0.00000000000E+00 0.  1.
         11    1    3    3    0    0 -0.10163303995E+02 -0.57353662846E+01 -0.22404230383E+02  0.25261368012E+02  0.51100000000E-03 0. -1.
        -11    1    3    3    0    0 -0.22004443503E+01 -0.38664529423E+01 -0.73340789533E+01  0.85778859894E+01  0.51100000000E-03 0.  1.
        -12    1    3    3    0    0 -0.50077612367E+01  0.18240119582E+01 -0.11088763601E+02  0.12303063457E+02  0.00000000000E+00 0.  1.
</event>
<event>
 7    1  0.3708346E-009  0.4614232E+02  0.7816164E-02  0.1320468E+00
        -11   -1    0    0    0    0  0.00000000000E+00  0.00000000000E+00  0.45593999997E+02  0.45594000000E+02  0.51100000000E-03 0. -1.
         11   -1    0    0    0    0 -0.00000000000E+00 -0.00000000000E+00 -0.45593999997E+02  0.45594000000E+02  0.51100000000E-03 0.  1.
    9900012    2    1    2    0    0  0.28311050298E+01 -0.16373584938E+02  0.41868891140E+02  0.46142317802E+02  0.10000000376E+02 0.  0.
        -12    1    1    2    0    0 -0.28311050298E+01  0.16373584938E+02 -0.41868891140E+02  0.45045682198E+02  0.00000000000E+00 0.  1.
         11    1    3    3    0    0  0.30440965097E+01 -0.16740804490E+02  0.37545455573E+02  0.41221138909E+02  0.51100000000E-03 0. -1.
        -11    1    3    3    0    0 -0.80786002809E+00 -0.15810678749E+00  0.39439600029E+00  0.91278915824E+00  0.51100000000E-03 0.  1.
         12    1    3    3    0    0  0.59486854818E+00  0.52532633968E+00  0.39290395667E+01  0.40083897352E+01  0.00000000000E+00 0. -1.
</event>
<event>
 7    1  0.3708346E-009  0.4614232E+02  0.7816164E-02  0.1320468E+00
        -11   -1    0    0    0    0  0.00000000000E+00  0.00000000000E+00  0.45593999997E+02  0.45594000000E+02  0.51100000000E-03 0.  1.
         11   -1    0    0    0    0 -0.00000000000E+00 -0.00000000000E+00 -0.45593999997E+02  0.45594000000E+02  0.51100000000E-03 0. -1.
    9900012    2    1    2    0    0 -0.23742975770E+02  0.37762789595E+02 -0.62734619669E+01  0.46142317616E+02  0.99999986738E+01 0.  0.
        -12    1    1    2    0    0  0.23742975770E+02 -0.37762789595E+02  0.62734619669E+01  0.45045682384E+02  0.00000000000E+00 0.  1.
         11    1    3    3    0    0 -0.33919321806E+01  0.63762600532E+01 -0.37284396390E+01  0.81279246174E+01  0.51100000000E-03 0. -1.
        -11    1    3    3    0    0 -0.16664167688E+01  0.23189728337E+01  0.14965077359E+01  0.32239906196E+01  0.51100000000E-03 0.  1.
        -12    1    3    3    0    0 -0.18684626821E+02  0.29067556708E+02 -0.40415300638E+01  0.34790402379E+02  0.00000000000E+00 0.  1.
</event>
<event>
 7    1  0.3708346E-009  0.4614232E+02  0.7816164E-02  0.1320468E+00
        -11   -1    0    0    0    0  0.00000000000E+00  0.00000000000E+00  0.45593999997E+02  0.45594000000E+02  0.51100000000E-03 0. -1.
         11   -1    0    0    0    0 -0.00000000000E+00 -0.00000000000E+00 -0.45593999997E+02  0.45594000000E+02  0.51100000000E-03 0.  1.
    9900012    2    1    2    0    0 -0.11927048152E+02 -0.25370335700E+02  0.35259113201E+02  0.46142317911E+02  0.10000001367E+02 0.  0.
        -12    1    1    2    0    0  0.11927048152E+02  0.25370335700E+02 -0.35259113201E+02  0.45045682089E+02  0.00000000000E+00 0.  1.
         11    1    3    3    0    0 -0.25990373511E+00  0.27651692610E+00 -0.42680703071E+00  0.57111825792E+00  0.51100000000E-03 0. -1.
        -11    1    3    3    0    0 -0.79417721626E+00 -0.96964631078E+00  0.26124094941E+01  0.28975187738E+01  0.51100000000E-03 0.  1.
         12    1    3    3    0    0 -0.10872967201E+02 -0.24677206315E+02  0.33073510738E+02  0.42673680879E+02  0.00000000000E+00 0. -1.
</event>
<event>
 7    1  0.3708346E-009  0.4614232E+02  0.7816164E-02  0.1320468E+00
        -11   -1    0    0    0    0  0.00000000000E+00  0.00000000000E+00  0.45593999997E+02  0.45594000000E+02  0.51100000000E-03 0.  1.
         11   -1    0    0    0    0 -0.00000000000E+00 -0.00000000000E+00 -0.45593999997E+02  0.45594000000E+02  0.51100000000E-03 0. -1.
    9900012    2    1    2    0    0 -0.13347062232E+02 -0.14188262588E+02 -0.40616038483E+02  0.46142318215E+02  0.10000004137E+02 0.  0.
        -12    1    1    2    0    0  0.13347062232E+02  0.14188262588E+02  0.40616038483E+02  0.45045681785E+02  0.00000000000E+00 0.  1.
         11    1    3    3    0    0 -0.44405757292E+00 -0.54102079252E+01 -0.13168144261E+02  0.14243158374E+02  0.51100000000E-03 0. -1.
        -11    1    3    3    0    0 -0.12622816047E+02 -0.92464673730E+01 -0.25920096221E+02  0.30276790322E+02  0.51100000000E-03 0.  1.
        -12    1    3    3    0    0 -0.28018861168E+00  0.46841271057E+00 -0.15277980001E+01  0.16223695186E+01  0.00000000000E+00 0.  1.
</event>
<event>
 7    1  0.3708346E-009  0.4614232E+02  0.7816164E-02  0.1320468E+00
        -11   -1    0    0    0    0  0.00000000000E+00  0.00000000000E+00  0.45593999997E+02  0.45594000000E+02  0.51100000000E-03 0.  1.
         11   -1    0    0    0    0 -0.00000000000E+00 -0.00000000000E+00 -0.45593999997E+02  0.45594000000E+02  0.51100000000E-03 0. -1.
    9900012    2    1    2    0    0  0.15701159617E+02 -0.41755822270E+02 -0.62480691820E+01  0.46142317906E+02  0.10000001325E+02 0.  0.
        -12    1    1    2    0    0 -0.15701159617E+02  0.41755822270E+02  0.62480691820E+01  0.45045682094E+02  0.00000000000E+00 0.  1.
         11    1    3    3    0    0  0.84354169836E+01 -0.17029323525E+02 -0.89947765714E+00  0.19025329951E+02  0.51100000000E-03 0. -1.
        -11    1    3    3    0    0  0.75266028404E+01 -0.20708056716E+02 -0.24794978542E+01  0.22172534207E+02  0.51100000000E-03 0.  1.
        -12    1    3    3    0    0 -0.26086020654E+00 -0.40184420284E+01 -0.28690936707E+01  0.49444537489E+01  0.00000000000E+00 0.  1.
</event>
<event>
 7    1  0.3708346E-009  0.4614232E+02  0.7816164E-02  0.1320468E+00
        -11   -1    0    0    0    0  0.00000000000E+00  0.00000000000E+00  0.45593999997E+02  0.45594000000E+02  0.51100000000E-03 0. -1.
         11   -1    0    0    0    0 -0.00000000000E+00 -0.00000000000E+00 -0.45593999997E+02  0.45594000000E+02  0.51100000000E-03 0.  1.
    9900012    2    1    2    0    0  0.27360572297E+02  0.30593774658E+02  0.18561613731E+02  0.46142317982E+02  0.10000002012E+02 0.  0.
        -12    1    1    2    0    0 -0.27360572297E+02 -0.30593774658E+02 -0.18561613731E+02  0.45045682018E+02  0.00000000000E+00 0.  1.
         11    1    3    3    0    0  0.46861535802E+01  0.11302036597E+02  0.63657743668E+01  0.13791995873E+02  0.51100000000E-03 0. -1.
        -11    1    3    3    0    0  0.21235760219E+01  0.70470431044E+00  0.63453217153E+00  0.23256858394E+01  0.51100000000E-03 0.  1.
         12    1    3    3    0    0  0.20550842695E+02  0.18587033750E+02  0.11561307192E+02  0.30024636269E+02  0.00000000000E+00 0. -1.
</event>
<event>
 7    1  0.3708346E-009  0.4614232E+02  0.7816164E-02  0.1320468E+00
        -11   -1    0    0    0    0  0.00000000000E+00  0.00000000000E+00  0.45593999997E+02  0.45594000000E+02  0.51100000000E-03 0.  1.
         11   -1    0    0    0    0 -0.00000000000E+00 -0.00000000000E+00 -0.45593999997E+02  0.45594000000E+02  0.51100000000E-03 0. -1.
    9900012    2    1    2    0    0 -0.21306702394E+02 -0.14567878472E+02 -0.36917675412E+02  0.46142318655E+02  0.10000008149E+02 0.  0.
        -12    1    1    2    0    0  0.21306702394E+02  0.14567878472E+02  0.36917675412E+02  0.45045681345E+02  0.00000000000E+00 0.  1.
         11    1    3    3    0    0 -0.95617751085E+01 -0.61562484173E+01 -0.20773309336E+02  0.23682426371E+02  0.51100000000E-03 0. -1.
        -11    1    3    3    0    0 -0.16255706596E+01 -0.42780461561E+01 -0.36119820086E+01  0.58301434952E+01  0.51100000000E-03 0.  1.
         12    1    3    3    0    0 -0.10119356626E+02 -0.41335838982E+01 -0.12532384067E+02  0.16629748788E+02  0.00000000000E+00 0. -1.
</event>
<event>
 7    1  0.3708346E-009  0.4614232E+02  0.7816164E-02  0.1320468E+00
        -11   -1    0    0    0    0  0.00000000000E+00  0.00000000000E+00  0.45593999997E+02  0.45594000000E+02  0.51100000000E-03 0.  1.
         11   -1    0    0    0    0 -0.00000000000E+00 -0.00000000000E+00 -0.45593999997E+02  0.45594000000E+02  0.51100000000E-03 0. -1.
    9900012    2    1    2    0    0  0.31935923285E+02 -0.20751051135E+02 -0.24054191729E+02  0.46142318087E+02  0.10000002974E+02 0.  0.
        -12    1    1    2    0    0 -0.31935923285E+02  0.20751051135E+02  0.24054191729E+02  0.45045681913E+02  0.00000000000E+00 0.  1.
         11    1    3    3    0    0  0.10760798445E+02 -0.24066082552E+01 -0.85389765865E+01  0.13946349625E+02  0.51100000000E-03 0. -1.
        -11    1    3    3    0    0  0.19162682501E+02 -0.16867745659E+02 -0.15114832250E+02  0.29667952381E+02  0.51100000000E-03 0.  1.
         12    1    3    3    0    0  0.20124423392E+01 -0.14766972198E+01 -0.40038289323E+00  0.25280160816E+01  0.00000000000E+00 0. -1.
</event>
<event>
 7    1  0.3708346E-009  0.4614232E+02  0.7816164E-02  0.1320468E+00
        -11   -1    0    0    0    0  0.00000000000E+00  0.00000000000E+00  0.45593999997E+02  0.45594000000E+02  0.51100000000E-03 0.  1.
         11   -1    0    0    0    0 -0.00000000000E+00 -0.00000000000E+00 -0.45593999997E+02  0.45594000000E+02  0.51100000000E-03 0. -1.
    9900012    2    1    2    0    0  0.23884567277E+02 -0.18468825911E+02 -0.33429678558E+02  0.46142317709E+02  0.99999995257E+01 0.  0.
        -12    1    1    2    0    0 -0.23884567277E+02  0.18468825911E+02  0.33429678558E+02  0.45045682291E+02  0.00000000000E+00 0.  1.
         11    1    3    3    0    0  0.15878492497E+02 -0.14633288101E+02 -0.17421888450E+02  0.27744942640E+02  0.51100000000E-03 0. -1.
        -11    1    3    3    0    0  0.26450911523E+01 -0.33978465280E+00 -0.47808896437E+01  0.54743827835E+01  0.51100000000E-03 0.  1.
        -12    1    3    3    0    0  0.53609836271E+01 -0.34957531573E+01 -0.11226900464E+02  0.12922992286E+02  0.00000000000E+00 0.  1.
</event>
<event>
 7    1  0.3708346E-009  0.4614232E+02  0.7816164E-02  0.1320468E+00
        -11   -1    0    0    0    0  0.00000000000E+00  0.00000000000E+00  0.45593999997E+02  0.45594000000E+02  0.51100000000E-03 0.  1.
         11   -1    0    0    0    0 -0.00000000000E+00 -0.00000000000E+00 -0.45593999997E+02  0.45594000000E+02  0.51100000000E-03 0. -1.
    9900012    2    1    2    0    0 -0.28872206500E+02  0.24006726078E+01 -0.34492693951E+02  0.46142317930E+02  0.10000001540E+02 0.  0.
        -12    1    1    2    0    0  0.28872206500E+02 -0.24006726078E+01  0.34492693951E+02  0.45045682070E+02  0.00000000000E+00 0.  1.
         11    1    3    3    0    0 -0.27552160072E+02  0.12633677976E+01 -0.31704625068E+02  0.42022623357E+02  0.51100000000E-03 0. -1.
        -11    1    3    3    0    0 -0.19583065913E+01  0.10098687538E+01 -0.26639905585E+01  0.34571152081E+01  0.51100000000E-03 0.  1.
         12    1    3    3    0    0  0.63826016335E+00  0.12743605636E+00 -0.12407832486E+00  0.66257936527E+00  0.00000000000E+00 0. -1.
</event>
<event>
 7    1  0.3708346E-009  0.4614232E+02  0.7816164E-02  0.1320468E+00
        -11   -1    0    0    0    0  0.00000000000E+00  0.00000000000E+00  0.45593999997E+02  0.45594000000E+02  0.51100000000E-03 0.  1.
         11   -1    0    0    0    0 -0.00000000000E+00 -0.00000000000E+00 -0.45593999997E+02  0.45594000000E+02  0.51100000000E-03 0. -1.
    9900012    2    1    2    0    0  0.38431007628E+02 -0.23068161040E+02 -0.44756047004E+01  0.46142318315E+02  0.10000005049E+02 0.  0.
        -12    1    1    2    0    0 -0.38431007628E+02  0.23068161040E+02  0.44756047004E+01  0.45045681685E+02  0.00000000000E+00 0.  1.
         11    1    3    3    0    0  0.22441174747E+02 -0.10761777183E+02  0.85878337740E+00  0.24903005467E+02  0.51100000000E-03 0. -1.
        -11    1    3    3    0    0  0.17659998125E+01 -0.39052423977E+00  0.33001303011E+00  0.18385247838E+01  0.51100000000E-03 0.  1.
         12    1    3    3    0    0  0.14223833068E+02 -0.11915859618E+02 -0.56644011079E+01  0.19400788064E+02  0.00000000000E+00 0. -1.
</event>
<event>
 7    1  0.3708346E-009  0.4614232E+02  0.7816164E-02  0.1320468E+00
        -11   -1    0    0    0    0  0.00000000000E+00  0.00000000000E+00  0.45593999997E+02  0.45594000000E+02  0.51100000000E-03 0. -1.
         11   -1    0    0    0    0 -0.00000000000E+00 -0.00000000000E+00 -0.45593999997E+02  0.45594000000E+02  0.51100000000E-03 0.  1.
    9900012    2    1    2    0    0  0.37077899322E+02 -0.22604078241E+02 -0.11974920035E+02  0.46142315621E+02  0.99999804868E+01 0.  0.
        -12    1    1    2    0    0 -0.37077899322E+02  0.22604078241E+02  0.11974920035E+02  0.45045684379E+02  0.00000000000E+00 0.  1.
         11    1    3    3    0    0  0.15794680544E+02 -0.12840400348E+02 -0.98858321097E+01  0.22629129266E+02  0.51100000000E-03 0. -1.
        -11    1    3    3    0    0  0.33553920558E+01 -0.13871529823E+01 -0.23885771619E+00  0.36386676839E+01  0.51100000000E-03 0.  1.
         12    1    3    3    0    0  0.17927826722E+02 -0.83765249111E+01 -0.18502302092E+01  0.19874518671E+02  0.00000000000E+00 0. -1.
</event>
<event>
 7    1  0.3708346E-009  0.4614232E+02  0.7816164E-02  0.1320468E+00
        -11   -1    0    0    0    0  0.00000000000E+00  0.00000000000E+00  0.45593999997E+02  0.45594000000E+02  0.51100000000E-03 0. -1.
         11   -1    0    0    0    0 -0.00000000000E+00 -0.00000000000E+00 -0.45593999997E+02  0.45594000000E+02  0.51100000000E-03 0.  1.
    9900012    2    1    2    0    0  0.44477489469E+02  0.17290621509E+01  0.69193075109E+01  0.46142317168E+02  0.99999945891E+01 0.  0.
        -12    1    1    2    0    0 -0.44477489469E+02 -0.17290621509E+01 -0.69193075109E+01  0.45045682832E+02  0.00000000000E+00 0.  1.
         11    1    3    3    0    0  0.21934727776E+02  0.43677544366E+01  0.21421784107E+01  0.22467721068E+02  0.51100000000E-03 0. -1.
        -11    1    3    3    0    0  0.13078460858E+01 -0.13921759739E+01  0.24635785290E+00  0.19259563285E+01  0.51100000000E-03 0.  1.
        -12    1    3    3    0    0  0.21234915608E+02 -0.12465163117E+01  0.45307712473E+01  0.21748639771E+02  0.00000000000E+00 0.  1.
</event>
<event>
 7    1  0.3708346E-009  0.4614232E+02  0.7816164E-02  0.1320468E+00
        -11   -1    0    0    0    0  0.00000000000E+00  0.00000000000E+00  0.45593999997E+02  0.45594000000E+02  0.51100000000E-03 0.  1.
         11   -1    0    0    0    0 -0.00000000000E+00 -0.00000000000E+00 -0.45593999997E+02  0.45594000000E+02  0.51100000000E-03 0. -1.
    9900012    2    1    2    0    0  0.41741336118E+02 -0.16390130109E+02 -0.42588901800E+01  0.46142315951E+02  0.99999834899E+01 0.  0.
        -12    1    1    2    0    0 -0.41741336118E+02  0.16390130109E+02  0.42588901800E+01  0.45045684049E+02  0.00000000000E+00 0.  1.
         11    1    3    3    0    0  0.20738305313E+02 -0.84653022822E+01 -0.33397082941E+01  0.22647125684E+02  0.51100000000E-03 0. -1.
        -11    1    3    3    0    0  0.12623374042E+02 -0.65271149212E+01 -0.34634241278E+01  0.14626965111E+02  0.51100000000E-03 0.  1.
         12    1    3    3    0    0  0.83796567628E+01 -0.13977129055E+01  0.25442422419E+01  0.88682251558E+01  0.00000000000E+00 0. -1.
</event>
<event>
 7    1  0.3708346E-009  0.4614232E+02  0.7816164E-02  0.1320468E+00
        -11   -1    0    0    0    0  0.00000000000E+00  0.00000000000E+00  0.45593999997E+02  0.45594000000E+02  0.51100000000E-03 0. -1.
         11   -1    0    0    0    0 -0.00000000000E+00 -0.00000000000E+00 -0.45593999997E+02  0.45594000000E+02  0.51100000000E-03 0.  1.
    9900012    2    1    2    0    0 -0.36594498420E+02  0.23759833824E+02  0.11199397408E+02  0.46142317407E+02  0.99999967731E+01 0.  0.
        -12    1    1    2    0    0  0.36594498420E+02 -0.23759833824E+02 -0.11199397408E+02  0.45045682593E+02  0.00000000000E+00 0.  1.
         11    1    3    3    0    0 -0.91586445904E-01 -0.61379943962E-01  0.93091720349E+00  0.93742342379E+00  0.51100000000E-03 0.  1.
        -11    1    3    3    0    0 -0.22284960080E+02  0.13203800224E+02  0.89721532971E+01  0.27412758365E+02  0.51100000000E-03 0. -1.
        -12    1    3    3    0    0 -0.14217951893E+02  0.10617413544E+02  0.12963269078E+01  0.17792135618E+02  0.00000000000E+00 0.  1.
</event>
<event>
 7    1  0.3708346E-009  0.4614232E+02  0.7816164E-02  0.1320468E+00
        -11   -1    0    0    0    0  0.00000000000E+00  0.00000000000E+00  0.45593999997E+02  0.45594000000E+02  0.51100000000E-03 0. -1.
         11   -1    0    0    0    0 -0.00000000000E+00 -0.00000000000E+00 -0.45593999997E+02  0.45594000000E+02  0.51100000000E-03 0.  1.
    9900012    2    1    2    0    0 -0.21337915766E+02 -0.39661514053E+02  0.87814876338E+00  0.46142317727E+02  0.99999996883E+01 0.  0.
        -12    1    1    2    0    0  0.21337915766E+02  0.39661514053E+02 -0.87814876338E+00  0.45045682273E+02  0.00000000000E+00 0.  1.
         11    1    3    3    0    0 -0.14036995946E+02 -0.28418266085E+02  0.42766615306E+01  0.31983197723E+02  0.51100000000E-03 0. -1.
        -11    1    3    3    0    0 -0.46765797361E+01 -0.55979808569E+01 -0.55628092134E+00  0.73155475821E+01  0.51100000000E-03 0.  1.
         12    1    3    3    0    0 -0.26243400842E+01 -0.56452671106E+01 -0.28422318459E+01  0.68435724218E+01  0.00000000000E+00 0. -1.
</event>
<event>
 7    1  0.3708346E-009  0.4614232E+02  0.7816164E-02  0.1320468E+00
        -11   -1    0    0    0    0  0.00000000000E+00  0.00000000000E+00  0.45593999997E+02  0.45594000000E+02  0.51100000000E-03 0. -1.
         11   -1    0    0    0    0 -0.00000000000E+00 -0.00000000000E+00 -0.45593999997E+02  0.45594000000E+02  0.51100000000E-03 0.  1.
    9900012    2    1    2    0    0 -0.24993326717E+02  0.16385280428E+01  0.37440117072E+02  0.46142317400E+02  0.99999967089E+01 0.  0.
        -12    1    1    2    0    0  0.24993326717E+02 -0.16385280428E+01 -0.37440117072E+02  0.45045682600E+02  0.00000000000E+00 0.  1.
         11    1    3    3    0    0 -0.13372373187E+02 -0.23704098043E+01  0.24471486130E+02  0.27987369311E+02  0.51100000000E-03 0. -1.
        -11    1    3    3    0    0 -0.96279527392E+01  0.20961365044E+01  0.91875984401E+01  0.13472313370E+02  0.51100000000E-03 0.  1.
         12    1    3    3    0    0 -0.19930007914E+01  0.19128013426E+01  0.37810325019E+01  0.46826347189E+01  0.00000000000E+00 0. -1.
</event>
<event>
 7    1  0.3708346E-009  0.4614232E+02  0.7816164E-02  0.1320468E+00
        -11   -1    0    0    0    0  0.00000000000E+00  0.00000000000E+00  0.45593999997E+02  0.45594000000E+02  0.51100000000E-03 0. -1.
         11   -1    0    0    0    0 -0.00000000000E+00 -0.00000000000E+00 -0.45593999997E+02  0.45594000000E+02  0.51100000000E-03 0.  1.
    9900012    2    1    2    0    0  0.35546830716E+02  0.25638827979E+02  0.10401289370E+02  0.46142317691E+02  0.99999993642E+01 0.  0.
        -12    1    1    2    0    0 -0.35546830716E+02 -0.25638827979E+02 -0.10401289370E+02  0.45045682309E+02  0.00000000000E+00 0.  1.
         11    1    3    3    0    0  0.23211328858E+02  0.16650691117E+02  0.62496114663E+01  0.29241561958E+02  0.51100000000E-03 0. -1.
        -11    1    3    3    0    0  0.36203484428E+01  0.60758374514E+00  0.30265014062E+01  0.47577086793E+01  0.51100000000E-03 0.  1.
         12    1    3    3    0    0  0.87151534156E+01  0.83805531173E+01  0.11251764975E+01  0.12143047054E+02  0.00000000000E+00 0. -1.
</event>
<event>
 7    1  0.3708346E-009  0.4614231E+02  0.7816164E-02  0.1320468E+00
        -11   -1    0    0    0    0  0.00000000000E+00  0.00000000000E+00  0.45593999997E+02  0.45594000000E+02  0.51100000000E-03 0.  1.
         11   -1    0    0    0    0 -0.00000000000E+00 -0.00000000000E+00 -0.45593999997E+02  0.45594000000E+02  0.51100000000E-03 0. -1.
    9900012    2    1    2    0    0 -0.82533676551E+01 -0.14085823510E+02 -0.41983154825E+02  0.46142314406E+02  0.99999694051E+01 0.  0.
        -12    1    1    2    0    0  0.82533676551E+01  0.14085823510E+02  0.41983154825E+02  0.45045685594E+02  0.00000000000E+00 0.  1.
         11    1    3    3    0    0 -0.86780511391E+01 -0.54491667425E+01 -0.22110278529E+02  0.24369374359E+02  0.51100000000E-03 0. -1.
        -11    1    3    3    0    0  0.95729735916E+00 -0.49100512165E+01 -0.94734995416E+01  0.10713179500E+02  0.51100000000E-03 0.  1.
         12    1    3    3    0    0 -0.53261387517E+00 -0.37266055514E+01 -0.10399376754E+02  0.11059760546E+02  0.00000000000E+00 0. -1.
</event>
<event>
 7    1  0.3708346E-009  0.4614232E+02  0.7816164E-02  0.1320468E+00
        -11   -1    0    0    0    0  0.00000000000E+00  0.00000000000E+00  0.45593999997E+02  0.45594000000E+02  0.51100000000E-03 0.  1.
         11   -1    0    0    0    0 -0.00000000000E+00 -0.00000000000E+00 -0.45593999997E+02  0.45594000000E+02  0.51100000000E-03 0. -1.
    9900012    2    1    2    0    0 -0.30930896487E+01  0.26866854452E+02 -0.36023861794E+02  0.46142315520E+02  0.99999795649E+01 0.  0.
        -12    1    1    2    0    0  0.30930896487E+01 -0.26866854452E+02  0.36023861794E+02  0.45045684480E+02  0.00000000000E+00 0.  1.
         11    1    3    3    0    0  0.13755738786E+01  0.55153745080E+01 -0.76605028045E+01  0.95391227551E+01  0.51100000000E-03 0. -1.
        -11    1    3    3    0    0 -0.13121127087E+01  0.91639643324E+01 -0.18215411893E+02  0.20432843971E+02  0.51100000000E-03 0.  1.
         12    1    3    3    0    0 -0.31565508186E+01  0.12187515611E+02 -0.10147947096E+02  0.16170348794E+02  0.00000000000E+00 0. -1.
</event>
<event>
 7    1  0.3708346E-009  0.4614232E+02  0.7816164E-02  0.1320468E+00
        -11   -1    0    0    0    0  0.00000000000E+00  0.00000000000E+00  0.45593999997E+02  0.45594000000E+02  0.51100000000E-03 0.  1.
         11   -1    0    0    0    0 -0.00000000000E+00 -0.00000000000E+00 -0.45593999997E+02  0.45594000000E+02  0.51100000000E-03 0. -1.
    9900012    2    1    2    0    0 -0.11734044839E+02  0.91832388210E+01 -0.42509925895E+02  0.46142317819E+02  0.10000000532E+02 0.  0.
        -12    1    1    2    0    0  0.11734044839E+02 -0.91832388210E+01  0.42509925895E+02  0.45045682181E+02  0.00000000000E+00 0.  1.
         11    1    3    3    0    0 -0.36026168350E+01  0.57056637018E+01 -0.24842456731E+02  0.25742593168E+02  0.51100000000E-03 0. -1.
        -11    1    3    3    0    0  0.50773649785E+00  0.23674732495E+00 -0.11813489975E+00  0.57253974777E+00  0.51100000000E-03 0.  1.
         12    1    3    3    0    0 -0.86391645019E+01  0.32408277943E+01 -0.17549334264E+02  0.19827184904E+02  0.00000000000E+00 0. -1.
</event>
<event>
 7    1  0.3708346E-009  0.4614232E+02  0.7816164E-02  0.1320468E+00
        -11   -1    0    0    0    0  0.00000000000E+00  0.00000000000E+00  0.45593999997E+02  0.45594000000E+02  0.51100000000E-03 0.  1.
         11   -1    0    0    0    0 -0.00000000000E+00 -0.00000000000E+00 -0.45593999997E+02  0.45594000000E+02  0.51100000000E-03 0. -1.
    9900012    2    1    2    0    0 -0.27595282945E+02  0.14581135208E+02 -0.32480829681E+02  0.46142318281E+02  0.10000004742E+02 0.  0.
        -12    1    1    2    0    0  0.27595282945E+02 -0.14581135208E+02  0.32480829681E+02  0.45045681719E+02  0.00000000000E+00 0.  1.
         11    1    3    3    0    0 -0.66930144655E+01  0.50277305512E+01 -0.36508277122E+01  0.91325276006E+01  0.51100000000E-03 0.  1.
        -11    1    3    3    0    0 -0.85037988470E+01  0.37078180861E+01 -0.91806148122E+01  0.13051674160E+02  0.51100000000E-03 0. -1.
         12    1    3    3    0    0 -0.12398469632E+02  0.58455865711E+01 -0.19649387156E+02  0.23958116520E+02  0.00000000000E+00 0. -1.
</event>
<event>
 7    1  0.3708346E-009  0.4614232E+02  0.7816164E-02  0.1320468E+00
        -11   -1    0    0    0    0  0.00000000000E+00  0.00000000000E+00  0.45593999997E+02  0.45594000000E+02  0.51100000000E-03 0.  1.
         11   -1    0    0    0    0 -0.00000000000E+00 -0.00000000000E+00 -0.45593999997E+02  0.45594000000E+02  0.51100000000E-03 0. -1.
    9900012    2    1    2    0    0 -0.28963384580E+02  0.11281481409E+02 -0.32603128054E+02  0.46142318431E+02  0.10000006112E+02 0.  0.
        -12    1    1    2    0    0  0.28963384580E+02 -0.11281481409E+02  0.32603128054E+02  0.45045681569E+02  0.00000000000E+00 0.  1.
         11    1    3    3    0    0 -0.38187672152E+01  0.32048197558E+01 -0.22536421281E+01  0.54710836050E+01  0.51100000000E-03 0. -1.
        -11    1    3    3    0    0 -0.90712160527E+01  0.64068881967E+00 -0.13115343320E+02  0.15959626359E+02  0.51100000000E-03 0.  1.
         12    1    3    3    0    0 -0.16073401312E+02  0.74359728340E+01 -0.17234142605E+02  0.24711608468E+02  0.00000000000E+00 0. -1.
</event>
<event>
 7    1  0.3708346E-009  0.4614231E+02  0.7816164E-02  0.1320468E+00
        -11   -1    0    0    0    0  0.00000000000E+00  0.00000000000E+00  0.45593999997E+02  0.45594000000E+02  0.51100000000E-03 0. -1.
         11   -1    0    0    0    0 -0.00000000000E+00 -0.00000000000E+00 -0.45593999997E+02  0.45594000000E+02  0.51100000000E-03 0.  1.
    9900012    2    1    2    0    0 -0.15552671828E+02 -0.31810118813E+02  0.27845020731E+02  0.46142307205E+02  0.99999037378E+01 0.  0.
        -12    1    1    2    0    0  0.15552671828E+02  0.31810118813E+02 -0.27845020731E+02  0.45045692795E+02  0.00000000000E+00 0.  1.
         11    1    3    3    0    0 -0.67597540547E+01 -0.13371394718E+02  0.13314847898E+02  0.20044292115E+02  0.51100000000E-03 0. -1.
        -11    1    3    3    0    0 -0.36185241897E+01 -0.28876801807E+01  0.75938699469E+00  0.46913839116E+01  0.51100000000E-03 0.  1.
        -12    1    3    3    0    0 -0.51743935832E+01 -0.15551043914E+02  0.13770785838E+02  0.21406631178E+02  0.00000000000E+00 0.  1.
</event>
<event>
 7    1  0.3708346E-009  0.4614232E+02  0.7816164E-02  0.1320468E+00
        -11   -1    0    0    0    0  0.00000000000E+00  0.00000000000E+00  0.45593999997E+02  0.45594000000E+02  0.51100000000E-03 0. -1.
         11   -1    0    0    0    0 -0.00000000000E+00 -0.00000000000E+00 -0.45593999997E+02  0.45594000000E+02  0.51100000000E-03 0.  1.
    9900012    2    1    2    0    0 -0.35152796971E+02  0.27294063463E+02 -0.69590505709E+01  0.46142318519E+02  0.10000006909E+02 0.  0.
        -12    1    1    2    0    0  0.35152796971E+02 -0.27294063463E+02  0.69590505709E+01  0.45045681481E+02  0.00000000000E+00 0.  1.
         11    1    3    3    0    0 -0.12232649639E+02  0.14473379551E+02 -0.57012811171E+01  0.19789417360E+02  0.51100000000E-03 0. -1.
        -11    1    3    3    0    0 -0.56308078747E+01  0.28863765121E+01 -0.10341377059E+01  0.64114434995E+01  0.51100000000E-03 0.  1.
         12    1    3    3    0    0 -0.17289339458E+02  0.99343074005E+01 -0.22363174793E+00  0.19941457660E+02  0.00000000000E+00 0. -1.
</event>
<event>
 7    1  0.3708346E-009  0.4614232E+02  0.7816164E-02  0.1320468E+00
        -11   -1    0    0    0    0  0.00000000000E+00  0.00000000000E+00  0.45593999997E+02  0.45594000000E+02  0.51100000000E-03 0.  1.
         11   -1    0    0    0    0 -0.00000000000E+00 -0.00000000000E+00 -0.45593999997E+02  0.45594000000E+02  0.51100000000E-03 0. -1.
    9900012    2    1    2    0    0 -0.31899971063E+02  0.18861039561E+02 -0.25607938862E+02  0.46142317633E+02  0.99999988336E+01 0.  0.
        -12    1    1    2    0    0  0.31899971063E+02 -0.18861039561E+02  0.25607938862E+02  0.45045682367E+02  0.00000000000E+00 0.  1.
         11    1    3    3    0    0 -0.17868966362E+02  0.90286598584E+01 -0.17987854786E+02  0.26914300618E+02  0.51100000000E-03 0. -1.
        -11    1    3    3    0    0 -0.25134030106E+01  0.30034558358E+01 -0.20427474569E+00  0.39216922475E+01  0.51100000000E-03 0.  1.
         12    1    3    3    0    0 -0.11517601690E+02  0.68289238669E+01 -0.74158093301E+01  0.15306324768E+02  0.00000000000E+00 0. -1.
</event>
<event>
 7    1  0.3708346E-009  0.4614232E+02  0.7816164E-02  0.1320468E+00
        -11   -1    0    0    0    0  0.00000000000E+00  0.00000000000E+00  0.45593999997E+02  0.45594000000E+02  0.51100000000E-03 0.  1.
         11   -1    0    0    0    0 -0.00000000000E+00 -0.00000000000E+00 -0.45593999997E+02  0.45594000000E+02  0.51100000000E-03 0. -1.
    9900012    2    1    2    0    0 -0.15499823012E+02 -0.42214761950E+02 -0.26043891341E+01  0.46142317824E+02  0.10000000576E+02 0.  0.
        -12    1    1    2    0    0  0.15499823012E+02  0.42214761950E+02  0.26043891341E+01  0.45045682176E+02  0.00000000000E+00 0.  1.
         11    1    3    3    0    0 -0.33033316332E+01 -0.14451762546E+02  0.19319434353E+01  0.14949844356E+02  0.51100000000E-03 0. -1.
        -11    1    3    3    0    0 -0.56788233492E+01 -0.65563549422E+01 -0.14100593438E+01  0.87876670609E+01  0.51100000000E-03 0.  1.
        -12    1    3    3    0    0 -0.65176680294E+01 -0.21206644462E+02 -0.31262732255E+01  0.22404806408E+02  0.00000000000E+00 0.  1.
</event>
<event>
 7    1  0.3708346E-009  0.4614231E+02  0.7816164E-02  0.1320468E+00
        -11   -1    0    0    0    0  0.00000000000E+00  0.00000000000E+00  0.45593999997E+02  0.45594000000E+02  0.51100000000E-03 0.  1.
         11   -1    0    0    0    0 -0.00000000000E+00 -0.00000000000E+00 -0.45593999997E+02  0.45594000000E+02  0.51100000000E-03 0. -1.
    9900012    2    1    2    0    0 -0.77893162013E+01  0.44261643800E+02 -0.30573390014E+01  0.46142313408E+02  0.99999603034E+01 0.  0.
        -12    1    1    2    0    0  0.77893162013E+01 -0.44261643800E+02  0.30573390014E+01  0.45045686592E+02  0.00000000000E+00 0.  1.
         11    1    3    3    0    0 -0.74970285515E+01  0.26194147220E+02 -0.20664270097E+01  0.27324145120E+02  0.51100000000E-03 0. -1.
        -11    1    3    3    0    0  0.74216884856E+00  0.11625333562E+01  0.10849720441E+01  0.17548398792E+01  0.51100000000E-03 0.  1.
         12    1    3    3    0    0 -0.10344564983E+01  0.16904963224E+02 -0.20758840357E+01  0.17063328409E+02  0.00000000000E+00 0. -1.
</event>
<event>
 7    1  0.3708346E-009  0.4614232E+02  0.7816164E-02  0.1320468E+00
        -11   -1    0    0    0    0  0.00000000000E+00  0.00000000000E+00  0.45593999997E+02  0.45594000000E+02  0.51100000000E-03 0.  1.
         11   -1    0    0    0    0 -0.00000000000E+00 -0.00000000000E+00 -0.45593999997E+02  0.45594000000E+02  0.51100000000E-03 0. -1.
    9900012    2    1    2    0    0  0.25105467593E+02  0.24205974246E+01 -0.37322509306E+02  0.46142317678E+02  0.99999992428E+01 0.  0.
        -12    1    1    2    0    0 -0.25105467593E+02 -0.24205974246E+01  0.37322509306E+02  0.45045682322E+02  0.00000000000E+00 0.  1.
         11    1    3    3    0    0  0.36605422587E+01  0.16866111421E+00 -0.43082609847E+01  0.56558933134E+01  0.51100000000E-03 0. -1.
        -11    1    3    3    0    0  0.32839127038E+01  0.37349398381E+01 -0.48853662905E+01  0.69714175240E+01  0.51100000000E-03 0.  1.
        -12    1    3    3    0    0  0.18161012630E+02 -0.14830035277E+01 -0.28128882031E+02  0.33515006841E+02  0.00000000000E+00 0.  1.
</event>
<event>
 7    1  0.3708346E-009  0.4614232E+02  0.7816164E-02  0.1320468E+00
        -11   -1    0    0    0    0  0.00000000000E+00  0.00000000000E+00  0.45593999997E+02  0.45594000000E+02  0.51100000000E-03 0.  1.
         11   -1    0    0    0    0 -0.00000000000E+00 -0.00000000000E+00 -0.45593999997E+02  0.45594000000E+02  0.51100000000E-03 0. -1.
    9900012    2    1    2    0    0  0.21379042484E+02  0.38557271465E+01 -0.39461165276E+02  0.46142315920E+02  0.99999832103E+01 0.  0.
        -12    1    1    2    0    0 -0.21379042484E+02 -0.38557271465E+01  0.39461165276E+02  0.45045684080E+02  0.00000000000E+00 0.  1.
         11    1    3    3    0    0  0.28104508218E+01  0.65417853483E+00 -0.21989277897E+01  0.36279287566E+01  0.51100000000E-03 0. -1.
        -11    1    3    3    0    0  0.85229753545E+01  0.65289071145E+00 -0.25205461709E+02  0.26615459331E+02  0.51100000000E-03 0.  1.
        -12    1    3    3    0    0  0.10045616307E+02  0.25486579002E+01 -0.12056775777E+02  0.15898927832E+02  0.00000000000E+00 0.  1.
</event>
<event>
 7    1  0.3708346E-009  0.4614232E+02  0.7816164E-02  0.1320468E+00
        -11   -1    0    0    0    0  0.00000000000E+00  0.00000000000E+00  0.45593999997E+02  0.45594000000E+02  0.51100000000E-03 0.  1.
         11   -1    0    0    0    0 -0.00000000000E+00 -0.00000000000E+00 -0.45593999997E+02  0.45594000000E+02  0.51100000000E-03 0. -1.
    9900012    2    1    2    0    0 -0.29932843085E+02  0.13091603085E+02 -0.31012067775E+02  0.46142317475E+02  0.99999973905E+01 0.  0.
        -12    1    1    2    0    0  0.29932843085E+02 -0.13091603085E+02  0.31012067775E+02  0.45045682525E+02  0.00000000000E+00 0.  1.
         11    1    3    3    0    0 -0.82895458642E+01  0.29044208741E+01 -0.10855179447E+02  0.13963780016E+02  0.51100000000E-03 0. -1.
        -11    1    3    3    0    0  0.45217690555E+00 -0.20815856820E+00  0.26108567054E-01  0.49847353172E+00  0.51100000000E-03 0.  1.
        -12    1    3    3    0    0 -0.22095474126E+02  0.10395340779E+02 -0.20182996895E+02  0.31680063927E+02  0.00000000000E+00 0.  1.
</event>
<event>
 7    1  0.3708346E-009  0.4614232E+02  0.7816164E-02  0.1320468E+00
        -11   -1    0    0    0    0  0.00000000000E+00  0.00000000000E+00  0.45593999997E+02  0.45594000000E+02  0.51100000000E-03 0.  1.
         11   -1    0    0    0    0 -0.00000000000E+00 -0.00000000000E+00 -0.45593999997E+02  0.45594000000E+02  0.51100000000E-03 0. -1.
    9900012    2    1    2    0    0 -0.11818208464E+02  0.30369562691E+02 -0.31098764923E+02  0.46142316865E+02  0.99999918326E+01 0.  0.
        -12    1    1    2    0    0  0.11818208464E+02 -0.30369562691E+02  0.31098764923E+02  0.45045683135E+02  0.00000000000E+00 0.  1.
         11    1    3    3    0    0 -0.36079456369E+01  0.15087005846E+02 -0.18583187264E+02  0.24206814459E+02  0.51100000000E-03 0. -1.
        -11    1    3    3    0    0 -0.20243857529E+01  0.12102294894E+01 -0.31503650640E+01  0.39354279806E+01  0.51100000000E-03 0.  1.
         12    1    3    3    0    0 -0.61858770738E+01  0.14072327356E+02 -0.93652125949E+01  0.18000074426E+02  0.00000000000E+00 0. -1.
</event>
<event>
 7    1  0.3708346E-009  0.4614232E+02  0.7816164E-02  0.1320468E+00
        -11   -1    0    0    0    0  0.00000000000E+00  0.00000000000E+00  0.45593999997E+02  0.45594000000E+02  0.51100000000E-03 0.  1.
         11   -1    0    0    0    0 -0.00000000000E+00 -0.00000000000E+00 -0.45593999997E+02  0.45594000000E+02  0.51100000000E-03 0. -1.
    9900012    2    1    2    0    0  0.17226753325E+02  0.28200311041E+02 -0.30612005886E+02  0.46142317884E+02  0.10000001123E+02 0.  0.
        -12    1    1    2    0    0 -0.17226753325E+02 -0.28200311041E+02  0.30612005886E+02  0.45045682116E+02  0.00000000000E+00 0.  1.
         11    1    3    3    0    0  0.16368477417E+02  0.24266586170E+02 -0.23693440264E+02  0.37658642688E+02  0.51100000000E-03 0. -1.
        -11    1    3    3    0    0 -0.10263583525E+01  0.16530792893E+01 -0.29418419380E+01  0.35271116872E+01  0.51100000000E-03 0.  1.
         12    1    3    3    0    0  0.18846342611E+01  0.22806455815E+01 -0.39767236832E+01  0.49565635090E+01  0.00000000000E+00 0. -1.
</event>
<event>
 7    1  0.3708346E-009  0.4614232E+02  0.7816164E-02  0.1320468E+00
        -11   -1    0    0    0    0  0.00000000000E+00  0.00000000000E+00  0.45593999997E+02  0.45594000000E+02  0.51100000000E-03 0.  1.
         11   -1    0    0    0    0 -0.00000000000E+00 -0.00000000000E+00 -0.45593999997E+02  0.45594000000E+02  0.51100000000E-03 0. -1.
    9900012    2    1    2    0    0  0.11668215365E+02 -0.11466844437E+02 -0.41969962372E+02  0.46142317491E+02  0.99999975388E+01 0.  0.
        -12    1    1    2    0    0 -0.11668215365E+02  0.11466844437E+02  0.41969962372E+02  0.45045682509E+02  0.00000000000E+00 0.  1.
         11    1    3    3    0    0  0.81842076743E+01 -0.89448738592E+01 -0.19900499644E+02  0.23302830514E+02  0.51100000000E-03 0. -1.
        -11    1    3    3    0    0 -0.29328124394E-01 -0.19444926954E+01 -0.12056443737E+02  0.12212278568E+02  0.51100000000E-03 0.  1.
        -12    1    3    3    0    0  0.35133358150E+01 -0.57747788249E+00 -0.10013018991E+02  0.10627208409E+02  0.00000000000E+00 0.  1.
</event>
<event>
 7    1  0.3708346E-009  0.4614232E+02  0.7816164E-02  0.1320468E+00
        -11   -1    0    0    0    0  0.00000000000E+00  0.00000000000E+00  0.45593999997E+02  0.45594000000E+02  0.51100000000E-03 0.  1.
         11   -1    0    0    0    0 -0.00000000000E+00 -0.00000000000E+00 -0.45593999997E+02  0.45594000000E+02  0.51100000000E-03 0. -1.
    9900012    2    1    2    0    0 -0.71493608482E+00  0.70789224839E+01 -0.44480230286E+02  0.46142321368E+02  0.10000032892E+02 0.  0.
        -12    1    1    2    0    0  0.71493608482E+00 -0.70789224839E+01  0.44480230286E+02  0.45045678632E+02  0.00000000000E+00 0.  1.
         11    1    3    3    0    0  0.17018041385E+01  0.70150840455E+01 -0.25040311114E+02  0.26060021536E+02  0.51100000000E-03 0. -1.
        -11    1    3    3    0    0 -0.19565043898E+01 -0.55263935825E+00 -0.29976781333E+01  0.36220704217E+01  0.51100000000E-03 0.  1.
         12    1    3    3    0    0 -0.46023583354E+00  0.61647779663E+00 -0.16442241038E+02  0.16460229411E+02  0.00000000000E+00 0. -1.
</event>
<event>
 7    1  0.3708346E-009  0.4614232E+02  0.7816164E-02  0.1320468E+00
        -11   -1    0    0    0    0  0.00000000000E+00  0.00000000000E+00  0.45593999997E+02  0.45594000000E+02  0.51100000000E-03 0.  1.
         11   -1    0    0    0    0 -0.00000000000E+00 -0.00000000000E+00 -0.45593999997E+02  0.45594000000E+02  0.51100000000E-03 0. -1.
    9900012    2    1    2    0    0 -0.34854379900E+02  0.15541193748E+02 -0.23932342598E+02  0.46142317371E+02  0.99999964390E+01 0.  0.
        -12    1    1    2    0    0  0.34854379900E+02 -0.15541193748E+02  0.23932342598E+02  0.45045682629E+02  0.00000000000E+00 0.  1.
         11    1    3    3    0    0 -0.11482074285E+02  0.59294885925E+01 -0.96173898673E+01  0.16108725988E+02  0.51100000000E-03 0. -1.
        -11    1    3    3    0    0 -0.28023901906E+00 -0.57865422958E-01 -0.22052149940E+01  0.22237031605E+01  0.51100000000E-03 0.  1.
         12    1    3    3    0    0 -0.23092066596E+02  0.96695705785E+01 -0.12109737736E+02  0.27809888222E+02  0.00000000000E+00 0. -1.
</event>
<event>
 7    1  0.3708346E-009  0.4614232E+02  0.7816164E-02  0.1320468E+00
        -11   -1    0    0    0    0  0.00000000000E+00  0.00000000000E+00  0.45593999997E+02  0.45594000000E+02  0.51100000000E-03 0.  1.
         11   -1    0    0    0    0 -0.00000000000E+00 -0.00000000000E+00 -0.45593999997E+02  0.45594000000E+02  0.51100000000E-03 0. -1.
    9900012    2    1    2    0    0  0.23891132707E+02  0.37798604694E+02 -0.54399137961E+01  0.46142318731E+02  0.10000008847E+02 0.  0.
        -12    1    1    2    0    0 -0.23891132707E+02 -0.37798604694E+02  0.54399137961E+01  0.45045681269E+02  0.00000000000E+00 0.  1.
         11    1    3    3    0    0  0.33572510845E+01  0.22186993627E+01  0.26674544713E+00  0.40329784404E+01  0.51100000000E-03 0. -1.
        -11    1    3    3    0    0  0.11373222594E+01  0.10661221156E+01  0.11395846987E+01  0.19310028052E+01  0.51100000000E-03 0.  1.
        -12    1    3    3    0    0  0.19396559364E+02  0.34513783216E+02 -0.68462439419E+01  0.40178337486E+02  0.00000000000E+00 0.  1.
</event>
<event>
 7    1  0.3708346E-009  0.4614231E+02  0.7816164E-02  0.1320468E+00
        -11   -1    0    0    0    0  0.00000000000E+00  0.00000000000E+00  0.45593999997E+02  0.45594000000E+02  0.51100000000E-03 0. -1.
         11   -1    0    0    0    0 -0.00000000000E+00 -0.00000000000E+00 -0.45593999997E+02  0.45594000000E+02  0.51100000000E-03 0.  1.
    9900012    2    1    2    0    0 -0.35410688612E+02  0.37627212622E+01  0.27586933496E+02  0.46142313869E+02  0.99999645088E+01 0.  0.
        -12    1    1    2    0    0  0.35410688612E+02 -0.37627212622E+01 -0.27586933496E+02  0.45045686131E+02  0.00000000000E+00 0.  1.
         11    1    3    3    0    0 -0.16342860082E+02  0.14392743476E+01  0.95372212433E+01  0.18976806254E+02  0.51100000000E-03 0. -1.
        -11    1    3    3    0    0 -0.29571130949E+00  0.14342122235E+01  0.87033606500E+00  0.17034949392E+01  0.51100000000E-03 0.  1.
         12    1    3    3    0    0 -0.18772117220E+02  0.88923469107E+00  0.17179376188E+02  0.25462012675E+02  0.00000000000E+00 0. -1.
</event>
<event>
 7    1  0.3708346E-009  0.4614232E+02  0.7816164E-02  0.1320468E+00
        -11   -1    0    0    0    0  0.00000000000E+00  0.00000000000E+00  0.45593999997E+02  0.45594000000E+02  0.51100000000E-03 0.  1.
         11   -1    0    0    0    0 -0.00000000000E+00 -0.00000000000E+00 -0.45593999997E+02  0.45594000000E+02  0.51100000000E-03 0. -1.
    9900012    2    1    2    0    0 -0.38984799803E+02 -0.97436445824E+01 -0.20355840437E+02  0.46142318017E+02  0.10000002330E+02 0.  0.
        -12    1    1    2    0    0  0.38984799803E+02  0.97436445824E+01  0.20355840437E+02  0.45045681983E+02  0.00000000000E+00 0.  1.
         11    1    3    3    0    0 -0.14872092433E+02 -0.79675897452E+01 -0.69538193820E+01  0.18248759518E+02  0.51100000000E-03 0. -1.
        -11    1    3    3    0    0 -0.11332084536E+02  0.79706993409E+00 -0.72627551192E+01  0.13483288642E+02  0.51100000000E-03 0.  1.
        -12    1    3    3    0    0 -0.12780622834E+02 -0.25731247712E+01 -0.61392659357E+01  0.14410269857E+02  0.00000000000E+00 0.  1.
</event>
<event>
 7    1  0.3708346E-009  0.4614232E+02  0.7816164E-02  0.1320468E+00
        -11   -1    0    0    0    0  0.00000000000E+00  0.00000000000E+00  0.45593999997E+02  0.45594000000E+02  0.51100000000E-03 0. -1.
         11   -1    0    0    0    0 -0.00000000000E+00 -0.00000000000E+00 -0.45593999997E+02  0.45594000000E+02  0.51100000000E-03 0.  1.
    9900012    2    1    2    0    0 -0.40688899414E+02 -0.14433770711E+02  0.12852738174E+02  0.46142321505E+02  0.10000034143E+02 0.  0.
        -12    1    1    2    0    0  0.40688899414E+02  0.14433770711E+02 -0.12852738174E+02  0.45045678495E+02  0.00000000000E+00 0.  1.
         11    1    3    3    0    0 -0.24865264201E+02 -0.93313375498E+01  0.10296737327E+02  0.28484698070E+02  0.51100000000E-03 0. -1.
        -11    1    3    3    0    0 -0.32100813198E+01 -0.35062822940E+01  0.53403778543E+00  0.47837050727E+01  0.51100000000E-03 0.  1.
         12    1    3    3    0    0 -0.12613553893E+02 -0.15961508674E+01  0.20219630618E+01  0.12873918363E+02  0.00000000000E+00 0. -1.
</event>
<event>
 7    1  0.3708346E-009  0.4614232E+02  0.7816164E-02  0.1320468E+00
        -11   -1    0    0    0    0  0.00000000000E+00  0.00000000000E+00  0.45593999997E+02  0.45594000000E+02  0.51100000000E-03 0.  1.
         11   -1    0    0    0    0 -0.00000000000E+00 -0.00000000000E+00 -0.45593999997E+02  0.45594000000E+02  0.51100000000E-03 0. -1.
    9900012    2    1    2    0    0  0.86469412961E+01  0.84564308739E+01 -0.43391619897E+02  0.46142317696E+02  0.99999994071E+01 0.  0.
        -12    1    1    2    0    0 -0.86469412961E+01 -0.84564308739E+01  0.43391619897E+02  0.45045682304E+02  0.00000000000E+00 0.  1.
         11    1    3    3    0    0  0.23275401448E+01  0.81158971379E+01 -0.25601744875E+02  0.26958014956E+02  0.51100000000E-03 0. -1.
        -11    1    3    3    0    0  0.16612231418E+01 -0.85428680184E+00 -0.22883859293E+01  0.29540106109E+01  0.51100000000E-03 0.  1.
        -12    1    3    3    0    0  0.46581780095E+01  0.11948205377E+01 -0.15501489093E+02  0.16230292129E+02  0.00000000000E+00 0.  1.
</event>
<event>
 7    1  0.3708346E-009  0.4614231E+02  0.7816164E-02  0.1320468E+00
        -11   -1    0    0    0    0  0.00000000000E+00  0.00000000000E+00  0.45593999997E+02  0.45594000000E+02  0.51100000000E-03 0.  1.
         11   -1    0    0    0    0 -0.00000000000E+00 -0.00000000000E+00 -0.45593999997E+02  0.45594000000E+02  0.51100000000E-03 0. -1.
    9900012    2    1    2    0    0 -0.34750754640E+02  0.22523234515E+02 -0.17725765235E+02  0.46142314366E+02  0.99999690376E+01 0.  0.
        -12    1    1    2    0    0  0.34750754640E+02 -0.22523234515E+02  0.17725765235E+02  0.45045685634E+02  0.00000000000E+00 0.  1.
         11    1    3    3    0    0 -0.18502438448E+02  0.10344054010E+02 -0.91394070766E+01  0.23083943421E+02  0.51100000000E-03 0. -1.
        -11    1    3    3    0    0 -0.78231229292E+01  0.91305992167E+01 -0.71363635735E+01  0.13982016297E+02  0.51100000000E-03 0.  1.
        -12    1    3    3    0    0 -0.84251932631E+01  0.30485812884E+01 -0.14499945853E+01  0.90763546477E+01  0.00000000000E+00 0.  1.
</event>
<event>
 7    1  0.3708346E-009  0.4614232E+02  0.7816164E-02  0.1320468E+00
        -11   -1    0    0    0    0  0.00000000000E+00  0.00000000000E+00  0.45593999997E+02  0.45594000000E+02  0.51100000000E-03 0. -1.
         11   -1    0    0    0    0 -0.00000000000E+00 -0.00000000000E+00 -0.45593999997E+02  0.45594000000E+02  0.51100000000E-03 0.  1.
    9900012    2    1    2    0    0 -0.25439328732E+02  0.36351901952E+02  0.77777471359E+01  0.46142316829E+02  0.99999914975E+01 0.  0.
        -12    1    1    2    0    0  0.25439328732E+02 -0.36351901952E+02 -0.77777471359E+01  0.45045683171E+02  0.00000000000E+00 0.  1.
         11    1    3    3    0    0 -0.56899792929E-01  0.28569649714E+01  0.22254990661E+01  0.36219239071E+01  0.51100000000E-03 0. -1.
        -11    1    3    3    0    0 -0.64269565622E+01  0.10922080297E+02  0.13028427548E+01  0.12739505805E+02  0.51100000000E-03 0.  1.
         12    1    3    3    0    0 -0.18955472377E+02  0.22572856684E+02  0.42494053150E+01  0.29780887116E+02  0.00000000000E+00 0. -1.
</event>
<event>
 7    1  0.3708346E-009  0.4614232E+02  0.7816164E-02  0.1320468E+00
        -11   -1    0    0    0    0  0.00000000000E+00  0.00000000000E+00  0.45593999997E+02  0.45594000000E+02  0.51100000000E-03 0. -1.
         11   -1    0    0    0    0 -0.00000000000E+00 -0.00000000000E+00 -0.45593999997E+02  0.45594000000E+02  0.51100000000E-03 0.  1.
    9900012    2    1    2    0    0 -0.43283804363E+02  0.83470570635E+01  0.92710601680E+01  0.46142316096E+02  0.99999848180E+01 0.  0.
        -12    1    1    2    0    0  0.43283804363E+02 -0.83470570635E+01 -0.92710601680E+01  0.45045683904E+02  0.00000000000E+00 0.  1.
         11    1    3    3    0    0 -0.37346436341E+02  0.57747744351E+01  0.68376214118E+01  0.38403872123E+02  0.51100000000E-03 0. -1.
        -11    1    3    3    0    0 -0.47929126759E+01  0.34437983435E+01  0.20745492419E+01  0.62558383745E+01  0.51100000000E-03 0.  1.
         12    1    3    3    0    0 -0.11444553454E+01 -0.87151571510E+00  0.35888951433E+00  0.14826055992E+01  0.00000000000E+00 0. -1.
</event>
<event>
 7    1  0.3708346E-009  0.4614232E+02  0.7816164E-02  0.1320468E+00
        -11   -1    0    0    0    0  0.00000000000E+00  0.00000000000E+00  0.45593999997E+02  0.45594000000E+02  0.51100000000E-03 0. -1.
         11   -1    0    0    0    0 -0.00000000000E+00 -0.00000000000E+00 -0.45593999997E+02  0.45594000000E+02  0.51100000000E-03 0.  1.
    9900012    2    1    2    0    0 -0.21373954717E+02  0.37032005982E+02 -0.14173851200E+02  0.46142318019E+02  0.10000002354E+02 0.  0.
        -12    1    1    2    0    0  0.21373954717E+02 -0.37032005982E+02  0.14173851200E+02  0.45045681981E+02  0.00000000000E+00 0.  1.
         11    1    3    3    0    0 -0.94455697725E+01  0.16472178146E+02 -0.10681300456E+02  0.21786271386E+02  0.51100000000E-03 0. -1.
        -11    1    3    3    0    0 -0.14796837888E+01  0.46832562221E+01  0.49363909356E+00  0.49361961846E+01  0.51100000000E-03 0.  1.
         12    1    3    3    0    0 -0.10448701155E+02  0.15876571614E+02 -0.39861898380E+01  0.19419850449E+02  0.00000000000E+00 0. -1.
</event>
<event>
 7    1  0.3708346E-009  0.4614232E+02  0.7816164E-02  0.1320468E+00
        -11   -1    0    0    0    0  0.00000000000E+00  0.00000000000E+00  0.45593999997E+02  0.45594000000E+02  0.51100000000E-03 0.  1.
         11   -1    0    0    0    0 -0.00000000000E+00 -0.00000000000E+00 -0.45593999997E+02  0.45594000000E+02  0.51100000000E-03 0. -1.
    9900012    2    1    2    0    0 -0.29686253684E+02  0.89996433323E+01 -0.32662612989E+02  0.46142317353E+02  0.99999962741E+01 0.  0.
        -12    1    1    2    0    0  0.29686253684E+02 -0.89996433323E+01  0.32662612989E+02  0.45045682647E+02  0.00000000000E+00 0.  1.
         11    1    3    3    0    0 -0.10682445758E+02  0.51644860514E+01 -0.15380481081E+02  0.19425389625E+02  0.51100000000E-03 0. -1.
        -11    1    3    3    0    0 -0.14996043517E+02  0.25138509041E+00 -0.12715018636E+02  0.19662558704E+02  0.51100000000E-03 0.  1.
         12    1    3    3    0    0 -0.40077644093E+01  0.35837721905E+01 -0.45671132722E+01  0.70543690232E+01  0.00000000000E+00 0. -1.
</event>
<event>
 7    1  0.3708346E-009  0.4614232E+02  0.7816164E-02  0.1320468E+00
        -11   -1    0    0    0    0  0.00000000000E+00  0.00000000000E+00  0.45593999997E+02  0.45594000000E+02  0.51100000000E-03 0.  1.
         11   -1    0    0    0    0 -0.00000000000E+00 -0.00000000000E+00 -0.45593999997E+02  0.45594000000E+02  0.51100000000E-03 0. -1.
    9900012    2    1    2    0    0 -0.18415652437E+02  0.22820036969E+02 -0.34193904924E+02  0.46142317900E+02  0.10000001262E+02 0.  0.
        -12    1    1    2    0    0  0.18415652437E+02 -0.22820036969E+02  0.34193904924E+02  0.45045682100E+02  0.00000000000E+00 0.  1.
         11    1    3    3    0    0 -0.66061396234E+01  0.11871585146E+02 -0.18067860771E+02  0.22605822429E+02  0.51100000000E-03 0. -1.
        -11    1    3    3    0    0 -0.11938854757E+02  0.11442421786E+02 -0.15114712314E+02  0.22403566632E+02  0.51100000000E-03 0.  1.
        -12    1    3    3    0    0  0.12934194406E+00 -0.49396996314E+00 -0.10113318394E+01  0.11329288382E+01  0.00000000000E+00 0.  1.
</event>
<event>
 7    1  0.3708346E-009  0.4614232E+02  0.7816164E-02  0.1320468E+00
        -11   -1    0    0    0    0  0.00000000000E+00  0.00000000000E+00  0.45593999997E+02  0.45594000000E+02  0.51100000000E-03 0. -1.
         11   -1    0    0    0    0 -0.00000000000E+00 -0.00000000000E+00 -0.45593999997E+02  0.45594000000E+02  0.51100000000E-03 0.  1.
    9900012    2    1    2    0    0 -0.42347557151E+02 -0.12076996567E+02  0.94838925044E+01  0.46142315859E+02  0.99999826525E+01 0.  0.
        -12    1    1    2    0    0  0.42347557151E+02  0.12076996567E+02 -0.94838925044E+01  0.45045684141E+02  0.00000000000E+00 0.  1.
         11    1    3    3    0    0 -0.11538769401E+02 -0.40883191271E+01  0.50925516801E+01  0.13258643802E+02  0.51100000000E-03 0. -1.
        -11    1    3    3    0    0 -0.22195089335E+02 -0.40545301291E+01  0.29047969161E+00  0.22564254561E+02  0.51100000000E-03 0.  1.
        -12    1    3    3    0    0 -0.86136984140E+01 -0.39341473111E+01  0.41008611327E+01  0.10319417496E+02  0.00000000000E+00 0.  1.
</event>
<event>
 7    1  0.3708346E-009  0.4614232E+02  0.7816164E-02  0.1320468E+00
        -11   -1    0    0    0    0  0.00000000000E+00  0.00000000000E+00  0.45593999997E+02  0.45594000000E+02  0.51100000000E-03 0.  1.
         11   -1    0    0    0    0 -0.00000000000E+00 -0.00000000000E+00 -0.45593999997E+02  0.45594000000E+02  0.51100000000E-03 0. -1.
    9900012    2    1    2    0    0  0.14683353220E+02  0.37581631826E+02 -0.20028316861E+02  0.46142318867E+02  0.10000010081E+02 0.  0.
        -12    1    1    2    0    0 -0.14683353220E+02 -0.37581631826E+02  0.20028316861E+02  0.45045681133E+02  0.00000000000E+00 0.  1.
         11    1    3    3    0    0  0.97797932824E+01  0.18807450542E+02 -0.14476431536E+02  0.25669663473E+02  0.51100000000E-03 0. -1.
        -11    1    3    3    0    0  0.36520833924E+01  0.17556523052E+02 -0.53586787643E+01  0.18715893063E+02  0.51100000000E-03 0.  1.
        -12    1    3    3    0    0  0.12514765446E+01  0.12176582323E+01 -0.19320656079E+00  0.17567623310E+01  0.00000000000E+00 0.  1.
</event>
<event>
 7    1  0.3708346E-009  0.4614232E+02  0.7816164E-02  0.1320468E+00
        -11   -1    0    0    0    0  0.00000000000E+00  0.00000000000E+00  0.45593999997E+02  0.45594000000E+02  0.51100000000E-03 0. -1.
         11   -1    0    0    0    0 -0.00000000000E+00 -0.00000000000E+00 -0.45593999997E+02  0.45594000000E+02  0.51100000000E-03 0.  1.
    9900012    2    1    2    0    0  0.40259899259E+02  0.37262422067E+01  0.19858730783E+02  0.46142316992E+02  0.99999929891E+01 0.  0.
        -12    1    1    2    0    0 -0.40259899259E+02 -0.37262422067E+01 -0.19858730783E+02  0.45045683008E+02  0.00000000000E+00 0.  1.
         11    1    3    3    0    0  0.53785179500E+01  0.27151206330E+00  0.17144629211E+01  0.56516862535E+01  0.51100000000E-03 0. -1.
        -11    1    3    3    0    0  0.21724643850E+02  0.61569268361E+01  0.13337139289E+02  0.26224934378E+02  0.51100000000E-03 0.  1.
        -12    1    3    3    0    0  0.13156737459E+02 -0.27021966927E+01  0.48071285728E+01  0.14265696361E+02  0.00000000000E+00 0.  1.
</event>
<event>
 7    1  0.3708346E-009  0.4614232E+02  0.7816164E-02  0.1320468E+00
        -11   -1    0    0    0    0  0.00000000000E+00  0.00000000000E+00  0.45593999997E+02  0.45594000000E+02  0.51100000000E-03 0.  1.
         11   -1    0    0    0    0 -0.00000000000E+00 -0.00000000000E+00 -0.45593999997E+02  0.45594000000E+02  0.51100000000E-03 0. -1.
    9900012    2    1    2    0    0 -0.20164508105E+01 -0.11493414239E+02 -0.43508031979E+02  0.46142317727E+02  0.99999996906E+01 0.  0.
        -12    1    1    2    0    0  0.20164508105E+01  0.11493414239E+02  0.43508031979E+02  0.45045682273E+02  0.00000000000E+00 0.  1.
         11    1    3    3    0    0  0.72807463418E+00 -0.98475695633E+01 -0.39184047602E+02  0.40409086920E+02  0.51100000000E-03 0. -1.
        -11    1    3    3    0    0 -0.34332988532E-01 -0.93990889514E+00 -0.82209156778E+00  0.12491766457E+01  0.51100000000E-03 0.  1.
         12    1    3    3    0    0 -0.27101924562E+01 -0.70593578078E+00 -0.35018928094E+01  0.44840541616E+01  0.00000000000E+00 0. -1.
</event>
<event>
 7    1  0.3708346E-009  0.4614232E+02  0.7816164E-02  0.1320468E+00
        -11   -1    0    0    0    0  0.00000000000E+00  0.00000000000E+00  0.45593999997E+02  0.45594000000E+02  0.51100000000E-03 0.  1.
         11   -1    0    0    0    0 -0.00000000000E+00 -0.00000000000E+00 -0.45593999997E+02  0.45594000000E+02  0.51100000000E-03 0. -1.
    9900012    2    1    2    0    0 -0.28313101017E+02  0.17508426727E+01 -0.34991661783E+02  0.46142317259E+02  0.99999954188E+01 0.  0.
        -12    1    1    2    0    0  0.28313101017E+02 -0.17508426727E+01  0.34991661783E+02  0.45045682741E+02  0.00000000000E+00 0.  1.
         11    1    3    3    0    0 -0.17851680069E+02  0.40060568443E+01 -0.16743156671E+02  0.24800489276E+02  0.51100000000E-03 0.  1.
        -11    1    3    3    0    0 -0.32275850210E+01 -0.20473213425E+01 -0.66831101512E+01  0.76988824709E+01  0.51100000000E-03 0. -1.
        -12    1    3    3    0    0 -0.72338359273E+01 -0.20789282905E+00 -0.11565394961E+02  0.13642945512E+02  0.00000000000E+00 0.  1.
</event>
<event>
 7    1  0.3708346E-009  0.4614232E+02  0.7816164E-02  0.1320468E+00
        -11   -1    0    0    0    0  0.00000000000E+00  0.00000000000E+00  0.45593999997E+02  0.45594000000E+02  0.51100000000E-03 0.  1.
         11   -1    0    0    0    0 -0.00000000000E+00 -0.00000000000E+00 -0.45593999997E+02  0.45594000000E+02  0.51100000000E-03 0. -1.
    9900012    2    1    2    0    0  0.55762689552E+00 -0.33130685562E+02  0.30514916770E+02  0.46142318530E+02  0.10000007014E+02 0.  0.
        -12    1    1    2    0    0 -0.55762689552E+00  0.33130685562E+02 -0.30514916770E+02  0.45045681470E+02  0.00000000000E+00 0.  1.
         11    1    3    3    0    0 -0.27098388944E+01 -0.12806442417E+02  0.10731765105E+02  0.16926871440E+02  0.51100000000E-03 0. -1.
        -11    1    3    3    0    0 -0.92849339380E+00 -0.68171361293E+01  0.94949377111E+01  0.11725582603E+02  0.51100000000E-03 0.  1.
        -12    1    3    3    0    0  0.41959591837E+01 -0.13507107016E+02  0.10288213955E+02  0.17489864487E+02  0.00000000000E+00 0.  1.
</event>
<event>
 7    1  0.3708346E-009  0.4614232E+02  0.7816164E-02  0.1320468E+00
        -11   -1    0    0    0    0  0.00000000000E+00  0.00000000000E+00  0.45593999997E+02  0.45594000000E+02  0.51100000000E-03 0.  1.
         11   -1    0    0    0    0 -0.00000000000E+00 -0.00000000000E+00 -0.45593999997E+02  0.45594000000E+02  0.51100000000E-03 0. -1.
    9900012    2    1    2    0    0  0.27013331847E+02  0.28437705610E+02 -0.22151529311E+02  0.46142318202E+02  0.10000004025E+02 0.  0.
        -12    1    1    2    0    0 -0.27013331847E+02 -0.28437705610E+02  0.22151529311E+02  0.45045681798E+02  0.00000000000E+00 0.  1.
         11    1    3    3    0    0  0.84327323134E+01  0.11769359827E+02 -0.71228808342E+01  0.16135806042E+02  0.51100000000E-03 0.  1.
        -11    1    3    3    0    0  0.46726785696E+01  0.85593898208E+01 -0.42853244491E+01  0.10651811349E+02  0.51100000000E-03 0. -1.
         12    1    3    3    0    0  0.13907920963E+02  0.81089559621E+01 -0.10743324028E+02  0.19354700811E+02  0.00000000000E+00 0. -1.
</event>
<event>
 7    1  0.3708346E-009  0.4614232E+02  0.7816164E-02  0.1320468E+00
        -11   -1    0    0    0    0  0.00000000000E+00  0.00000000000E+00  0.45593999997E+02  0.45594000000E+02  0.51100000000E-03 0. -1.
         11   -1    0    0    0    0 -0.00000000000E+00 -0.00000000000E+00 -0.45593999997E+02  0.45594000000E+02  0.51100000000E-03 0.  1.
    9900012    2    1    2    0    0  0.35864581868E+02 -0.10467556615E+02  0.25164962182E+02  0.46142319900E+02  0.10000019506E+02 0.  0.
        -12    1    1    2    0    0 -0.35864581868E+02  0.10467556615E+02 -0.25164962182E+02  0.45045680100E+02  0.00000000000E+00 0.  1.
         11    1    3    3    0    0  0.26906572975E+02 -0.10565340297E+02  0.19128865659E+02  0.34662711759E+02  0.51100000000E-03 0. -1.
        -11    1    3    3    0    0  0.19138732732E+01 -0.78934934053E-01 -0.37649795851E+00  0.19521507635E+01  0.51100000000E-03 0.  1.
         12    1    3    3    0    0  0.70441356196E+01  0.17671861574E+00  0.64125944811E+01  0.95274573773E+01  0.00000000000E+00 0. -1.
</event>
<event>
 7    1  0.3708346E-009  0.4614232E+02  0.7816164E-02  0.1320468E+00
        -11   -1    0    0    0    0  0.00000000000E+00  0.00000000000E+00  0.45593999997E+02  0.45594000000E+02  0.51100000000E-03 0. -1.
         11   -1    0    0    0    0 -0.00000000000E+00 -0.00000000000E+00 -0.45593999997E+02  0.45594000000E+02  0.51100000000E-03 0.  1.
    9900012    2    1    2    0    0 -0.41192370197E+02 -0.10800896044E+00  0.18228834323E+02  0.46142318418E+02  0.10000005993E+02 0.  0.
        -12    1    1    2    0    0  0.41192370197E+02  0.10800896044E+00 -0.18228834323E+02  0.45045681582E+02  0.00000000000E+00 0.  1.
         11    1    3    3    0    0 -0.26727708846E+02 -0.32066967159E+00  0.13263568451E+02  0.29839495597E+02  0.51100000000E-03 0. -1.
        -11    1    3    3    0    0 -0.82310206503E+01  0.33844223539E+00  0.57102952245E+01  0.10023558046E+02  0.51100000000E-03 0.  1.
         12    1    3    3    0    0 -0.62336407007E+01 -0.12578152424E+00 -0.74502935233E+00  0.62792647749E+01  0.00000000000E+00 0. -1.
</event>
<event>
 7    1  0.3708346E-009  0.4614232E+02  0.7816164E-02  0.1320468E+00
        -11   -1    0    0    0    0  0.00000000000E+00  0.00000000000E+00  0.45593999997E+02  0.45594000000E+02  0.51100000000E-03 0.  1.
         11   -1    0    0    0    0 -0.00000000000E+00 -0.00000000000E+00 -0.45593999997E+02  0.45594000000E+02  0.51100000000E-03 0. -1.
    9900012    2    1    2    0    0  0.76145019721E+01 -0.19133000210E+02 -0.40063214077E+02  0.46142318082E+02  0.10000002925E+02 0.  0.
        -12    1    1    2    0    0 -0.76145019721E+01  0.19133000210E+02  0.40063214077E+02  0.45045681918E+02  0.00000000000E+00 0.  1.
         11    1    3    3    0    0 -0.52558918422E+00 -0.73511172128E+01 -0.11692921958E+02  0.13821707291E+02  0.51100000000E-03 0. -1.
        -11    1    3    3    0    0  0.58113798871E+01 -0.33089337909E+01 -0.11708259158E+02  0.13483490342E+02  0.51100000000E-03 0.  1.
         12    1    3    3    0    0  0.23287112692E+01 -0.84729492059E+01 -0.16662032961E+02  0.18837120449E+02  0.00000000000E+00 0. -1.
</event>
<event>
 7    1  0.3708346E-009  0.4614232E+02  0.7816164E-02  0.1320468E+00
        -11   -1    0    0    0    0  0.00000000000E+00  0.00000000000E+00  0.45593999997E+02  0.45594000000E+02  0.51100000000E-03 0.  1.
         11   -1    0    0    0    0 -0.00000000000E+00 -0.00000000000E+00 -0.45593999997E+02  0.45594000000E+02  0.51100000000E-03 0. -1.
    9900012    2    1    2    0    0  0.39346266029E+02 -0.17511766787E+02  0.13203138180E+02  0.46142317807E+02  0.10000000417E+02 0.  0.
        -12    1    1    2    0    0 -0.39346266029E+02  0.17511766787E+02 -0.13203138180E+02  0.45045682193E+02  0.00000000000E+00 0.  1.
         11    1    3    3    0    0  0.23491132832E+02 -0.84962806016E+01  0.11755863881E+02  0.27608340074E+02  0.51100000000E-03 0. -1.
        -11    1    3    3    0    0  0.19830323796E+01 -0.97040814975E-01  0.12024811310E+00  0.19890435411E+01  0.51100000000E-03 0.  1.
         12    1    3    3    0    0  0.13872100818E+02 -0.89184453701E+01  0.13270261862E+01  0.16544934192E+02  0.00000000000E+00 0. -1.
</event>
<event>
 7    1  0.3708346E-009  0.4614231E+02  0.7816164E-02  0.1320468E+00
        -11   -1    0    0    0    0  0.00000000000E+00  0.00000000000E+00  0.45593999997E+02  0.45594000000E+02  0.51100000000E-03 0.  1.
         11   -1    0    0    0    0 -0.00000000000E+00 -0.00000000000E+00 -0.45593999997E+02  0.45594000000E+02  0.51100000000E-03 0. -1.
    9900012    2    1    2    0    0 -0.14742132898E+02 -0.22199234310E+02 -0.36317727082E+02  0.46142314449E+02  0.99999698016E+01 0.  0.
        -12    1    1    2    0    0  0.14742132898E+02  0.22199234310E+02  0.36317727082E+02  0.45045685551E+02  0.00000000000E+00 0.  1.
         11    1    3    3    0    0 -0.13057903266E+02 -0.15292085463E+02 -0.26465204475E+02  0.33237986757E+02  0.51100000000E-03 0. -1.
        -11    1    3    3    0    0 -0.13971745757E+01 -0.32211118320E+01 -0.80682306883E+01  0.87990911422E+01  0.51100000000E-03 0.  1.
        -12    1    3    3    0    0 -0.28705505596E+00 -0.36860370148E+01 -0.17842919188E+01  0.41052365500E+01  0.00000000000E+00 0.  1.
</event>
<event>
 7    1  0.3708346E-009  0.4614232E+02  0.7816164E-02  0.1320468E+00
        -11   -1    0    0    0    0  0.00000000000E+00  0.00000000000E+00  0.45593999997E+02  0.45594000000E+02  0.51100000000E-03 0.  1.
         11   -1    0    0    0    0 -0.00000000000E+00 -0.00000000000E+00 -0.45593999997E+02  0.45594000000E+02  0.51100000000E-03 0. -1.
    9900012    2    1    2    0    0 -0.42081538881E+02 -0.12927247704E+02 -0.95469134263E+01  0.46142320920E+02  0.10000028810E+02 0.  0.
        -12    1    1    2    0    0  0.42081538881E+02  0.12927247704E+02  0.95469134263E+01  0.45045679080E+02  0.00000000000E+00 0.  1.
         11    1    3    3    0    0 -0.21977398744E+02 -0.45382682003E+01 -0.21448830775E+01  0.22543346191E+02  0.51100000000E-03 0. -1.
        -11    1    3    3    0    0 -0.74625567148E+00  0.53390554047E+00  0.25111562128E+00  0.95132117065E+00  0.51100000000E-03 0.  1.
         12    1    3    3    0    0 -0.19357884465E+02 -0.89228850446E+01 -0.76531459700E+01  0.22647653559E+02  0.00000000000E+00 0. -1.
</event>
<event>
 7    1  0.3708346E-009  0.4614232E+02  0.7816164E-02  0.1320468E+00
        -11   -1    0    0    0    0  0.00000000000E+00  0.00000000000E+00  0.45593999997E+02  0.45594000000E+02  0.51100000000E-03 0.  1.
         11   -1    0    0    0    0 -0.00000000000E+00 -0.00000000000E+00 -0.45593999997E+02  0.45594000000E+02  0.51100000000E-03 0. -1.
    9900012    2    1    2    0    0 -0.34342678922E+02  0.24059894721E+02  0.16456461468E+02  0.46142320367E+02  0.10000023764E+02 0.  0.
        -12    1    1    2    0    0  0.34342678922E+02 -0.24059894721E+02 -0.16456461468E+02  0.45045679633E+02  0.00000000000E+00 0.  1.
         11    1    3    3    0    0 -0.43346611317E+01  0.23024402735E+01  0.52299902467E+01  0.71723996390E+01  0.51100000000E-03 0. -1.
        -11    1    3    3    0    0 -0.14862268663E+02  0.13011827343E+02  0.47200199785E+01  0.20309437941E+02  0.51100000000E-03 0.  1.
         12    1    3    3    0    0 -0.15145749127E+02  0.87456271051E+01  0.65064512423E+01  0.18660482787E+02  0.00000000000E+00 0. -1.
</event>
<event>
 7    1  0.3708346E-009  0.4614232E+02  0.7816164E-02  0.1320468E+00
        -11   -1    0    0    0    0  0.00000000000E+00  0.00000000000E+00  0.45593999997E+02  0.45594000000E+02  0.51100000000E-03 0.  1.
         11   -1    0    0    0    0 -0.00000000000E+00 -0.00000000000E+00 -0.45593999997E+02  0.45594000000E+02  0.51100000000E-03 0. -1.
    9900012    2    1    2    0    0  0.27611512098E+02  0.27572385627E+02  0.22505144226E+02  0.46142316898E+02  0.99999921291E+01 0.  0.
        -12    1    1    2    0    0 -0.27611512098E+02 -0.27572385627E+02 -0.22505144226E+02  0.45045683102E+02  0.00000000000E+00 0.  1.
         11    1    3    3    0    0  0.19899434111E+02  0.20683358018E+02  0.21091636309E+02  0.35618055804E+02  0.51100000000E-03 0. -1.
        -11    1    3    3    0    0  0.49855323062E+01  0.51776876364E+01  0.65908612986E+00  0.72179205055E+01  0.51100000000E-03 0.  1.
         12    1    3    3    0    0  0.27265456810E+01  0.17113399727E+01  0.75442178756E+00  0.33063405884E+01  0.00000000000E+00 0. -1.
</event>
<event>
 7    1  0.3708346E-009  0.4614232E+02  0.7816164E-02  0.1320468E+00
        -11   -1    0    0    0    0  0.00000000000E+00  0.00000000000E+00  0.45593999997E+02  0.45594000000E+02  0.51100000000E-03 0.  1.
         11   -1    0    0    0    0 -0.00000000000E+00 -0.00000000000E+00 -0.45593999997E+02  0.45594000000E+02  0.51100000000E-03 0. -1.
    9900012    2    1    2    0    0 -0.37506056813E+02 -0.84304307617E+01 -0.23480565633E+02  0.46142318488E+02  0.10000006626E+02 0.  0.
        -12    1    1    2    0    0  0.37506056813E+02  0.84304307617E+01  0.23480565633E+02  0.45045681512E+02  0.00000000000E+00 0.  1.
         11    1    3    3    0    0 -0.23635573664E+02 -0.31195915184E+01 -0.18091396625E+02  0.29927760119E+02  0.51100000000E-03 0. -1.
        -11    1    3    3    0    0 -0.23426429745E+01 -0.12012311402E+01  0.42239893487E+00  0.26663370903E+01  0.51100000000E-03 0.  1.
         12    1    3    3    0    0 -0.11527840174E+02 -0.41096081031E+01 -0.58115679429E+01  0.13548221278E+02  0.00000000000E+00 0. -1.
</event>
<event>
 7    1  0.3708346E-009  0.4614232E+02  0.7816164E-02  0.1320468E+00
        -11   -1    0    0    0    0  0.00000000000E+00  0.00000000000E+00  0.45593999997E+02  0.45594000000E+02  0.51100000000E-03 0.  1.
         11   -1    0    0    0    0 -0.00000000000E+00 -0.00000000000E+00 -0.45593999997E+02  0.45594000000E+02  0.51100000000E-03 0. -1.
    9900012    2    1    2    0    0  0.41844455786E+02  0.35882440898E+00 -0.16674118381E+02  0.46142318089E+02  0.10000002994E+02 0.  0.
        -12    1    1    2    0    0 -0.41844455786E+02 -0.35882440898E+00  0.16674118381E+02  0.45045681911E+02  0.00000000000E+00 0.  1.
         11    1    3    3    0    0  0.21919158724E+02 -0.12322175895E+01 -0.59573079779E+01  0.22747689948E+02  0.51100000000E-03 0. -1.
        -11    1    3    3    0    0  0.20199702653E+01  0.16043567413E+00  0.66161733456E+00  0.21316090722E+01  0.51100000000E-03 0.  1.
         12    1    3    3    0    0  0.17905326797E+02  0.14306063243E+01 -0.11378427738E+02  0.21263019069E+02  0.00000000000E+00 0. -1.
</event>
<event>
 7    1  0.3708346E-009  0.4614232E+02  0.7816164E-02  0.1320468E+00
        -11   -1    0    0    0    0  0.00000000000E+00  0.00000000000E+00  0.45593999997E+02  0.45594000000E+02  0.51100000000E-03 0.  1.
         11   -1    0    0    0    0 -0.00000000000E+00 -0.00000000000E+00 -0.45593999997E+02  0.45594000000E+02  0.51100000000E-03 0. -1.
    9900012    2    1    2    0    0 -0.52395516947E+01 -0.38314725834E+02 -0.23100700622E+02  0.46142317777E+02  0.10000000142E+02 0.  0.
        -12    1    1    2    0    0  0.52395516947E+01  0.38314725834E+02  0.23100700622E+02  0.45045682223E+02  0.00000000000E+00 0.  1.
         11    1    3    3    0    0  0.72479509506E+00 -0.57128097588E+01 -0.48418921772E+01  0.75236589095E+01  0.51100000000E-03 0. -1.
        -11    1    3    3    0    0 -0.63484713946E+01 -0.15169144181E+02 -0.10666047371E+02  0.19600270177E+02  0.51100000000E-03 0.  1.
        -12    1    3    3    0    0  0.38412460491E+00 -0.17432771894E+02 -0.75927610740E+01  0.19018388690E+02  0.00000000000E+00 0.  1.
</event>
<event>
 7    1  0.3708346E-009  0.4614232E+02  0.7816164E-02  0.1320468E+00
        -11   -1    0    0    0    0  0.00000000000E+00  0.00000000000E+00  0.45593999997E+02  0.45594000000E+02  0.51100000000E-03 0. -1.
         11   -1    0    0    0    0 -0.00000000000E+00 -0.00000000000E+00 -0.45593999997E+02  0.45594000000E+02  0.51100000000E-03 0.  1.
    9900012    2    1    2    0    0 -0.42424295280E+02  0.29021055121E+01 -0.14861704843E+02  0.46142319660E+02  0.10000017317E+02 0.  0.
        -12    1    1    2    0    0  0.42424295280E+02 -0.29021055121E+01  0.14861704843E+02  0.45045680340E+02  0.00000000000E+00 0.  1.
         11    1    3    3    0    0 -0.11435733190E+02  0.40625225026E+01 -0.51266811475E+01  0.13174328921E+02  0.51100000000E-03 0. -1.
        -11    1    3    3    0    0 -0.73306598446E+00 -0.56765940619E+00 -0.12184545562E+01  0.15310959165E+01  0.51100000000E-03 0.  1.
        -12    1    3    3    0    0 -0.30255496106E+02 -0.59275758432E+00 -0.85165691395E+01  0.31436894823E+02  0.00000000000E+00 0.  1.
</event>
<event>
 7    1  0.3708346E-009  0.4614232E+02  0.7816164E-02  0.1320468E+00
        -11   -1    0    0    0    0  0.00000000000E+00  0.00000000000E+00  0.45593999997E+02  0.45594000000E+02  0.51100000000E-03 0.  1.
         11   -1    0    0    0    0 -0.00000000000E+00 -0.00000000000E+00 -0.45593999997E+02  0.45594000000E+02  0.51100000000E-03 0. -1.
    9900012    2    1    2    0    0 -0.14264516218E+02  0.58694251861E+01 -0.42322416045E+02  0.46142317911E+02  0.10000001369E+02 0.  0.
        -12    1    1    2    0    0  0.14264516218E+02 -0.58694251861E+01  0.42322416045E+02  0.45045682089E+02  0.00000000000E+00 0.  1.
         11    1    3    3    0    0 -0.74410222284E+01  0.20947840596E+01 -0.13213540699E+02  0.15308644294E+02  0.51100000000E-03 0. -1.
        -11    1    3    3    0    0 -0.11892724412E+01  0.27110221102E+00 -0.28041906167E+00  0.12515991609E+01  0.51100000000E-03 0.  1.
         12    1    3    3    0    0 -0.56342215486E+01  0.35035389155E+01 -0.28828456285E+02  0.29582074457E+02  0.00000000000E+00 0. -1.
</event>
<event>
 7    1  0.3708346E-009  0.4614232E+02  0.7816164E-02  0.1320468E+00
        -11   -1    0    0    0    0  0.00000000000E+00  0.00000000000E+00  0.45593999997E+02  0.45594000000E+02  0.51100000000E-03 0. -1.
         11   -1    0    0    0    0 -0.00000000000E+00 -0.00000000000E+00 -0.45593999997E+02  0.45594000000E+02  0.51100000000E-03 0.  1.
    9900012    2    1    2    0    0 -0.12649085233E+02 -0.12768293830E+02  0.41304777613E+02  0.46142319428E+02  0.10000015200E+02 0.  0.
        -12    1    1    2    0    0  0.12649085233E+02  0.12768293830E+02 -0.41304777613E+02  0.45045680572E+02  0.00000000000E+00 0.  1.
         11    1    3    3    0    0 -0.42562666634E+01 -0.29102446275E+01  0.66142561481E+01  0.83865198000E+01  0.51100000000E-03 0. -1.
        -11    1    3    3    0    0 -0.78953375219E+01 -0.64283378619E+01  0.17734724517E+02  0.20449458090E+02  0.51100000000E-03 0.  1.
        -12    1    3    3    0    0 -0.49748104725E+00 -0.34297113410E+01  0.16955796948E+02  0.17306341538E+02  0.00000000000E+00 0.  1.
</event>
<event>
 7    1  0.3708346E-009  0.4614233E+02  0.7816164E-02  0.1320468E+00
        -11   -1    0    0    0    0  0.00000000000E+00  0.00000000000E+00  0.45593999997E+02  0.45594000000E+02  0.51100000000E-03 0.  1.
         11   -1    0    0    0    0 -0.00000000000E+00 -0.00000000000E+00 -0.45593999997E+02  0.45594000000E+02  0.51100000000E-03 0. -1.
    9900012    2    1    2    0    0 -0.35039175240E+02 -0.10656953032E+02 -0.26225899945E+02  0.46142331203E+02  0.10000122574E+02 0.  0.
        -12    1    1    2    0    0  0.35039175240E+02  0.10656953032E+02  0.26225899945E+02  0.45045668797E+02  0.00000000000E+00 0.  1.
         11    1    3    3    0    0 -0.70468160338E+01 -0.36831751271E+01 -0.22847150694E+01  0.82730477117E+01  0.51100000000E-03 0. -1.
        -11    1    3    3    0    0 -0.10074287381E+02 -0.51667648249E+01 -0.87568121817E+01  0.14313227618E+02  0.51100000000E-03 0.  1.
         12    1    3    3    0    0 -0.17918071826E+02 -0.18070130796E+01 -0.15184372694E+02  0.23556055874E+02  0.00000000000E+00 0. -1.
</event>
<event>
 7    1  0.3708346E-009  0.4614232E+02  0.7816164E-02  0.1320468E+00
        -11   -1    0    0    0    0  0.00000000000E+00  0.00000000000E+00  0.45593999997E+02  0.45594000000E+02  0.51100000000E-03 0. -1.
         11   -1    0    0    0    0 -0.00000000000E+00 -0.00000000000E+00 -0.45593999997E+02  0.45594000000E+02  0.51100000000E-03 0.  1.
    9900012    2    1    2    0    0  0.36496236503E+02 -0.26400041625E+02 -0.41947404899E+00  0.46142318352E+02  0.10000005385E+02 0.  0.
        -12    1    1    2    0    0 -0.36496236503E+02  0.26400041625E+02  0.41947404899E+00  0.45045681648E+02  0.00000000000E+00 0.  1.
         11    1    3    3    0    0  0.98552447001E+01 -0.49852908197E+01  0.32786316508E+01  0.11520781155E+02  0.51100000000E-03 0. -1.
        -11    1    3    3    0    0  0.81497958271E+01 -0.43682264552E+01 -0.38648952615E+00  0.92547257552E+01  0.51100000000E-03 0.  1.
         12    1    3    3    0    0  0.18491195976E+02 -0.17046524350E+02 -0.33116161736E+01  0.25366811442E+02  0.00000000000E+00 0. -1.
</event>
<event>
 7    1  0.3708346E-009  0.4614232E+02  0.7816164E-02  0.1320468E+00
        -11   -1    0    0    0    0  0.00000000000E+00  0.00000000000E+00  0.45593999997E+02  0.45594000000E+02  0.51100000000E-03 0. -1.
         11   -1    0    0    0    0 -0.00000000000E+00 -0.00000000000E+00 -0.45593999997E+02  0.45594000000E+02  0.51100000000E-03 0.  1.
    9900012    2    1    2    0    0  0.25472694680E+02 -0.34177106013E+02  0.14566415543E+02  0.46142320835E+02  0.10000028031E+02 0.  0.
        -12    1    1    2    0    0 -0.25472694680E+02  0.34177106013E+02 -0.14566415543E+02  0.45045679165E+02  0.00000000000E+00 0.  1.
         11    1    3    3    0    0  0.12529333571E+02 -0.12501249943E+02  0.24373246547E+01  0.17866337106E+02  0.51100000000E-03 0. -1.
        -11    1    3    3    0    0  0.12212190980E+01 -0.52569338810E+00  0.33181842936E+00  0.13703405981E+01  0.51100000000E-03 0.  1.
         12    1    3    3    0    0  0.11722142010E+02 -0.21150162682E+02  0.11797272459E+02  0.26905643131E+02  0.00000000000E+00 0. -1.
</event>
<event>
 7    1  0.3708346E-009  0.4614232E+02  0.7816164E-02  0.1320468E+00
        -11   -1    0    0    0    0  0.00000000000E+00  0.00000000000E+00  0.45593999997E+02  0.45594000000E+02  0.51100000000E-03 0. -1.
         11   -1    0    0    0    0 -0.00000000000E+00 -0.00000000000E+00 -0.45593999997E+02  0.45594000000E+02  0.51100000000E-03 0.  1.
    9900012    2    1    2    0    0  0.34089691662E+02 -0.21786181769E+02  0.19808299511E+02  0.46142317374E+02  0.99999964730E+01 0.  0.
        -12    1    1    2    0    0 -0.34089691662E+02  0.21786181769E+02 -0.19808299511E+02  0.45045682626E+02  0.00000000000E+00 0.  1.
         11    1    3    3    0    0  0.25344901421E+02 -0.19353180409E+02  0.15624359778E+02  0.35510987577E+02  0.51100000000E-03 0. -1.
        -11    1    3    3    0    0  0.93603046171E-01  0.59003347141E+00  0.38649375975E+00  0.71153265216E+00  0.51100000000E-03 0.  1.
        -12    1    3    3    0    0  0.86511871953E+01 -0.30230348314E+01  0.37974459735E+01  0.99197971452E+01  0.00000000000E+00 0.  1.
</event>
<event>
 7    1  0.3708346E-009  0.4614232E+02  0.7816164E-02  0.1320468E+00
        -11   -1    0    0    0    0  0.00000000000E+00  0.00000000000E+00  0.45593999997E+02  0.45594000000E+02  0.51100000000E-03 0.  1.
         11   -1    0    0    0    0 -0.00000000000E+00 -0.00000000000E+00 -0.45593999997E+02  0.45594000000E+02  0.51100000000E-03 0. -1.
    9900012    2    1    2    0    0 -0.31837761728E+02  0.24030145142E+02 -0.20928988934E+02  0.46142317352E+02  0.99999962732E+01 0.  0.
        -12    1    1    2    0    0  0.31837761728E+02 -0.24030145142E+02  0.20928988934E+02  0.45045682648E+02  0.00000000000E+00 0.  1.
         11    1    3    3    0    0 -0.32281967735E+01  0.40656693078E+01 -0.20036045750E+01  0.55646520901E+01  0.51100000000E-03 0. -1.
        -11    1    3    3    0    0 -0.22882196285E+02  0.17142608480E+02 -0.18748900011E+02  0.34190425329E+02  0.51100000000E-03 0.  1.
        -12    1    3    3    0    0 -0.57273686692E+01  0.28218673545E+01 -0.17648434850E+00  0.63872399332E+01  0.00000000000E+00 0.  1.
</event>
<event>
 7    1  0.3708346E-009  0.4614232E+02  0.7816164E-02  0.1320468E+00
        -11   -1    0    0    0    0  0.00000000000E+00  0.00000000000E+00  0.45593999997E+02  0.45594000000E+02  0.51100000000E-03 0.  1.
         11   -1    0    0    0    0 -0.00000000000E+00 -0.00000000000E+00 -0.45593999997E+02  0.45594000000E+02  0.51100000000E-03 0. -1.
    9900012    2    1    2    0    0  0.43210264323E+02 -0.11841783584E+02  0.46646233907E+01  0.46142317713E+02  0.99999995612E+01 0.  0.
        -12    1    1    2    0    0 -0.43210264323E+02  0.11841783584E+02 -0.46646233907E+01  0.45045682287E+02  0.00000000000E+00 0.  1.
         11    1    3    3    0    0  0.33732366834E+02 -0.73230715506E+01  0.30045675480E+01  0.34648627325E+02  0.51100000000E-03 0. -1.
        -11    1    3    3    0    0  0.41890802548E+01 -0.21668876315E+01  0.29508098854E+01  0.55633689999E+01  0.51100000000E-03 0.  1.
        -12    1    3    3    0    0  0.52888172348E+01 -0.23518244020E+01 -0.12907540428E+01  0.59303213876E+01  0.00000000000E+00 0.  1.
</event>
<event>
 7    1  0.3708346E-009  0.4614232E+02  0.7816164E-02  0.1320468E+00
        -11   -1    0    0    0    0  0.00000000000E+00  0.00000000000E+00  0.45593999997E+02  0.45594000000E+02  0.51100000000E-03 0. -1.
         11   -1    0    0    0    0 -0.00000000000E+00 -0.00000000000E+00 -0.45593999997E+02  0.45594000000E+02  0.51100000000E-03 0.  1.
    9900012    2    1    2    0    0  0.42599412677E+02  0.38443740683E+01  0.14128847523E+02  0.46142317579E+02  0.99999983436E+01 0.  0.
        -12    1    1    2    0    0 -0.42599412677E+02 -0.38443740683E+01 -0.14128847523E+02  0.45045682421E+02  0.00000000000E+00 0.  1.
         11    1    3    3    0    0  0.27889298560E+02  0.86142470900E+00  0.11756815027E+02  0.30278337578E+02  0.51100000000E-03 0. -1.
        -11    1    3    3    0    0  0.11715586371E+02  0.16338991215E+01  0.28129215548E-01  0.11829005955E+02  0.51100000000E-03 0.  1.
         12    1    3    3    0    0  0.29945277462E+01  0.13490502378E+01  0.23439032804E+01  0.40349740464E+01  0.00000000000E+00 0. -1.
</event>
<event>
 7    1  0.3708346E-009  0.4614232E+02  0.7816164E-02  0.1320468E+00
        -11   -1    0    0    0    0  0.00000000000E+00  0.00000000000E+00  0.45593999997E+02  0.45594000000E+02  0.51100000000E-03 0.  1.
         11   -1    0    0    0    0 -0.00000000000E+00 -0.00000000000E+00 -0.45593999997E+02  0.45594000000E+02  0.51100000000E-03 0. -1.
    9900012    2    1    2    0    0  0.56413311067E+01  0.18452837793E+02 -0.40703582482E+02  0.46142318008E+02  0.10000002250E+02 0.  0.
        -12    1    1    2    0    0 -0.56413311067E+01 -0.18452837793E+02  0.40703582482E+02  0.45045681992E+02  0.00000000000E+00 0.  1.
         11    1    3    3    0    0  0.45016472957E+01  0.17753271293E+02 -0.37690240463E+02  0.41904626193E+02  0.51100000000E-03 0. -1.
        -11    1    3    3    0    0  0.62924105479E+00 -0.76095288526E+00 -0.23600182115E+01  0.25582571838E+01  0.51100000000E-03 0.  1.
         12    1    3    3    0    0  0.51044275629E+00  0.14605193852E+01 -0.65332380765E+00  0.16794346309E+01  0.00000000000E+00 0. -1.
</event>
<event>
 7    1  0.3708346E-009  0.4614232E+02  0.7816164E-02  0.1320468E+00
        -11   -1    0    0    0    0  0.00000000000E+00  0.00000000000E+00  0.45593999997E+02  0.45594000000E+02  0.51100000000E-03 0.  1.
         11   -1    0    0    0    0 -0.00000000000E+00 -0.00000000000E+00 -0.45593999997E+02  0.45594000000E+02  0.51100000000E-03 0. -1.
    9900012    2    1    2    0    0 -0.54697153863E+01  0.24667963728E+02 -0.37291915143E+02  0.46142321451E+02  0.10000033649E+02 0.  0.
        -12    1    1    2    0    0  0.54697153863E+01 -0.24667963728E+02  0.37291915143E+02  0.45045678549E+02  0.00000000000E+00 0.  1.
         11    1    3    3    0    0  0.10595172476E+01  0.69446289291E+01 -0.14014596628E+02  0.15676714154E+02  0.51100000000E-03 0. -1.
        -11    1    3    3    0    0 -0.61357882960E+00  0.24491660959E+01 -0.79069538733E+00  0.26457688868E+01  0.51100000000E-03 0.  1.
         12    1    3    3    0    0 -0.59156538042E+01  0.15274168703E+02 -0.22486623127E+02  0.27819838410E+02  0.00000000000E+00 0. -1.
</event>
<event>
 7    1  0.3708346E-009  0.4614232E+02  0.7816164E-02  0.1320468E+00
        -11   -1    0    0    0    0  0.00000000000E+00  0.00000000000E+00  0.45593999997E+02  0.45594000000E+02  0.51100000000E-03 0.  1.
         11   -1    0    0    0    0 -0.00000000000E+00 -0.00000000000E+00 -0.45593999997E+02  0.45594000000E+02  0.51100000000E-03 0. -1.
    9900012    2    1    2    0    0  0.22017394318E+02 -0.45409560003E+01 -0.39034951857E+02  0.46142318737E+02  0.10000008901E+02 0.  0.
        -12    1    1    2    0    0 -0.22017394318E+02  0.45409560003E+01  0.39034951857E+02  0.45045681263E+02  0.00000000000E+00 0.  1.
         11    1    3    3    0    0  0.37016447788E+01  0.96408354121E+00 -0.27508320688E+01  0.47115505383E+01  0.51100000000E-03 0.  1.
        -11    1    3    3    0    0  0.15374755543E+02 -0.64851254189E+01 -0.32547180004E+02  0.36575386343E+02  0.51100000000E-03 0. -1.
         12    1    3    3    0    0  0.29409939954E+01  0.98008587734E+00 -0.37369397849E+01  0.48553818556E+01  0.00000000000E+00 0. -1.
</event>
<event>
 7    1  0.3708346E-009  0.4614232E+02  0.7816164E-02  0.1320468E+00
        -11   -1    0    0    0    0  0.00000000000E+00  0.00000000000E+00  0.45593999997E+02  0.45594000000E+02  0.51100000000E-03 0. -1.
         11   -1    0    0    0    0 -0.00000000000E+00 -0.00000000000E+00 -0.45593999997E+02  0.45594000000E+02  0.51100000000E-03 0.  1.
    9900012    2    1    2    0    0 -0.28176681575E+02 -0.18907604517E+02  0.29625840705E+02  0.46142319512E+02  0.10000015965E+02 0.  0.
        -12    1    1    2    0    0  0.28176681575E+02  0.18907604517E+02 -0.29625840705E+02  0.45045680488E+02  0.00000000000E+00 0.  1.
         11    1    3    3    0    0 -0.13450209280E+02 -0.13594846255E+02  0.13191770437E+02  0.23232537139E+02  0.51100000000E-03 0. -1.
        -11    1    3    3    0    0 -0.60568452699E+00  0.30696381512E+00  0.12725078454E+01  0.14423442750E+01  0.51100000000E-03 0.  1.
         12    1    3    3    0    0 -0.14120787768E+02 -0.56197220774E+01  0.15161562422E+02  0.21467438098E+02  0.00000000000E+00 0. -1.
</event>
<event>
 7    1  0.3708346E-009  0.4614232E+02  0.7816164E-02  0.1320468E+00
        -11   -1    0    0    0    0  0.00000000000E+00  0.00000000000E+00  0.45593999997E+02  0.45594000000E+02  0.51100000000E-03 0.  1.
         11   -1    0    0    0    0 -0.00000000000E+00 -0.00000000000E+00 -0.45593999997E+02  0.45594000000E+02  0.51100000000E-03 0. -1.
    9900012    2    1    2    0    0 -0.15722077040E+02  0.26829211821E+02 -0.32590231695E+02  0.46142317462E+02  0.99999972689E+01 0.  0.
        -12    1    1    2    0    0  0.15722077040E+02 -0.26829211821E+02  0.32590231695E+02  0.45045682538E+02  0.00000000000E+00 0.  1.
         11    1    3    3    0    0 -0.74059459268E+01  0.11726534540E+02 -0.12574363642E+02  0.18720958006E+02  0.51100000000E-03 0. -1.
        -11    1    3    3    0    0 -0.73735063652E+01  0.66419365491E+01 -0.13208928919E+02  0.16521492690E+02  0.51100000000E-03 0.  1.
        -12    1    3    3    0    0 -0.94262474836E+00  0.84607407319E+01 -0.68069391339E+01  0.10899866766E+02  0.00000000000E+00 0.  1.
</event>
<event>
 7    1  0.3708346E-009  0.4614232E+02  0.7816164E-02  0.1320468E+00
        -11   -1    0    0    0    0  0.00000000000E+00  0.00000000000E+00  0.45593999997E+02  0.45594000000E+02  0.51100000000E-03 0.  1.
         11   -1    0    0    0    0 -0.00000000000E+00 -0.00000000000E+00 -0.45593999997E+02  0.45594000000E+02  0.51100000000E-03 0. -1.
    9900012    2    1    2    0    0 -0.22947645352E+01 -0.32775202550E+02 -0.30816127333E+02  0.46142317074E+02  0.99999937338E+01 0.  0.
        -12    1    1    2    0    0  0.22947645352E+01  0.32775202550E+02  0.30816127333E+02  0.45045682926E+02  0.00000000000E+00 0.  1.
         11    1    3    3    0    0 -0.43735429474E+01 -0.19164923172E+02 -0.18442800370E+02  0.26954759206E+02  0.51100000000E-03 0. -1.
        -11    1    3    3    0    0  0.42300940870E-01 -0.34729282598E+01 -0.63054188647E+01  0.71987031740E+01  0.51100000000E-03 0.  1.
         12    1    3    3    0    0  0.20364774714E+01 -0.10137351118E+02 -0.60679080990E+01  0.11988854694E+02  0.00000000000E+00 0. -1.
</event>
<event>
 7    1  0.3708346E-009  0.4614232E+02  0.7816164E-02  0.1320468E+00
        -11   -1    0    0    0    0  0.00000000000E+00  0.00000000000E+00  0.45593999997E+02  0.45594000000E+02  0.51100000000E-03 0. -1.
         11   -1    0    0    0    0 -0.00000000000E+00 -0.00000000000E+00 -0.45593999997E+02  0.45594000000E+02  0.51100000000E-03 0.  1.
    9900012    2    1    2    0    0  0.19649009551E+02 -0.22220670968E+02  0.33900910066E+02  0.46142317655E+02  0.99999990329E+01 0.  0.
        -12    1    1    2    0    0 -0.19649009551E+02  0.22220670968E+02 -0.33900910066E+02  0.45045682345E+02  0.00000000000E+00 0.  1.
         11    1    3    3    0    0  0.10367780688E+01 -0.51260330630E+00 -0.19280631867E+00  0.11725380383E+01  0.51100000000E-03 0. -1.
        -11    1    3    3    0    0  0.46819530465E+01 -0.99296333511E+01  0.14668269247E+02  0.18321474443E+02  0.51100000000E-03 0.  1.
         12    1    3    3    0    0  0.13930278436E+02 -0.11778434311E+02  0.19425447138E+02  0.26648305173E+02  0.00000000000E+00 0. -1.
</event>
<event>
 7    1  0.3708346E-009  0.4614230E+02  0.7816164E-02  0.1320468E+00
        -11   -1    0    0    0    0  0.00000000000E+00  0.00000000000E+00  0.45593999997E+02  0.45594000000E+02  0.51100000000E-03 0.  1.
         11   -1    0    0    0    0 -0.00000000000E+00 -0.00000000000E+00 -0.45593999997E+02  0.45594000000E+02  0.51100000000E-03 0. -1.
    9900012    2    1    2    0    0 -0.20441758673E+02 -0.17028000056E+02 -0.36349643219E+02  0.46142302695E+02  0.99998626136E+01 0.  0.
        -12    1    1    2    0    0  0.20441758673E+02  0.17028000056E+02  0.36349643219E+02  0.45045697305E+02  0.00000000000E+00 0.  1.
         11    1    3    3    0    0 -0.27413381069E+01 -0.27111261817E+01 -0.56348736752E+01  0.68276600227E+01  0.51100000000E-03 0. -1.
        -11    1    3    3    0    0 -0.17912501356E+02 -0.12088348160E+02 -0.29983999562E+02  0.36959790260E+02  0.51100000000E-03 0.  1.
        -12    1    3    3    0    0  0.21208078941E+00 -0.22285257139E+01 -0.73076998232E+00  0.23548524127E+01  0.00000000000E+00 0.  1.
</event>
<event>
 7    1  0.3708346E-009  0.4614232E+02  0.7816164E-02  0.1320468E+00
        -11   -1    0    0    0    0  0.00000000000E+00  0.00000000000E+00  0.45593999997E+02  0.45594000000E+02  0.51100000000E-03 0. -1.
         11   -1    0    0    0    0 -0.00000000000E+00 -0.00000000000E+00 -0.45593999997E+02  0.45594000000E+02  0.51100000000E-03 0.  1.
    9900012    2    1    2    0    0  0.39097265564E+02 -0.70409572029E+01  0.21235399708E+02  0.46142318146E+02  0.10000003511E+02 0.  0.
        -12    1    1    2    0    0 -0.39097265564E+02  0.70409572029E+01 -0.21235399708E+02  0.45045681854E+02  0.00000000000E+00 0.  1.
         11    1    3    3    0    0  0.44429058882E+01 -0.22422340013E+01  0.59665853690E+01  0.77696310900E+01  0.51100000000E-03 0. -1.
        -11    1    3    3    0    0  0.78165893372E+01 -0.19260291257E+01  0.19932342098E+01  0.82934697163E+01  0.51100000000E-03 0.  1.
         12    1    3    3    0    0  0.26837770339E+02 -0.28726940759E+01  0.13275580129E+02  0.30079217340E+02  0.00000000000E+00 0. -1.
</event>
<event>
 7    1  0.3708346E-009  0.4614230E+02  0.7816164E-02  0.1320468E+00
        -11   -1    0    0    0    0  0.00000000000E+00  0.00000000000E+00  0.45593999997E+02  0.45594000000E+02  0.51100000000E-03 0.  1.
         11   -1    0    0    0    0 -0.00000000000E+00 -0.00000000000E+00 -0.45593999997E+02  0.45594000000E+02  0.51100000000E-03 0. -1.
    9900012    2    1    2    0    0  0.13875155211E+02 -0.14210929370E+02 -0.40430733547E+02  0.46142304746E+02  0.99998813204E+01 0.  0.
        -12    1    1    2    0    0 -0.13875155211E+02  0.14210929370E+02  0.40430733547E+02  0.45045695254E+02  0.00000000000E+00 0.  1.
         11    1    3    3    0    0  0.10997655642E+02 -0.11822747574E+02 -0.36564152457E+02  0.39970777263E+02  0.51100000000E-03 0. -1.
        -11    1    3    3    0    0  0.12551724179E+01 -0.21239705938E+01 -0.63748278535E+00  0.25481549099E+01  0.51100000000E-03 0.  1.
         12    1    3    3    0    0  0.16223271512E+01 -0.26421120253E+00 -0.32290983052E+01  0.36233725740E+01  0.00000000000E+00 0. -1.
</event>
<event>
 7    1  0.3708346E-009  0.4614232E+02  0.7816164E-02  0.1320468E+00
        -11   -1    0    0    0    0  0.00000000000E+00  0.00000000000E+00  0.45593999997E+02  0.45594000000E+02  0.51100000000E-03 0.  1.
         11   -1    0    0    0    0 -0.00000000000E+00 -0.00000000000E+00 -0.45593999997E+02  0.45594000000E+02  0.51100000000E-03 0. -1.
    9900012    2    1    2    0    0 -0.43444444260E+02  0.64798537752E+01  0.99852596527E+01  0.46142315941E+02  0.99999834052E+01 0.  0.
        -12    1    1    2    0    0  0.43444444260E+02 -0.64798537752E+01 -0.99852596527E+01  0.45045684059E+02  0.00000000000E+00 0.  1.
         11    1    3    3    0    0 -0.79246474847E+01  0.46412449401E+01  0.25693792877E+01  0.95363988243E+01  0.51100000000E-03 0. -1.
        -11    1    3    3    0    0 -0.66416383806E+01 -0.11108807578E+01  0.23912292686E+01  0.71458655258E+01  0.51100000000E-03 0.  1.
         12    1    3    3    0    0 -0.28878158394E+02  0.29494895928E+01  0.50246510965E+01  0.29460051591E+02  0.00000000000E+00 0. -1.
</event>
<event>
 7    1  0.3708346E-009  0.4614232E+02  0.7816164E-02  0.1320468E+00
        -11   -1    0    0    0    0  0.00000000000E+00  0.00000000000E+00  0.45593999997E+02  0.45594000000E+02  0.51100000000E-03 0.  1.
         11   -1    0    0    0    0 -0.00000000000E+00 -0.00000000000E+00 -0.45593999997E+02  0.45594000000E+02  0.51100000000E-03 0. -1.
    9900012    2    1    2    0    0 -0.38288390642E+02 -0.10516168151E+02 -0.21272576617E+02  0.46142321334E+02  0.10000032581E+02 0.  0.
        -12    1    1    2    0    0  0.38288390642E+02  0.10516168151E+02  0.21272576617E+02  0.45045678666E+02  0.00000000000E+00 0.  1.
         11    1    3    3    0    0 -0.19565162280E+02 -0.73942758527E+01 -0.86092959659E+01  0.22618374560E+02  0.51100000000E-03 0.  1.
        -11    1    3    3    0    0 -0.13839640070E+02 -0.41226156639E+01 -0.72272131648E+01  0.16148195180E+02  0.51100000000E-03 0. -1.
         12    1    3    3    0    0 -0.48835882917E+01  0.10007233661E+01 -0.54360674866E+01  0.73757515941E+01  0.00000000000E+00 0. -1.
</event>
<event>
 7    1  0.3708346E-009  0.4614232E+02  0.7816164E-02  0.1320468E+00
        -11   -1    0    0    0    0  0.00000000000E+00  0.00000000000E+00  0.45593999997E+02  0.45594000000E+02  0.51100000000E-03 0. -1.
         11   -1    0    0    0    0 -0.00000000000E+00 -0.00000000000E+00 -0.45593999997E+02  0.45594000000E+02  0.51100000000E-03 0.  1.
    9900012    2    1    2    0    0  0.37905792329E+02 -0.36733291368E+01  0.24057659132E+02  0.46142318721E+02  0.10000008751E+02 0.  0.
        -12    1    1    2    0    0 -0.37905792329E+02  0.36733291368E+01 -0.24057659132E+02  0.45045681279E+02  0.00000000000E+00 0.  1.
         11    1    3    3    0    0  0.13141804315E+02 -0.46178465938E+01  0.96699969290E+01  0.16957015324E+02  0.51100000000E-03 0. -1.
        -11    1    3    3    0    0  0.22025935864E+00  0.76816650071E+00  0.80061610809E+00  0.11311853834E+01  0.51100000000E-03 0.  1.
         12    1    3    3    0    0  0.24543728655E+02  0.17635095625E+00  0.13587046094E+02  0.28054118014E+02  0.00000000000E+00 0. -1.
</event>
<event>
 7    1  0.3708346E-009  0.4614232E+02  0.7816164E-02  0.1320468E+00
        -11   -1    0    0    0    0  0.00000000000E+00  0.00000000000E+00  0.45593999997E+02  0.45594000000E+02  0.51100000000E-03 0.  1.
         11   -1    0    0    0    0 -0.00000000000E+00 -0.00000000000E+00 -0.45593999997E+02  0.45594000000E+02  0.51100000000E-03 0. -1.
    9900012    2    1    2    0    0  0.10788037209E+02 -0.37758242363E+02 -0.22069136312E+02  0.46142318845E+02  0.10000009884E+02 0.  0.
        -12    1    1    2    0    0 -0.10788037209E+02  0.37758242363E+02  0.22069136312E+02  0.45045681155E+02  0.00000000000E+00 0.  1.
         11    1    3    3    0    0  0.69013954276E+01 -0.28898554869E+02 -0.13184818149E+02  0.32505309755E+02  0.51100000000E-03 0. -1.
        -11    1    3    3    0    0  0.18133265485E+01 -0.94473241960E+00 -0.10065298051E+01  0.22789855256E+01  0.51100000000E-03 0.  1.
         12    1    3    3    0    0  0.20733152329E+01 -0.79149550743E+01 -0.78777883581E+01  0.11358023565E+02  0.00000000000E+00 0. -1.
</event>
<event>
 7    1  0.3708346E-009  0.4614232E+02  0.7816164E-02  0.1320468E+00
        -11   -1    0    0    0    0  0.00000000000E+00  0.00000000000E+00  0.45593999997E+02  0.45594000000E+02  0.51100000000E-03 0.  1.
         11   -1    0    0    0    0 -0.00000000000E+00 -0.00000000000E+00 -0.45593999997E+02  0.45594000000E+02  0.51100000000E-03 0. -1.
    9900012    2    1    2    0    0  0.25507705475E+02  0.30310609844E+02  0.21441487341E+02  0.46142317776E+02  0.10000000132E+02 0.  0.
        -12    1    1    2    0    0 -0.25507705475E+02 -0.30310609844E+02 -0.21441487341E+02  0.45045682224E+02  0.00000000000E+00 0.  1.
         11    1    3    3    0    0  0.84916974571E+01  0.91342711344E+01  0.32330469615E+01  0.12883960097E+02  0.51100000000E-03 0. -1.
        -11    1    3    3    0    0  0.13901498434E+01  0.28191940533E+00  0.22928050162E+01  0.26960990786E+01  0.51100000000E-03 0.  1.
         12    1    3    3    0    0  0.15625858174E+02  0.20894419304E+02  0.15915635363E+02  0.30562258600E+02  0.00000000000E+00 0. -1.
</event>
<event>
 7    1  0.3708346E-009  0.4614232E+02  0.7816164E-02  0.1320468E+00
        -11   -1    0    0    0    0  0.00000000000E+00  0.00000000000E+00  0.45593999997E+02  0.45594000000E+02  0.51100000000E-03 0.  1.
         11   -1    0    0    0    0 -0.00000000000E+00 -0.00000000000E+00 -0.45593999997E+02  0.45594000000E+02  0.51100000000E-03 0. -1.
    9900012    2    1    2    0    0 -0.35150175650E+01  0.25821172807E+02 -0.36742689642E+02  0.46142317014E+02  0.99999931847E+01 0.  0.
        -12    1    1    2    0    0  0.35150175650E+01 -0.25821172807E+02  0.36742689642E+02  0.45045682986E+02  0.00000000000E+00 0.  1.
         11    1    3    3    0    0  0.10993602273E+01  0.37604106606E+01 -0.92342275828E+01  0.10030964089E+02  0.51100000000E-03 0. -1.
        -11    1    3    3    0    0  0.68387142462E-01  0.69771257456E+01 -0.48736936232E+01  0.85110428424E+01  0.51100000000E-03 0.  1.
        -12    1    3    3    0    0 -0.46827649347E+01  0.15083636400E+02 -0.22634768436E+02  0.27600310082E+02  0.00000000000E+00 0.  1.
</event>
<event>
 7    1  0.3708346E-009  0.4614232E+02  0.7816164E-02  0.1320468E+00
        -11   -1    0    0    0    0  0.00000000000E+00  0.00000000000E+00  0.45593999997E+02  0.45594000000E+02  0.51100000000E-03 0.  1.
         11   -1    0    0    0    0 -0.00000000000E+00 -0.00000000000E+00 -0.45593999997E+02  0.45594000000E+02  0.51100000000E-03 0. -1.
    9900012    2    1    2    0    0 -0.11572754767E+02  0.43046533610E+02  0.64946761676E+01  0.46142317330E+02  0.99999960673E+01 0.  0.
        -12    1    1    2    0    0  0.11572754767E+02 -0.43046533610E+02 -0.64946761676E+01  0.45045682670E+02  0.00000000000E+00 0.  1.
         11    1    3    3    0    0 -0.21840033092E+00  0.94361406453E+01 -0.40567518459E+00  0.94473817325E+01  0.51100000000E-03 0.  1.
        -11    1    3    3    0    0 -0.10012992540E+02  0.32964670272E+02  0.71486174422E+01  0.35185682278E+02  0.51100000000E-03 0. -1.
        -12    1    3    3    0    0 -0.13413618959E+01  0.64572269214E+00 -0.24826609002E+00  0.15092533195E+01  0.00000000000E+00 0.  1.
</event>
<event>
 7    1  0.3708346E-009  0.4614232E+02  0.7816164E-02  0.1320468E+00
        -11   -1    0    0    0    0  0.00000000000E+00  0.00000000000E+00  0.45593999997E+02  0.45594000000E+02  0.51100000000E-03 0. -1.
         11   -1    0    0    0    0 -0.00000000000E+00 -0.00000000000E+00 -0.45593999997E+02  0.45594000000E+02  0.51100000000E-03 0.  1.
    9900012    2    1    2    0    0 -0.18367520248E+02  0.15024997848E+02  0.38288344479E+02  0.46142315597E+02  0.99999802642E+01 0.  0.
        -12    1    1    2    0    0  0.18367520248E+02 -0.15024997848E+02 -0.38288344479E+02  0.45045684403E+02  0.00000000000E+00 0.  1.
         11    1    3    3    0    0 -0.60331458529E+01  0.53427613553E+01  0.99749408202E+01  0.12823548355E+02  0.51100000000E-03 0. -1.
        -11    1    3    3    0    0 -0.34560580386E+01 -0.43810563584E+00  0.99993117543E+01  0.10588791694E+02  0.51100000000E-03 0.  1.
        -12    1    3    3    0    0 -0.88783163568E+01  0.10120342129E+02  0.18314091905E+02  0.22729975548E+02  0.00000000000E+00 0.  1.
</event>
<event>
 7    1  0.3708346E-009  0.4614232E+02  0.7816164E-02  0.1320468E+00
        -11   -1    0    0    0    0  0.00000000000E+00  0.00000000000E+00  0.45593999997E+02  0.45594000000E+02  0.51100000000E-03 0. -1.
         11   -1    0    0    0    0 -0.00000000000E+00 -0.00000000000E+00 -0.45593999997E+02  0.45594000000E+02  0.51100000000E-03 0.  1.
    9900012    2    1    2    0    0  0.12029159098E+02 -0.42310538340E+02  0.97072822347E+01  0.46142315949E+02  0.99999834738E+01 0.  0.
        -12    1    1    2    0    0 -0.12029159098E+02  0.42310538340E+02 -0.97072822347E+01  0.45045684051E+02  0.00000000000E+00 0.  1.
         11    1    3    3    0    0  0.11945597811E+00 -0.34361409627E+01  0.11999239836E+01  0.36415865051E+01  0.51100000000E-03 0. -1.
        -11    1    3    3    0    0  0.12175671206E+02 -0.36132120794E+02  0.56733420904E+01  0.38548202723E+02  0.51100000000E-03 0.  1.
        -12    1    3    3    0    0 -0.26596808602E+00 -0.27422765835E+01  0.28340161606E+01  0.39525267212E+01  0.00000000000E+00 0.  1.
</event>
<event>
 7    1  0.3708346E-009  0.4614232E+02  0.7816164E-02  0.1320468E+00
        -11   -1    0    0    0    0  0.00000000000E+00  0.00000000000E+00  0.45593999997E+02  0.45594000000E+02  0.51100000000E-03 0.  1.
         11   -1    0    0    0    0 -0.00000000000E+00 -0.00000000000E+00 -0.45593999997E+02  0.45594000000E+02  0.51100000000E-03 0. -1.
    9900012    2    1    2    0    0 -0.38851731043E+02  0.84635356006E+01 -0.21166600413E+02  0.46142318598E+02  0.10000007634E+02 0.  0.
        -12    1    1    2    0    0  0.38851731043E+02 -0.84635356006E+01  0.21166600413E+02  0.45045681402E+02  0.00000000000E+00 0.  1.
         11    1    3    3    0    0 -0.13185466323E+02 -0.79267194862E+00 -0.60739323394E+01  0.14538827508E+02  0.51100000000E-03 0. -1.
        -11    1    3    3    0    0 -0.25482570595E+02  0.83126775224E+01 -0.14512350888E+02  0.30480655181E+02  0.51100000000E-03 0.  1.
         12    1    3    3    0    0 -0.18369412471E+00  0.94353002687E+00 -0.58031718555E+00  0.11228359092E+01  0.00000000000E+00 0. -1.
</event>
<event>
 7    1  0.3708346E-009  0.4614232E+02  0.7816164E-02  0.1320468E+00
        -11   -1    0    0    0    0  0.00000000000E+00  0.00000000000E+00  0.45593999997E+02  0.45594000000E+02  0.51100000000E-03 0. -1.
         11   -1    0    0    0    0 -0.00000000000E+00 -0.00000000000E+00 -0.45593999997E+02  0.45594000000E+02  0.51100000000E-03 0.  1.
    9900012    2    1    2    0    0  0.80601609790E+01  0.14337732693E+02  0.41935385653E+02  0.46142319368E+02  0.10000014652E+02 0.  0.
        -12    1    1    2    0    0 -0.80601609790E+01 -0.14337732693E+02 -0.41935385653E+02  0.45045680632E+02  0.00000000000E+00 0.  1.
         11    1    3    3    0    0  0.15997681798E+01 -0.46021819026E+00  0.98700598633E+01  0.10009452581E+02  0.51100000000E-03 0. -1.
        -11    1    3    3    0    0  0.53012971236E+01  0.85540224331E+01  0.16568963453E+02  0.19385706104E+02  0.51100000000E-03 0.  1.
        -12    1    3    3    0    0  0.11590956756E+01  0.62439284498E+01  0.15496362337E+02  0.16747160683E+02  0.00000000000E+00 0.  1.
</event>
<event>
 7    1  0.3708346E-009  0.4614232E+02  0.7816164E-02  0.1320468E+00
        -11   -1    0    0    0    0  0.00000000000E+00  0.00000000000E+00  0.45593999997E+02  0.45594000000E+02  0.51100000000E-03 0.  1.
         11   -1    0    0    0    0 -0.00000000000E+00 -0.00000000000E+00 -0.45593999997E+02  0.45594000000E+02  0.51100000000E-03 0. -1.
    9900012    2    1    2    0    0  0.31385122562E+01 -0.18903593782E+02 -0.40766620967E+02  0.46142317609E+02  0.99999986089E+01 0.  0.
        -12    1    1    2    0    0 -0.31385122562E+01  0.18903593782E+02  0.40766620967E+02  0.45045682391E+02  0.00000000000E+00 0.  1.
         11    1    3    3    0    0  0.38731602170E+01 -0.10223618861E+02 -0.21792308125E+02  0.24380903313E+02  0.51100000000E-03 0. -1.
        -11    1    3    3    0    0 -0.24768645955E+01 -0.54323391923E+01 -0.15824630834E+02  0.16913429830E+02  0.51100000000E-03 0.  1.
        -12    1    3    3    0    0  0.17422166347E+01 -0.32476357284E+01 -0.31496820083E+01  0.48479844658E+01  0.00000000000E+00 0.  1.
</event>
<event>
 7    1  0.3708346E-009  0.4614232E+02  0.7816164E-02  0.1320468E+00
        -11   -1    0    0    0    0  0.00000000000E+00  0.00000000000E+00  0.45593999997E+02  0.45594000000E+02  0.51100000000E-03 0. -1.
         11   -1    0    0    0    0 -0.00000000000E+00 -0.00000000000E+00 -0.45593999997E+02  0.45594000000E+02  0.51100000000E-03 0.  1.
    9900012    2    1    2    0    0 -0.39522159380E+02 -0.15936511635E+02  0.14599317308E+02  0.46142317066E+02  0.99999936591E+01 0.  0.
        -12    1    1    2    0    0  0.39522159380E+02  0.15936511635E+02 -0.14599317308E+02  0.45045682934E+02  0.00000000000E+00 0.  1.
         11    1    3    3    0    0 -0.23706041741E+02 -0.10769056412E+02  0.64180531139E+01  0.26816793192E+02  0.51100000000E-03 0. -1.
        -11    1    3    3    0    0 -0.13984550455E+01  0.14975154022E+00 -0.70606020367E+00  0.15737291096E+01  0.51100000000E-03 0.  1.
         12    1    3    3    0    0 -0.14417662593E+02 -0.53172067635E+01  0.88873243974E+01  0.17751794765E+02  0.00000000000E+00 0. -1.
</event>
<event>
 7    1  0.3708346E-009  0.4614232E+02  0.7816164E-02  0.1320468E+00
        -11   -1    0    0    0    0  0.00000000000E+00  0.00000000000E+00  0.45593999997E+02  0.45594000000E+02  0.51100000000E-03 0.  1.
         11   -1    0    0    0    0 -0.00000000000E+00 -0.00000000000E+00 -0.45593999997E+02  0.45594000000E+02  0.51100000000E-03 0. -1.
    9900012    2    1    2    0    0 -0.20140378592E+02  0.19671896453E+01 -0.40244363429E+02  0.46142317935E+02  0.10000001582E+02 0.  0.
        -12    1    1    2    0    0  0.20140378592E+02 -0.19671896453E+01  0.40244363429E+02  0.45045682065E+02  0.00000000000E+00 0.  1.
         11    1    3    3    0    0 -0.46592937896E+01  0.10133231118E+01 -0.91018962620E+01  0.10275230322E+02  0.51100000000E-03 0. -1.
        -11    1    3    3    0    0 -0.46005908815E+01  0.37433489368E+01 -0.15609798031E+02  0.16698619480E+02  0.51100000000E-03 0.  1.
        -12    1    3    3    0    0 -0.10880493921E+02 -0.27894824032E+01 -0.15532669136E+02  0.19168468132E+02  0.00000000000E+00 0.  1.
</event>
<event>
 7    1  0.3708346E-009  0.4614232E+02  0.7816164E-02  0.1320468E+00
        -11   -1    0    0    0    0  0.00000000000E+00  0.00000000000E+00  0.45593999997E+02  0.45594000000E+02  0.51100000000E-03 0. -1.
         11   -1    0    0    0    0 -0.00000000000E+00 -0.00000000000E+00 -0.45593999997E+02  0.45594000000E+02  0.51100000000E-03 0.  1.
    9900012    2    1    2    0    0  0.16657609911E+02  0.30269713411E+02  0.28902975187E+02  0.46142317714E+02  0.99999995726E+01 0.  0.
        -12    1    1    2    0    0 -0.16657609911E+02 -0.30269713411E+02 -0.28902975187E+02  0.45045682286E+02  0.00000000000E+00 0.  1.
         11    1    3    3    0    0  0.16473340670E+02  0.24239495891E+02  0.22566351873E+02  0.36988705722E+02  0.51100000000E-03 0. -1.
        -11    1    3    3    0    0  0.41252686477E+00  0.50475130098E+01  0.35355116945E+01  0.61763588951E+01  0.51100000000E-03 0.  1.
         12    1    3    3    0    0 -0.22825762424E+00  0.98270451021E+00  0.28011116198E+01  0.29772530970E+01  0.00000000000E+00 0. -1.
</event>
<event>
 7    1  0.3708346E-009  0.4614232E+02  0.7816164E-02  0.1320468E+00
        -11   -1    0    0    0    0  0.00000000000E+00  0.00000000000E+00  0.45593999997E+02  0.45594000000E+02  0.51100000000E-03 0. -1.
         11   -1    0    0    0    0 -0.00000000000E+00 -0.00000000000E+00 -0.45593999997E+02  0.45594000000E+02  0.51100000000E-03 0.  1.
    9900012    2    1    2    0    0  0.30472474840E+02  0.33102929734E+02 -0.21766519555E+01  0.46142317703E+02  0.99999994705E+01 0.  0.
        -12    1    1    2    0    0 -0.30472474840E+02 -0.33102929734E+02  0.21766519555E+01  0.45045682297E+02  0.00000000000E+00 0.  1.
         11    1    3    3    0    0  0.17788498697E+02  0.19047393457E+02 -0.35007451249E+00  0.26064466920E+02  0.51100000000E-03 0. -1.
        -11    1    3    3    0    0  0.74724091935E+01  0.12434783291E+02 -0.18125830141E+01  0.14620061289E+02  0.51100000000E-03 0.  1.
        -12    1    3    3    0    0  0.52115669498E+01  0.16207529853E+01 -0.13994428977E-01  0.54577894935E+01  0.00000000000E+00 0.  1.
</event>
<event>
 7    1  0.3708346E-009  0.4614232E+02  0.7816164E-02  0.1320468E+00
        -11   -1    0    0    0    0  0.00000000000E+00  0.00000000000E+00  0.45593999997E+02  0.45594000000E+02  0.51100000000E-03 0.  1.
         11   -1    0    0    0    0 -0.00000000000E+00 -0.00000000000E+00 -0.45593999997E+02  0.45594000000E+02  0.51100000000E-03 0. -1.
    9900012    2    1    2    0    0 -0.45464497661E+01 -0.22653154783E+01 -0.44758369299E+02  0.46142317832E+02  0.10000000649E+02 0.  0.
        -12    1    1    2    0    0  0.45464497661E+01  0.22653154783E+01  0.44758369299E+02  0.45045682168E+02  0.00000000000E+00 0.  1.
         11    1    3    3    0    0 -0.42781245247E+01 -0.49327146932E+01 -0.17774594348E+02  0.18935950681E+02  0.51100000000E-03 0. -1.
        -11    1    3    3    0    0 -0.77236656518E+00  0.10084919785E+01 -0.18700059016E+02  0.18743153781E+02  0.51100000000E-03 0.  1.
         12    1    3    3    0    0  0.50404132379E+00  0.16589072364E+01 -0.82837159347E+01  0.84632133709E+01  0.00000000000E+00 0. -1.
</event>
<event>
 7    1  0.3708346E-009  0.4614232E+02  0.7816164E-02  0.1320468E+00
        -11   -1    0    0    0    0  0.00000000000E+00  0.00000000000E+00  0.45593999997E+02  0.45594000000E+02  0.51100000000E-03 0.  1.
         11   -1    0    0    0    0 -0.00000000000E+00 -0.00000000000E+00 -0.45593999997E+02  0.45594000000E+02  0.51100000000E-03 0. -1.
    9900012    2    1    2    0    0 -0.22805832531E+01 -0.32909152896E+02 -0.30674095979E+02  0.46142316872E+02  0.99999918941E+01 0.  0.
        -12    1    1    2    0    0  0.22805832531E+01  0.32909152896E+02  0.30674095979E+02  0.45045683128E+02  0.00000000000E+00 0.  1.
         11    1    3    3    0    0  0.51256938026E+00 -0.19406922239E+02 -0.18926681359E+02  0.27112923592E+02  0.51100000000E-03 0. -1.
        -11    1    3    3    0    0 -0.30359419492E+01 -0.50527612649E+01 -0.75877323360E+01  0.96083829119E+01  0.51100000000E-03 0.  1.
        -12    1    3    3    0    0  0.24278931582E+00 -0.84494693919E+01 -0.41596822842E+01  0.94210103684E+01  0.00000000000E+00 0.  1.
</event>
<event>
 7    1  0.3708346E-009  0.4614232E+02  0.7816164E-02  0.1320468E+00
        -11   -1    0    0    0    0  0.00000000000E+00  0.00000000000E+00  0.45593999997E+02  0.45594000000E+02  0.51100000000E-03 0.  1.
         11   -1    0    0    0    0 -0.00000000000E+00 -0.00000000000E+00 -0.45593999997E+02  0.45594000000E+02  0.51100000000E-03 0. -1.
    9900012    2    1    2    0    0  0.91642995097E+01  0.39707154561E+01 -0.43924509196E+02  0.46142317911E+02  0.10000001370E+02 0.  0.
        -12    1    1    2    0    0 -0.91642995097E+01 -0.39707154561E+01  0.43924509196E+02  0.45045682089E+02  0.00000000000E+00 0.  1.
         11    1    3    3    0    0  0.10531454766E+01 -0.34820212525E+00 -0.31246929813E+00  0.11523877118E+01  0.51100000000E-03 0.  1.
        -11    1    3    3    0    0  0.49659898785E+01 -0.72375974104E+00 -0.17178838182E+02  0.17896853499E+02  0.51100000000E-03 0. -1.
         12    1    3    3    0    0  0.31451641546E+01  0.50426773224E+01 -0.26433201716E+02  0.27093076701E+02  0.00000000000E+00 0. -1.
</event>
<event>
 7    1  0.3708346E-009  0.4614232E+02  0.7816164E-02  0.1320468E+00
        -11   -1    0    0    0    0  0.00000000000E+00  0.00000000000E+00  0.45593999997E+02  0.45594000000E+02  0.51100000000E-03 0.  1.
         11   -1    0    0    0    0 -0.00000000000E+00 -0.00000000000E+00 -0.45593999997E+02  0.45594000000E+02  0.51100000000E-03 0. -1.
    9900012    2    1    2    0    0 -0.11725972299E+02 -0.28889535352E+02 -0.32511680761E+02  0.46142322459E+02  0.10000042840E+02 0.  0.
        -12    1    1    2    0    0  0.11725972299E+02  0.28889535352E+02  0.32511680761E+02  0.45045677541E+02  0.00000000000E+00 0.  1.
         11    1    3    3    0    0 -0.42870697228E+01 -0.11453983472E+02 -0.11038836049E+02  0.16475090463E+02  0.51100000000E-03 0. -1.
        -11    1    3    3    0    0 -0.29584446341E+01 -0.11902437940E+02 -0.86758105343E+01  0.15022986130E+02  0.51100000000E-03 0.  1.
        -12    1    3    3    0    0 -0.44804579424E+01 -0.55331139397E+01 -0.12797034177E+02  0.14644245866E+02  0.00000000000E+00 0.  1.
</event>
<event>
 7    1  0.3708346E-009  0.4614232E+02  0.7816164E-02  0.1320468E+00
        -11   -1    0    0    0    0  0.00000000000E+00  0.00000000000E+00  0.45593999997E+02  0.45594000000E+02  0.51100000000E-03 0. -1.
         11   -1    0    0    0    0 -0.00000000000E+00 -0.00000000000E+00 -0.45593999997E+02  0.45594000000E+02  0.51100000000E-03 0.  1.
    9900012    2    1    2    0    0 -0.31204418325E+01 -0.36454689606E+02 -0.26276068282E+02  0.46142319676E+02  0.10000017461E+02 0.  0.
        -12    1    1    2    0    0  0.31204418325E+01  0.36454689606E+02  0.26276068282E+02  0.45045680324E+02  0.00000000000E+00 0.  1.
         11    1    3    3    0    0 -0.53852999886E+00 -0.24579417784E+02 -0.22472793090E+02  0.33308620847E+02  0.51100000000E-03 0. -1.
        -11    1    3    3    0    0 -0.24191274411E+00 -0.16527061763E+01  0.23091303017E-01  0.16704768631E+01  0.51100000000E-03 0.  1.
         12    1    3    3    0    0 -0.23399990895E+01 -0.10222565645E+02 -0.38263664952E+01  0.11163221966E+02  0.00000000000E+00 0. -1.
</event>
<event>
 7    1  0.3708346E-009  0.4614232E+02  0.7816164E-02  0.1320468E+00
        -11   -1    0    0    0    0  0.00000000000E+00  0.00000000000E+00  0.45593999997E+02  0.45594000000E+02  0.51100000000E-03 0.  1.
         11   -1    0    0    0    0 -0.00000000000E+00 -0.00000000000E+00 -0.45593999997E+02  0.45594000000E+02  0.51100000000E-03 0. -1.
    9900012    2    1    2    0    0  0.31232166640E+02 -0.29899156168E+02 -0.12637476716E+02  0.46142316629E+02  0.99999896775E+01 0.  0.
        -12    1    1    2    0    0 -0.31232166640E+02  0.29899156168E+02  0.12637476716E+02  0.45045683371E+02  0.00000000000E+00 0.  1.
         11    1    3    3    0    0  0.46897180613E+01 -0.53771204046E+01 -0.20750741852E+01  0.74305324490E+01  0.51100000000E-03 0. -1.
        -11    1    3    3    0    0  0.18993097280E+02 -0.17073493599E+02 -0.30614337889E+01  0.25721864339E+02  0.51100000000E-03 0.  1.
        -12    1    3    3    0    0  0.75493512984E+01 -0.74485421643E+01 -0.75009687424E+01  0.12989919841E+02  0.00000000000E+00 0.  1.
</event>
<event>
 7    1  0.3708346E-009  0.4614232E+02  0.7816164E-02  0.1320468E+00
        -11   -1    0    0    0    0  0.00000000000E+00  0.00000000000E+00  0.45593999997E+02  0.45594000000E+02  0.51100000000E-03 0. -1.
         11   -1    0    0    0    0 -0.00000000000E+00 -0.00000000000E+00 -0.45593999997E+02  0.45594000000E+02  0.51100000000E-03 0.  1.
    9900012    2    1    2    0    0 -0.30639271241E+02  0.25966547997E+02  0.20398206588E+02  0.46142318863E+02  0.10000010052E+02 0.  0.
        -12    1    1    2    0    0  0.30639271241E+02 -0.25966547997E+02 -0.20398206588E+02  0.45045681137E+02  0.00000000000E+00 0.  1.
         11    1    3    3    0    0 -0.49213129897E+01  0.31861972060E+01  0.36835619258E+01  0.69238575159E+01  0.51100000000E-03 0. -1.
        -11    1    3    3    0    0 -0.14090996942E+02  0.14919853610E+02  0.14210954987E+02  0.24962160733E+02  0.51100000000E-03 0.  1.
        -12    1    3    3    0    0 -0.11626961310E+02  0.78604971807E+01  0.25036896753E+01  0.14256300615E+02  0.00000000000E+00 0.  1.
</event>
<event>
 7    1  0.3708346E-009  0.4614232E+02  0.7816164E-02  0.1320468E+00
        -11   -1    0    0    0    0  0.00000000000E+00  0.00000000000E+00  0.45593999997E+02  0.45594000000E+02  0.51100000000E-03 0.  1.
         11   -1    0    0    0    0 -0.00000000000E+00 -0.00000000000E+00 -0.45593999997E+02  0.45594000000E+02  0.51100000000E-03 0. -1.
    9900012    2    1    2    0    0 -0.22172467746E+02  0.11235162224E+02 -0.37566824325E+02  0.46142317787E+02  0.10000000234E+02 0.  0.
        -12    1    1    2    0    0  0.22172467746E+02 -0.11235162224E+02  0.37566824325E+02  0.45045682213E+02  0.00000000000E+00 0.  1.
         11    1    3    3    0    0 -0.37824184733E+01  0.31949973153E+01 -0.99461629886E+01  0.11110394044E+02  0.51100000000E-03 0. -1.
        -11    1    3    3    0    0 -0.10316087466E+02  0.86126725238E+01 -0.16590663802E+02  0.21350642011E+02  0.51100000000E-03 0.  1.
        -12    1    3    3    0    0 -0.80739618073E+01 -0.57250761473E+00 -0.11029997534E+02  0.13681281732E+02  0.00000000000E+00 0.  1.
</event>
<event>
 7    1  0.3708346E-009  0.4614232E+02  0.7816164E-02  0.1320468E+00
        -11   -1    0    0    0    0  0.00000000000E+00  0.00000000000E+00  0.45593999997E+02  0.45594000000E+02  0.51100000000E-03 0. -1.
         11   -1    0    0    0    0 -0.00000000000E+00 -0.00000000000E+00 -0.45593999997E+02  0.45594000000E+02  0.51100000000E-03 0.  1.
    9900012    2    1    2    0    0 -0.42143039658E+02 -0.12155381768E+02  0.10262765505E+02  0.46142318150E+02  0.10000003542E+02 0.  0.
        -12    1    1    2    0    0  0.42143039658E+02  0.12155381768E+02 -0.10262765505E+02  0.45045681850E+02  0.00000000000E+00 0.  1.
         11    1    3    3    0    0 -0.20235810347E+02 -0.42061345210E+01  0.18095694932E+01  0.20747388511E+02  0.51100000000E-03 0. -1.
        -11    1    3    3    0    0 -0.26869358356E+01 -0.25779682099E+01  0.48797857836E-02  0.37236498693E+01  0.51100000000E-03 0.  1.
         12    1    3    3    0    0 -0.19220293476E+02 -0.53712790372E+01  0.84483162259E+01  0.21671279769E+02  0.00000000000E+00 0. -1.
</event>
<event>
 7    1  0.3708346E-009  0.4614232E+02  0.7816164E-02  0.1320468E+00
        -11   -1    0    0    0    0  0.00000000000E+00  0.00000000000E+00  0.45593999997E+02  0.45594000000E+02  0.51100000000E-03 0.  1.
         11   -1    0    0    0    0 -0.00000000000E+00 -0.00000000000E+00 -0.45593999997E+02  0.45594000000E+02  0.51100000000E-03 0. -1.
    9900012    2    1    2    0    0 -0.25221929161E+02  0.22104326854E+01 -0.37256969160E+02  0.46142317918E+02  0.10000001428E+02 0.  0.
        -12    1    1    2    0    0  0.25221929161E+02 -0.22104326854E+01  0.37256969160E+02  0.45045682082E+02  0.00000000000E+00 0.  1.
         11    1    3    3    0    0 -0.81116150238E+01 -0.17994670723E+01 -0.16935995637E+02  0.18864366634E+02  0.51100000000E-03 0. -1.
        -11    1    3    3    0    0 -0.34476821574E+00  0.41547366239E+00 -0.24608104866E+01  0.25193395958E+01  0.51100000000E-03 0.  1.
         12    1    3    3    0    0 -0.16765545921E+02  0.35944260953E+01 -0.17860163036E+02  0.24758611687E+02  0.00000000000E+00 0. -1.
</event>
<event>
 7    1  0.3708346E-009  0.4614232E+02  0.7816164E-02  0.1320468E+00
        -11   -1    0    0    0    0  0.00000000000E+00  0.00000000000E+00  0.45593999997E+02  0.45594000000E+02  0.51100000000E-03 0.  1.
         11   -1    0    0    0    0 -0.00000000000E+00 -0.00000000000E+00 -0.45593999997E+02  0.45594000000E+02  0.51100000000E-03 0. -1.
    9900012    2    1    2    0    0 -0.23019028776E+02  0.13494603159E+02 -0.36292334155E+02  0.46142317425E+02  0.99999969385E+01 0.  0.
        -12    1    1    2    0    0  0.23019028776E+02 -0.13494603159E+02  0.36292334155E+02  0.45045682575E+02  0.00000000000E+00 0.  1.
         11    1    3    3    0    0 -0.89882767778E+01  0.72308033577E+01 -0.21393345217E+02  0.24305325681E+02  0.51100000000E-03 0. -1.
        -11    1    3    3    0    0 -0.50230694097E+01  0.23807961602E+01 -0.26890623356E+01  0.61749877050E+01  0.51100000000E-03 0.  1.
         12    1    3    3    0    0 -0.90076825887E+01  0.38830036411E+01 -0.12209926602E+02  0.15662004039E+02  0.00000000000E+00 0. -1.
</event>
<event>
 7    1  0.3708346E-009  0.4614232E+02  0.7816164E-02  0.1320468E+00
        -11   -1    0    0    0    0  0.00000000000E+00  0.00000000000E+00  0.45593999997E+02  0.45594000000E+02  0.51100000000E-03 0.  1.
         11   -1    0    0    0    0 -0.00000000000E+00 -0.00000000000E+00 -0.45593999997E+02  0.45594000000E+02  0.51100000000E-03 0. -1.
    9900012    2    1    2    0    0  0.74795287449E+01  0.41838194746E+02 -0.14924326099E+02  0.46142318749E+02  0.10000009007E+02 0.  0.
        -12    1    1    2    0    0 -0.74795287449E+01 -0.41838194746E+02  0.14924326099E+02  0.45045681251E+02  0.00000000000E+00 0.  1.
         11    1    3    3    0    0  0.66199119813E+01  0.23792390802E+02 -0.70630411557E+01  0.25686331878E+02  0.51100000000E-03 0. -1.
        -11    1    3    3    0    0  0.90535328815E+00  0.18154699786E+02 -0.68301805333E+01  0.19418139851E+02  0.51100000000E-03 0.  1.
         12    1    3    3    0    0 -0.45736524517E-01 -0.10889584118E+00 -0.10311044097E+01  0.10378470204E+01  0.00000000000E+00 0. -1.
</event>
<event>
 7    1  0.3708346E-009  0.4614232E+02  0.7816164E-02  0.1320468E+00
        -11   -1    0    0    0    0  0.00000000000E+00  0.00000000000E+00  0.45593999997E+02  0.45594000000E+02  0.51100000000E-03 0.  1.
         11   -1    0    0    0    0 -0.00000000000E+00 -0.00000000000E+00 -0.45593999997E+02  0.45594000000E+02  0.51100000000E-03 0. -1.
    9900012    2    1    2    0    0  0.86605634100E+01 -0.93143971403E+01 -0.43212846423E+02  0.46142318202E+02  0.10000004019E+02 0.  0.
        -12    1    1    2    0    0 -0.86605634100E+01  0.93143971403E+01  0.43212846423E+02  0.45045681798E+02  0.00000000000E+00 0.  1.
         11    1    3    3    0    0  0.35340624737E+01 -0.50576655716E+01 -0.23886247436E+02  0.24670273518E+02  0.51100000000E-03 0. -1.
        -11    1    3    3    0    0  0.12128612039E+01  0.50784613182E+00 -0.14388041990E+00  0.13227402730E+01  0.51100000000E-03 0.  1.
        -12    1    3    3    0    0  0.39136397324E+01 -0.47645777006E+01 -0.19182718567E+02  0.20149304411E+02  0.00000000000E+00 0.  1.
</event>
<event>
 7    1  0.3708346E-009  0.4614232E+02  0.7816164E-02  0.1320468E+00
        -11   -1    0    0    0    0  0.00000000000E+00  0.00000000000E+00  0.45593999997E+02  0.45594000000E+02  0.51100000000E-03 0.  1.
         11   -1    0    0    0    0 -0.00000000000E+00 -0.00000000000E+00 -0.45593999997E+02  0.45594000000E+02  0.51100000000E-03 0. -1.
    9900012    2    1    2    0    0 -0.16181950049E+02 -0.41331340802E+02 -0.76797350746E+01  0.46142316847E+02  0.99999916663E+01 0.  0.
        -12    1    1    2    0    0  0.16181950049E+02  0.41331340802E+02  0.76797350746E+01  0.45045683153E+02  0.00000000000E+00 0.  1.
         11    1    3    3    0    0 -0.11535159068E+02 -0.29825628172E+02 -0.62792989686E+01  0.32589225004E+02  0.51100000000E-03 0. -1.
        -11    1    3    3    0    0 -0.10418142543E+01 -0.59223165692E+01  0.16571613189E+01  0.62374188880E+01  0.51100000000E-03 0.  1.
         12    1    3    3    0    0 -0.36049767262E+01 -0.55833960608E+01 -0.30575974249E+01  0.73156729548E+01  0.00000000000E+00 0. -1.
</event>
<event>
 7    1  0.3708346E-009  0.4614232E+02  0.7816164E-02  0.1320468E+00
        -11   -1    0    0    0    0  0.00000000000E+00  0.00000000000E+00  0.45593999997E+02  0.45594000000E+02  0.51100000000E-03 0.  1.
         11   -1    0    0    0    0 -0.00000000000E+00 -0.00000000000E+00 -0.45593999997E+02  0.45594000000E+02  0.51100000000E-03 0. -1.
    9900012    2    1    2    0    0 -0.27956796657E+01  0.44949748184E+02 -0.90432212361E+00  0.46142317797E+02  0.10000000332E+02 0.  0.
        -12    1    1    2    0    0  0.27956796657E+01 -0.44949748184E+02  0.90432212361E+00  0.45045682203E+02  0.00000000000E+00 0.  1.
         11    1    3    3    0    0 -0.40794026089E+01  0.16757298750E+02 -0.36491678830E+00  0.17250558007E+02  0.51100000000E-03 0. -1.
        -11    1    3    3    0    0 -0.72594315157E+00  0.76927016270E+01 -0.26900971821E+01  0.81817647786E+01  0.51100000000E-03 0.  1.
         12    1    3    3    0    0  0.20096660948E+01  0.20499747807E+02  0.21506918468E+01  0.20709995012E+02  0.00000000000E+00 0. -1.
</event>
<event>
 7    1  0.3708346E-009  0.4614232E+02  0.7816164E-02  0.1320468E+00
        -11   -1    0    0    0    0  0.00000000000E+00  0.00000000000E+00  0.45593999997E+02  0.45594000000E+02  0.51100000000E-03 0.  1.
         11   -1    0    0    0    0 -0.00000000000E+00 -0.00000000000E+00 -0.45593999997E+02  0.45594000000E+02  0.51100000000E-03 0. -1.
    9900012    2    1    2    0    0  0.24954771844E+02  0.35659353994E+02 -0.11609625855E+02  0.46142316772E+02  0.99999909768E+01 0.  0.
        -12    1    1    2    0    0 -0.24954771844E+02 -0.35659353994E+02  0.11609625855E+02  0.45045683228E+02  0.00000000000E+00 0.  1.
         11    1    3    3    0    0  0.62252629208E+01  0.77663427817E+01 -0.24802594793E+01  0.10257761256E+02  0.51100000000E-03 0. -1.
        -11    1    3    3    0    0  0.11608290824E+01  0.69989870979E+00 -0.24914527042E+01  0.28363214206E+01  0.51100000000E-03 0.  1.
        -12    1    3    3    0    0  0.17568679841E+02  0.27193112502E+02 -0.66379136712E+01  0.33048234095E+02  0.00000000000E+00 0.  1.
</event>
<event>
 7    1  0.3708346E-009  0.4614232E+02  0.7816164E-02  0.1320468E+00
        -11   -1    0    0    0    0  0.00000000000E+00  0.00000000000E+00  0.45593999997E+02  0.45594000000E+02  0.51100000000E-03 0. -1.
         11   -1    0    0    0    0 -0.00000000000E+00 -0.00000000000E+00 -0.45593999997E+02  0.45594000000E+02  0.51100000000E-03 0.  1.
    9900012    2    1    2    0    0 -0.16093988536E+02  0.12692395899E+02  0.40112342939E+02  0.46142318335E+02  0.10000005229E+02 0.  0.
        -12    1    1    2    0    0  0.16093988536E+02 -0.12692395899E+02 -0.40112342939E+02  0.45045681665E+02  0.00000000000E+00 0.  1.
         11    1    3    3    0    0 -0.40540318684E+01 -0.12127637204E+00  0.11732228608E+02  0.12413503563E+02  0.51100000000E-03 0. -1.
        -11    1    3    3    0    0 -0.67224317247E+01  0.42353402279E+01  0.10134705152E+02  0.12877944087E+02  0.51100000000E-03 0.  1.
         12    1    3    3    0    0 -0.53175249424E+01  0.85783320429E+01  0.18245409180E+02  0.20850870684E+02  0.00000000000E+00 0. -1.
</event>
<event>
 7    1  0.3708346E-009  0.4614232E+02  0.7816164E-02  0.1320468E+00
        -11   -1    0    0    0    0  0.00000000000E+00  0.00000000000E+00  0.45593999997E+02  0.45594000000E+02  0.51100000000E-03 0.  1.
         11   -1    0    0    0    0 -0.00000000000E+00 -0.00000000000E+00 -0.45593999997E+02  0.45594000000E+02  0.51100000000E-03 0. -1.
    9900012    2    1    2    0    0 -0.22409922020E+02  0.20101347432E+00 -0.39075165156E+02  0.46142317151E+02  0.99999944395E+01 0.  0.
        -12    1    1    2    0    0  0.22409922020E+02 -0.20101347432E+00  0.39075165156E+02  0.45045682849E+02  0.00000000000E+00 0.  1.
         11    1    3    3    0    0 -0.98329515647E+01  0.14598735774E+01 -0.11583823033E+02  0.15264439841E+02  0.51100000000E-03 0. -1.
        -11    1    3    3    0    0 -0.36654921691E+01 -0.34882467996E+00 -0.28419226470E+01  0.46512402746E+01  0.51100000000E-03 0.  1.
         12    1    3    3    0    0 -0.89114782858E+01 -0.91003542318E+00 -0.24649419476E+02  0.26226637036E+02  0.00000000000E+00 0. -1.
</event>
<event>
 7    1  0.3708346E-009  0.4614232E+02  0.7816164E-02  0.1320468E+00
        -11   -1    0    0    0    0  0.00000000000E+00  0.00000000000E+00  0.45593999997E+02  0.45594000000E+02  0.51100000000E-03 0.  1.
         11   -1    0    0    0    0 -0.00000000000E+00 -0.00000000000E+00 -0.45593999997E+02  0.45594000000E+02  0.51100000000E-03 0. -1.
    9900012    2    1    2    0    0  0.31069495837E+02  0.21150592196E+02 -0.24828457344E+02  0.46142318566E+02  0.10000007340E+02 0.  0.
        -12    1    1    2    0    0 -0.31069495837E+02 -0.21150592196E+02  0.24828457344E+02  0.45045681434E+02  0.00000000000E+00 0.  1.
         11    1    3    3    0    0  0.14333908049E+02  0.52172022913E+01 -0.13002092885E+02  0.20043316576E+02  0.51100000000E-03 0. -1.
        -11    1    3    3    0    0  0.39245012406E+01  0.44462284738E+01 -0.42601517531E+01  0.73020237502E+01  0.51100000000E-03 0.  1.
         12    1    3    3    0    0  0.12811086547E+02  0.11487161431E+02 -0.75662127059E+01  0.18796978240E+02  0.00000000000E+00 0. -1.
</event>
<event>
 7    1  0.3708346E-009  0.4614232E+02  0.7816164E-02  0.1320468E+00
        -11   -1    0    0    0    0  0.00000000000E+00  0.00000000000E+00  0.45593999997E+02  0.45594000000E+02  0.51100000000E-03 0. -1.
         11   -1    0    0    0    0 -0.00000000000E+00 -0.00000000000E+00 -0.45593999997E+02  0.45594000000E+02  0.51100000000E-03 0.  1.
    9900012    2    1    2    0    0  0.31613184088E+02  0.25331686763E+02  0.19698353368E+02  0.46142324427E+02  0.10000060784E+02 0.  0.
        -12    1    1    2    0    0 -0.31613184088E+02 -0.25331686763E+02 -0.19698353368E+02  0.45045675573E+02  0.00000000000E+00 0.  1.
         11    1    3    3    0    0  0.56862030620E+01  0.40476917451E+01  0.81714654302E+00  0.70274065244E+01  0.51100000000E-03 0. -1.
        -11    1    3    3    0    0  0.11942092940E+02  0.13709589988E+02  0.12007879499E+02  0.21788887346E+02  0.51100000000E-03 0.  1.
        -12    1    3    3    0    0  0.13984888086E+02  0.75744050291E+01  0.68733273254E+01  0.17326030556E+02  0.00000000000E+00 0.  1.
</event>
<event>
 7    1  0.3708346E-009  0.4614232E+02  0.7816164E-02  0.1320468E+00
        -11   -1    0    0    0    0  0.00000000000E+00  0.00000000000E+00  0.45593999997E+02  0.45594000000E+02  0.51100000000E-03 0.  1.
         11   -1    0    0    0    0 -0.00000000000E+00 -0.00000000000E+00 -0.45593999997E+02  0.45594000000E+02  0.51100000000E-03 0. -1.
    9900012    2    1    2    0    0 -0.16697240591E+02  0.38365628953E+02 -0.16685141878E+02  0.46142319987E+02  0.10000020296E+02 0.  0.
        -12    1    1    2    0    0  0.16697240591E+02 -0.38365628953E+02  0.16685141878E+02  0.45045680013E+02  0.00000000000E+00 0.  1.
         11    1    3    3    0    0 -0.57079938816E+01  0.12340645269E+02 -0.52350435628E+01  0.14569776977E+02  0.51100000000E-03 0. -1.
        -11    1    3    3    0    0 -0.12072864375E+01  0.13156880699E+02 -0.60388313879E+01  0.14526821230E+02  0.51100000000E-03 0.  1.
        -12    1    3    3    0    0 -0.97819602721E+01  0.12868102986E+02 -0.54112669274E+01  0.17045721779E+02  0.00000000000E+00 0.  1.
</event>
<event>
 7    1  0.3708346E-009  0.4614232E+02  0.7816164E-02  0.1320468E+00
        -11   -1    0    0    0    0  0.00000000000E+00  0.00000000000E+00  0.45593999997E+02  0.45594000000E+02  0.51100000000E-03 0. -1.
         11   -1    0    0    0    0 -0.00000000000E+00 -0.00000000000E+00 -0.45593999997E+02  0.45594000000E+02  0.51100000000E-03 0.  1.
    9900012    2    1    2    0    0  0.12960757909E+02 -0.93792776577E+01  0.42108924036E+02  0.46142316761E+02  0.99999908819E+01 0.  0.
        -12    1    1    2    0    0 -0.12960757909E+02  0.93792776577E+01 -0.42108924036E+02  0.45045683239E+02  0.00000000000E+00 0.  1.
         11    1    3    3    0    0  0.76601315002E+01 -0.46230643391E-01  0.17622902243E+02  0.19215786104E+02  0.51100000000E-03 0. -1.
        -11    1    3    3    0    0 -0.28272526511E+00 -0.77415011526E+00  0.89154086932E+00  0.12141199938E+01  0.51100000000E-03 0.  1.
         12    1    3    3    0    0  0.55833516736E+01 -0.85588968991E+01  0.23594480924E+02  0.25712410663E+02  0.00000000000E+00 0. -1.
</event>
<event>
 7    1  0.3708346E-009  0.4614232E+02  0.7816164E-02  0.1320468E+00
        -11   -1    0    0    0    0  0.00000000000E+00  0.00000000000E+00  0.45593999997E+02  0.45594000000E+02  0.51100000000E-03 0. -1.
         11   -1    0    0    0    0 -0.00000000000E+00 -0.00000000000E+00 -0.45593999997E+02  0.45594000000E+02  0.51100000000E-03 0.  1.
    9900012    2    1    2    0    0  0.29452716910E+02 -0.26969434489E+02  0.20839879595E+02  0.46142317503E+02  0.99999976491E+01 0.  0.
        -12    1    1    2    0    0 -0.29452716910E+02  0.26969434489E+02 -0.20839879595E+02  0.45045682497E+02  0.00000000000E+00 0.  1.
         11    1    3    3    0    0  0.22089002646E+01 -0.18606731584E+01  0.41521140418E+01  0.50578054786E+01  0.51100000000E-03 0. -1.
        -11    1    3    3    0    0  0.10060359481E+02 -0.65965237612E+01  0.31896078794E+01  0.12445824894E+02  0.51100000000E-03 0.  1.
         12    1    3    3    0    0  0.17183457165E+02 -0.18512237569E+02  0.13498157674E+02  0.28638687130E+02  0.00000000000E+00 0. -1.
</event>
<event>
 7    1  0.3708346E-009  0.4614232E+02  0.7816164E-02  0.1320468E+00
        -11   -1    0    0    0    0  0.00000000000E+00  0.00000000000E+00  0.45593999997E+02  0.45594000000E+02  0.51100000000E-03 0.  1.
         11   -1    0    0    0    0 -0.00000000000E+00 -0.00000000000E+00 -0.45593999997E+02  0.45594000000E+02  0.51100000000E-03 0. -1.
    9900012    2    1    2    0    0 -0.64301886979E+01  0.14216850762E+02 -0.42256919595E+02  0.46142318454E+02  0.10000006316E+02 0.  0.
        -12    1    1    2    0    0  0.64301886979E+01 -0.14216850762E+02  0.42256919595E+02  0.45045681546E+02  0.00000000000E+00 0.  1.
         11    1    3    3    0    0 -0.20778351197E+01  0.70565966124E+01 -0.31731687281E+02  0.32573193465E+02  0.51100000000E-03 0. -1.
        -11    1    3    3    0    0 -0.51460760217E+00  0.41340228057E+00 -0.28351814584E+00  0.71840464220E+00  0.51100000000E-03 0.  1.
         12    1    3    3    0    0 -0.38377459760E+01  0.67468518690E+01 -0.10241714168E+02  0.12850720347E+02  0.00000000000E+00 0. -1.
</event>
<event>
 7    1  0.3708346E-009  0.4614232E+02  0.7816164E-02  0.1320468E+00
        -11   -1    0    0    0    0  0.00000000000E+00  0.00000000000E+00  0.45593999997E+02  0.45594000000E+02  0.51100000000E-03 0.  1.
         11   -1    0    0    0    0 -0.00000000000E+00 -0.00000000000E+00 -0.45593999997E+02  0.45594000000E+02  0.51100000000E-03 0. -1.
    9900012    2    1    2    0    0 -0.83874745033E+01 -0.24986414438E+01 -0.44187336003E+02  0.46142316515E+02  0.99999886332E+01 0.  0.
        -12    1    1    2    0    0  0.83874745033E+01  0.24986414438E+01  0.44187336003E+02  0.45045683485E+02  0.00000000000E+00 0.  1.
         11    1    3    3    0    0 -0.43266594900E+01 -0.41823706479E+01 -0.16421921680E+02  0.17489760390E+02  0.51100000000E-03 0. -1.
        -11    1    3    3    0    0 -0.78234049529E-02  0.90882253933E+00 -0.18351430635E+02  0.18373922451E+02  0.51100000000E-03 0.  1.
         12    1    3    3    0    0 -0.40529916084E+01  0.77490666483E+00 -0.94139836886E+01  0.10278633674E+02  0.00000000000E+00 0. -1.
</event>
<event>
 7    1  0.3708346E-009  0.4614232E+02  0.7816164E-02  0.1320468E+00
        -11   -1    0    0    0    0  0.00000000000E+00  0.00000000000E+00  0.45593999997E+02  0.45594000000E+02  0.51100000000E-03 0. -1.
         11   -1    0    0    0    0 -0.00000000000E+00 -0.00000000000E+00 -0.45593999997E+02  0.45594000000E+02  0.51100000000E-03 0.  1.
    9900012    2    1    2    0    0  0.22408763558E+02  0.10723348228E+02  0.37576197967E+02  0.46142317243E+02  0.99999952762E+01 0.  0.
        -12    1    1    2    0    0 -0.22408763558E+02 -0.10723348228E+02 -0.37576197967E+02  0.45045682757E+02  0.00000000000E+00 0.  1.
         11    1    3    3    0    0  0.15108743512E+01  0.13762753244E+01  0.89463885698E+01  0.91768591455E+01  0.51100000000E-03 0. -1.
        -11    1    3    3    0    0  0.72245490319E+01  0.43942416381E+01  0.74265976869E+01  0.11254235725E+02  0.51100000000E-03 0.  1.
         12    1    3    3    0    0  0.13673340175E+02  0.49528312655E+01  0.21203211710E+02  0.25711222373E+02  0.00000000000E+00 0. -1.
</event>
<event>
 7    1  0.3708346E-009  0.4614232E+02  0.7816164E-02  0.1320468E+00
        -11   -1    0    0    0    0  0.00000000000E+00  0.00000000000E+00  0.45593999997E+02  0.45594000000E+02  0.51100000000E-03 0.  1.
         11   -1    0    0    0    0 -0.00000000000E+00 -0.00000000000E+00 -0.45593999997E+02  0.45594000000E+02  0.51100000000E-03 0. -1.
    9900012    2    1    2    0    0 -0.32368171999E+02  0.16339148750E+01 -0.31284907262E+02  0.46142315870E+02  0.99999827537E+01 0.  0.
        -12    1    1    2    0    0  0.32368171999E+02 -0.16339148750E+01  0.31284907262E+02  0.45045684130E+02  0.00000000000E+00 0.  1.
         11    1    3    3    0    0 -0.50011494874E+01  0.10165080607E+01 -0.56926044187E+01  0.76452946419E+01  0.51100000000E-03 0. -1.
        -11    1    3    3    0    0 -0.25717755524E+02 -0.68965263596E+00 -0.20203105009E+02  0.32711527359E+02  0.51100000000E-03 0.  1.
        -12    1    3    3    0    0 -0.16492669880E+01  0.13070594503E+01 -0.53891978343E+01  0.57854938684E+01  0.00000000000E+00 0.  1.
</event>
<event>
 7    1  0.3708346E-009  0.4614232E+02  0.7816164E-02  0.1320468E+00
        -11   -1    0    0    0    0  0.00000000000E+00  0.00000000000E+00  0.45593999997E+02  0.45594000000E+02  0.51100000000E-03 0.  1.
         11   -1    0    0    0    0 -0.00000000000E+00 -0.00000000000E+00 -0.45593999997E+02  0.45594000000E+02  0.51100000000E-03 0. -1.
    9900012    2    1    2    0    0  0.20498292840E+02  0.18659765263E+02 -0.35506997210E+02  0.46142315413E+02  0.99999785926E+01 0.  0.
        -12    1    1    2    0    0 -0.20498292840E+02 -0.18659765263E+02  0.35506997210E+02  0.45045684587E+02  0.00000000000E+00 0.  1.
         11    1    3    3    0    0  0.12194499005E+02  0.13115498920E+02 -0.26203626577E+02  0.31738811634E+02  0.51100000000E-03 0. -1.
        -11    1    3    3    0    0  0.80742664077E+01  0.46245931773E+01 -0.96395042074E+01  0.13397786448E+02  0.51100000000E-03 0.  1.
        -12    1    3    3    0    0  0.22952742667E+00  0.91967316545E+00  0.33613357435E+00  0.10057173314E+01  0.00000000000E+00 0.  1.
</event>
<event>
 7    1  0.3708346E-009  0.4614232E+02  0.7816164E-02  0.1320468E+00
        -11   -1    0    0    0    0  0.00000000000E+00  0.00000000000E+00  0.45593999997E+02  0.45594000000E+02  0.51100000000E-03 0.  1.
         11   -1    0    0    0    0 -0.00000000000E+00 -0.00000000000E+00 -0.45593999997E+02  0.45594000000E+02  0.51100000000E-03 0. -1.
    9900012    2    1    2    0    0 -0.17921148608E+02  0.48400118499E+01 -0.41042907163E+02  0.46142317515E+02  0.99999977594E+01 0.  0.
        -12    1    1    2    0    0  0.17921148608E+02 -0.48400118499E+01  0.41042907163E+02  0.45045682485E+02  0.00000000000E+00 0.  1.
         11    1    3    3    0    0 -0.38942569607E+01  0.15359345913E+01 -0.74205297961E+01  0.85198940757E+01  0.51100000000E-03 0. -1.
        -11    1    3    3    0    0 -0.12151226201E+02  0.12597733030E+01 -0.17990213143E+02  0.21745967354E+02  0.51100000000E-03 0.  1.
        -12    1    3    3    0    0 -0.18756654459E+01  0.20443039556E+01 -0.15632164223E+02  0.15876456085E+02  0.00000000000E+00 0.  1.
</event>
<event>
 7    1  0.3708346E-009  0.4614232E+02  0.7816164E-02  0.1320468E+00
        -11   -1    0    0    0    0  0.00000000000E+00  0.00000000000E+00  0.45593999997E+02  0.45594000000E+02  0.51100000000E-03 0.  1.
         11   -1    0    0    0    0 -0.00000000000E+00 -0.00000000000E+00 -0.45593999997E+02  0.45594000000E+02  0.51100000000E-03 0. -1.
    9900012    2    1    2    0    0  0.25506687211E+02 -0.17937973574E+02 -0.32507714783E+02  0.46142317534E+02  0.99999979290E+01 0.  0.
        -12    1    1    2    0    0 -0.25506687211E+02  0.17937973574E+02  0.32507714783E+02  0.45045682466E+02  0.00000000000E+00 0.  1.
         11    1    3    3    0    0  0.43863834705E+01 -0.74803734123E+01 -0.85890635130E+01  0.12205259466E+02  0.51100000000E-03 0. -1.
        -11    1    3    3    0    0  0.20060264964E+02 -0.83754124883E+01 -0.21541759768E+02  0.30604071281E+02  0.51100000000E-03 0.  1.
        -12    1    3    3    0    0  0.10600387763E+01 -0.20821876731E+01 -0.23768915016E+01  0.33329867872E+01  0.00000000000E+00 0.  1.
</event>
<event>
 7    1  0.3708346E-009  0.4614232E+02  0.7816164E-02  0.1320468E+00
        -11   -1    0    0    0    0  0.00000000000E+00  0.00000000000E+00  0.45593999997E+02  0.45594000000E+02  0.51100000000E-03 0. -1.
         11   -1    0    0    0    0 -0.00000000000E+00 -0.00000000000E+00 -0.45593999997E+02  0.45594000000E+02  0.51100000000E-03 0.  1.
    9900012    2    1    2    0    0 -0.55797427070E+01 -0.28755813002E+02  0.34221092622E+02  0.46142317739E+02  0.99999997981E+01 0.  0.
        -12    1    1    2    0    0  0.55797427070E+01  0.28755813002E+02 -0.34221092622E+02  0.45045682261E+02  0.00000000000E+00 0.  1.
         11    1    3    3    0    0 -0.59243259052E+01 -0.12923219795E+02  0.15027028298E+02  0.20686198951E+02  0.51100000000E-03 0. -1.
        -11    1    3    3    0    0  0.20796987705E+01 -0.10218916941E+02  0.94261145755E+01  0.14057135080E+02  0.51100000000E-03 0.  1.
         12    1    3    3    0    0 -0.17351155722E+01 -0.56136762663E+01  0.97679497487E+01  0.11398983708E+02  0.00000000000E+00 0. -1.
</event>
<event>
 7    1  0.3708346E-009  0.4614232E+02  0.7816164E-02  0.1320468E+00
        -11   -1    0    0    0    0  0.00000000000E+00  0.00000000000E+00  0.45593999997E+02  0.45594000000E+02  0.51100000000E-03 0.  1.
         11   -1    0    0    0    0 -0.00000000000E+00 -0.00000000000E+00 -0.45593999997E+02  0.45594000000E+02  0.51100000000E-03 0. -1.
    9900012    2    1    2    0    0  0.30734318488E+02  0.17953045230E+02 -0.27608030276E+02  0.46142317613E+02  0.99999986524E+01 0.  0.
        -12    1    1    2    0    0 -0.30734318488E+02 -0.17953045230E+02  0.27608030276E+02  0.45045682387E+02  0.00000000000E+00 0.  1.
         11    1    3    3    0    0  0.69601760770E+01  0.47910052555E+01 -0.50147637402E+01  0.98257639913E+01  0.51100000000E-03 0. -1.
        -11    1    3    3    0    0  0.15887165548E+02  0.12534954488E+02 -0.18452975658E+02  0.27386847647E+02  0.51100000000E-03 0.  1.
        -12    1    3    3    0    0  0.78869768629E+01  0.62708548695E+00 -0.41402908787E+01  0.89297059752E+01  0.00000000000E+00 0.  1.
</event>
<event>
 7    1  0.3708346E-009  0.4614232E+02  0.7816164E-02  0.1320468E+00
        -11   -1    0    0    0    0  0.00000000000E+00  0.00000000000E+00  0.45593999997E+02  0.45594000000E+02  0.51100000000E-03 0.  1.
         11   -1    0    0    0    0 -0.00000000000E+00 -0.00000000000E+00 -0.45593999997E+02  0.45594000000E+02  0.51100000000E-03 0. -1.
    9900012    2    1    2    0    0  0.13087495104E+02 -0.29118888347E+02 -0.31779260174E+02  0.46142316923E+02  0.99999923615E+01 0.  0.
        -12    1    1    2    0    0 -0.13087495104E+02  0.29118888347E+02  0.31779260174E+02  0.45045683077E+02  0.00000000000E+00 0.  1.
         11    1    3    3    0    0  0.60855409398E+01 -0.64918255756E+01 -0.67771483302E+01  0.11185139587E+02  0.51100000000E-03 0. -1.
        -11    1    3    3    0    0 -0.39389958931E+00 -0.19957246532E+01 -0.45318703254E+01  0.49674865561E+01  0.51100000000E-03 0.  1.
         12    1    3    3    0    0  0.73958537536E+01 -0.20631338118E+02 -0.20470241518E+02  0.29989690780E+02  0.00000000000E+00 0. -1.
</event>
<event>
 7    1  0.3708346E-009  0.4614232E+02  0.7816164E-02  0.1320468E+00
        -11   -1    0    0    0    0  0.00000000000E+00  0.00000000000E+00  0.45593999997E+02  0.45594000000E+02  0.51100000000E-03 0. -1.
         11   -1    0    0    0    0 -0.00000000000E+00 -0.00000000000E+00 -0.45593999997E+02  0.45594000000E+02  0.51100000000E-03 0.  1.
    9900012    2    1    2    0    0  0.29341546361E+02  0.32320104624E+02  0.11117461756E+02  0.46142318058E+02  0.10000002705E+02 0.  0.
        -12    1    1    2    0    0 -0.29341546361E+02 -0.32320104624E+02 -0.11117461756E+02  0.45045681942E+02  0.00000000000E+00 0.  1.
         11    1    3    3    0    0  0.23464394637E+02  0.27312745097E+02  0.11114284559E+02  0.37684097202E+02  0.51100000000E-03 0. -1.
        -11    1    3    3    0    0  0.11823198126E+01  0.31892632887E+01 -0.29972391679E+00  0.34145446477E+01  0.51100000000E-03 0.  1.
        -12    1    3    3    0    0  0.46948319116E+01  0.18180962383E+01  0.30290111370E+00  0.50436762083E+01  0.00000000000E+00 0.  1.
</event>
<event>
 7    1  0.3708346E-009  0.4614232E+02  0.7816164E-02  0.1320468E+00
        -11   -1    0    0    0    0  0.00000000000E+00  0.00000000000E+00  0.45593999997E+02  0.45594000000E+02  0.51100000000E-03 0.  1.
         11   -1    0    0    0    0 -0.00000000000E+00 -0.00000000000E+00 -0.45593999997E+02  0.45594000000E+02  0.51100000000E-03 0. -1.
    9900012    2    1    2    0    0  0.43104423520E+02 -0.72388056309E+01 -0.10895956031E+02  0.46142317723E+02  0.99999996523E+01 0.  0.
        -12    1    1    2    0    0 -0.43104423520E+02  0.72388056309E+01  0.10895956031E+02  0.45045682277E+02  0.00000000000E+00 0.  1.
         11    1    3    3    0    0  0.40313336036E+02 -0.56580375115E+01 -0.90153891061E+01  0.41694792143E+02  0.51100000000E-03 0. -1.
        -11    1    3    3    0    0  0.85467122689E+00  0.40192509393E+00 -0.13149384329E+01  0.16189719055E+01  0.51100000000E-03 0.  1.
         12    1    3    3    0    0  0.19364162573E+01 -0.19826932134E+01 -0.56562849225E+00  0.28285536748E+01  0.00000000000E+00 0. -1.
</event>
<event>
 7    1  0.3708346E-009  0.4614232E+02  0.7816164E-02  0.1320468E+00
        -11   -1    0    0    0    0  0.00000000000E+00  0.00000000000E+00  0.45593999997E+02  0.45594000000E+02  0.51100000000E-03 0.  1.
         11   -1    0    0    0    0 -0.00000000000E+00 -0.00000000000E+00 -0.45593999997E+02  0.45594000000E+02  0.51100000000E-03 0. -1.
    9900012    2    1    2    0    0 -0.10643825952E+02 -0.69091411469E+00 -0.43764655497E+02  0.46142318032E+02  0.10000002470E+02 0.  0.
        -12    1    1    2    0    0  0.10643825952E+02  0.69091411469E+00  0.43764655497E+02  0.45045681968E+02  0.00000000000E+00 0.  1.
         11    1    3    3    0    0 -0.57681922674E+01 -0.14174989954E+00 -0.31765435675E+02  0.32285213937E+02  0.51100000000E-03 0. -1.
        -11    1    3    3    0    0 -0.51024779787E+01  0.55286856322E+00 -0.67004730202E+01  0.84402182512E+01  0.51100000000E-03 0.  1.
        -12    1    3    3    0    0  0.22684429420E+00 -0.11020327784E+01 -0.52987468016E+01  0.54168858439E+01  0.00000000000E+00 0.  1.
</event>
<event>
 7    1  0.3708346E-009  0.4614232E+02  0.7816164E-02  0.1320468E+00
        -11   -1    0    0    0    0  0.00000000000E+00  0.00000000000E+00  0.45593999997E+02  0.45594000000E+02  0.51100000000E-03 0. -1.
         11   -1    0    0    0    0 -0.00000000000E+00 -0.00000000000E+00 -0.45593999997E+02  0.45594000000E+02  0.51100000000E-03 0.  1.
    9900012    2    1    2    0    0  0.44846825324E+02  0.40199918374E+01 -0.13097379943E+01  0.46142317747E+02  0.99999998715E+01 0.  0.
        -12    1    1    2    0    0 -0.44846825324E+02 -0.40199918374E+01  0.13097379943E+01  0.45045682253E+02  0.00000000000E+00 0.  1.
         11    1    3    3    0    0  0.27422146254E+02  0.26558802160E+01 -0.21380964948E+01  0.27633299871E+02  0.51100000000E-03 0. -1.
        -11    1    3    3    0    0  0.14538047467E+02  0.57159709147E+00  0.29430538726E+01  0.14843958830E+02  0.51100000000E-03 0.  1.
        -12    1    3    3    0    0  0.28866316037E+01  0.79251452991E+00 -0.21146953722E+01  0.36650590463E+01  0.00000000000E+00 0.  1.
</event>
<event>
 7    1  0.3708346E-009  0.4614232E+02  0.7816164E-02  0.1320468E+00
        -11   -1    0    0    0    0  0.00000000000E+00  0.00000000000E+00  0.45593999997E+02  0.45594000000E+02  0.51100000000E-03 0. -1.
         11   -1    0    0    0    0 -0.00000000000E+00 -0.00000000000E+00 -0.45593999997E+02  0.45594000000E+02  0.51100000000E-03 0.  1.
    9900012    2    1    2    0    0 -0.93698934135E+01 -0.43498742841E+02  0.70127071457E+01  0.46142316601E+02  0.99999894249E+01 0.  0.
        -12    1    1    2    0    0  0.93698934135E+01  0.43498742841E+02 -0.70127071457E+01  0.45045683399E+02  0.00000000000E+00 0.  1.
         11    1    3    3    0    0 -0.15289178418E+01 -0.50166343350E+01  0.92504487359E+00  0.53254030925E+01  0.51100000000E-03 0. -1.
        -11    1    3    3    0    0 -0.66290362139E+01 -0.15936207683E+02 -0.59512439906E+00  0.17270234792E+02  0.51100000000E-03 0.  1.
        -12    1    3    3    0    0 -0.12119393578E+01 -0.22545900823E+02  0.66827866712E+01  0.23546678717E+02  0.00000000000E+00 0.  1.
</event>
<event>
 7    1  0.3708346E-009  0.4614232E+02  0.7816164E-02  0.1320468E+00
        -11   -1    0    0    0    0  0.00000000000E+00  0.00000000000E+00  0.45593999997E+02  0.45594000000E+02  0.51100000000E-03 0. -1.
         11   -1    0    0    0    0 -0.00000000000E+00 -0.00000000000E+00 -0.45593999997E+02  0.45594000000E+02  0.51100000000E-03 0.  1.
    9900012    2    1    2    0    0 -0.38158661257E+02 -0.12886040617E+02 -0.20173746528E+02  0.46142317403E+02  0.99999967333E+01 0.  0.
        -12    1    1    2    0    0  0.38158661257E+02  0.12886040617E+02  0.20173746528E+02  0.45045682597E+02  0.00000000000E+00 0.  1.
         11    1    3    3    0    0 -0.13483138303E+02 -0.49892700576E+01 -0.64399741844E+01  0.15753129910E+02  0.51100000000E-03 0. -1.
        -11    1    3    3    0    0 -0.13676017448E+02 -0.55915678647E+01 -0.11965581099E+02  0.19012475265E+02  0.51100000000E-03 0.  1.
        -12    1    3    3    0    0 -0.10999505506E+02 -0.23052026950E+01 -0.17681912446E+01  0.11376712228E+02  0.00000000000E+00 0.  1.
</event>
<event>
 7    1  0.3708346E-009  0.4614232E+02  0.7816164E-02  0.1320468E+00
        -11   -1    0    0    0    0  0.00000000000E+00  0.00000000000E+00  0.45593999997E+02  0.45594000000E+02  0.51100000000E-03 0.  1.
         11   -1    0    0    0    0 -0.00000000000E+00 -0.00000000000E+00 -0.45593999997E+02  0.45594000000E+02  0.51100000000E-03 0. -1.
    9900012    2    1    2    0    0  0.90520447554E+01  0.86679904088E+01 -0.43267079360E+02  0.46142315097E+02  0.99999757081E+01 0.  0.
        -12    1    1    2    0    0 -0.90520447554E+01 -0.86679904088E+01  0.43267079360E+02  0.45045684903E+02  0.00000000000E+00 0.  1.
         11    1    3    3    0    0 -0.46715248438E+00  0.50384025177E+01 -0.11819098871E+02  0.12856703690E+02  0.51100000000E-03 0.  1.
        -11    1    3    3    0    0  0.68397532475E+01  0.42242022404E+01 -0.21091213856E+02  0.22571340484E+02  0.51100000000E-03 0. -1.
         12    1    3    3    0    0  0.26794439923E+01 -0.59461434934E+00 -0.10356766633E+02  0.10714270924E+02  0.00000000000E+00 0. -1.
</event>
<event>
 7    1  0.3708346E-009  0.4614232E+02  0.7816164E-02  0.1320468E+00
        -11   -1    0    0    0    0  0.00000000000E+00  0.00000000000E+00  0.45593999997E+02  0.45594000000E+02  0.51100000000E-03 0.  1.
         11   -1    0    0    0    0 -0.00000000000E+00 -0.00000000000E+00 -0.45593999997E+02  0.45594000000E+02  0.51100000000E-03 0. -1.
    9900012    2    1    2    0    0 -0.29199377072E+01 -0.37360165343E+02 -0.24996109127E+02  0.46142318052E+02  0.10000002652E+02 0.  0.
        -12    1    1    2    0    0  0.29199377072E+01  0.37360165343E+02  0.24996109127E+02  0.45045681948E+02  0.00000000000E+00 0.  1.
         11    1    3    3    0    0 -0.42584817899E+01 -0.14220022468E+02 -0.12209815097E+02  0.19220387382E+02  0.51100000000E-03 0.  1.
        -11    1    3    3    0    0  0.18503512110E+01 -0.35833772826E+01 -0.31305749437E+01  0.51053787413E+01  0.51100000000E-03 0. -1.
        -12    1    3    3    0    0 -0.51180712833E+00 -0.19556765593E+02 -0.96557190855E+01  0.21816551929E+02  0.00000000000E+00 0.  1.
</event>
<event>
 7    1  0.3708346E-009  0.4614232E+02  0.7816164E-02  0.1320468E+00
        -11   -1    0    0    0    0  0.00000000000E+00  0.00000000000E+00  0.45593999997E+02  0.45594000000E+02  0.51100000000E-03 0.  1.
         11   -1    0    0    0    0 -0.00000000000E+00 -0.00000000000E+00 -0.45593999997E+02  0.45594000000E+02  0.51100000000E-03 0. -1.
    9900012    2    1    2    0    0 -0.28977371445E+02 -0.27018897000E+02 -0.21433726743E+02  0.46142317709E+02  0.99999995272E+01 0.  0.
        -12    1    1    2    0    0  0.28977371445E+02  0.27018897000E+02  0.21433726743E+02  0.45045682291E+02  0.00000000000E+00 0.  1.
         11    1    3    3    0    0 -0.15026061483E+02 -0.92163204761E+01 -0.10076871427E+02  0.20304344974E+02  0.51100000000E-03 0. -1.
        -11    1    3    3    0    0 -0.11084465615E+02 -0.11171546319E+02 -0.59921677236E+01  0.16839682284E+02  0.51100000000E-03 0.  1.
         12    1    3    3    0    0 -0.28668443470E+01 -0.66310302048E+01 -0.53646875925E+01  0.89982904516E+01  0.00000000000E+00 0. -1.
</event>
<event>
 7    1  0.3708346E-009  0.4614231E+02  0.7816164E-02  0.1320468E+00
        -11   -1    0    0    0    0  0.00000000000E+00  0.00000000000E+00  0.45593999997E+02  0.45594000000E+02  0.51100000000E-03 0.  1.
         11   -1    0    0    0    0 -0.00000000000E+00 -0.00000000000E+00 -0.45593999997E+02  0.45594000000E+02  0.51100000000E-03 0. -1.
    9900012    2    1    2    0    0 -0.30367952047E+01 -0.78761478803E+01 -0.44247688893E+02  0.46142314270E+02  0.99999681638E+01 0.  0.
        -12    1    1    2    0    0  0.30367952047E+01  0.78761478803E+01  0.44247688893E+02  0.45045685730E+02  0.00000000000E+00 0.  1.
         11    1    3    3    0    0  0.14241043650E+01 -0.64990284134E+01 -0.19300590636E+02  0.20415147385E+02  0.51100000000E-03 0. -1.
        -11    1    3    3    0    0 -0.20430927437E+01  0.64256980333E+00 -0.39340659981E+01  0.44792855960E+01  0.51100000000E-03 0.  1.
        -12    1    3    3    0    0 -0.24178068260E+01 -0.20196892703E+01 -0.21013032258E+02  0.21247881289E+02  0.00000000000E+00 0.  1.
</event>
<event>
 7    1  0.3708346E-009  0.4614231E+02  0.7816164E-02  0.1320468E+00
        -11   -1    0    0    0    0  0.00000000000E+00  0.00000000000E+00  0.45593999997E+02  0.45594000000E+02  0.51100000000E-03 0. -1.
         11   -1    0    0    0    0 -0.00000000000E+00 -0.00000000000E+00 -0.45593999997E+02  0.45594000000E+02  0.51100000000E-03 0.  1.
    9900012    2    1    2    0    0  0.29019217422E+02  0.32586327042E+02 -0.11186162182E+02  0.46142313034E+02  0.99999568949E+01 0.  0.
        -12    1    1    2    0    0 -0.29019217422E+02 -0.32586327042E+02  0.11186162182E+02  0.45045686966E+02  0.00000000000E+00 0.  1.
         11    1    3    3    0    0  0.22724852211E+02  0.18654534958E+02 -0.63102287922E+01  0.30070410210E+02  0.51100000000E-03 0. -1.
        -11    1    3    3    0    0  0.34281644417E+01  0.65726898240E+01 -0.25410247579E+01  0.78364130853E+01  0.51100000000E-03 0.  1.
         12    1    3    3    0    0  0.28662007693E+01  0.73591022599E+01 -0.23349086322E+01  0.82354897391E+01  0.00000000000E+00 0. -1.
</event>
<event>
 7    1  0.3708346E-009  0.4614232E+02  0.7816164E-02  0.1320468E+00
        -11   -1    0    0    0    0  0.00000000000E+00  0.00000000000E+00  0.45593999997E+02  0.45594000000E+02  0.51100000000E-03 0.  1.
         11   -1    0    0    0    0 -0.00000000000E+00 -0.00000000000E+00 -0.45593999997E+02  0.45594000000E+02  0.51100000000E-03 0. -1.
    9900012    2    1    2    0    0  0.18248600710E+02  0.26971400524E+02 -0.31123072058E+02  0.46142317760E+02  0.99999999918E+01 0.  0.
        -12    1    1    2    0    0 -0.18248600710E+02 -0.26971400524E+02  0.31123072058E+02  0.45045682240E+02  0.00000000000E+00 0.  1.
         11    1    3    3    0    0  0.12958056703E+02  0.14212681842E+02 -0.16574552894E+02  0.25389512846E+02  0.51100000000E-03 0. -1.
        -11    1    3    3    0    0  0.37959714388E+01  0.82157003084E+01 -0.57032811412E+01  0.10697408413E+02  0.51100000000E-03 0.  1.
         12    1    3    3    0    0  0.14945725683E+01  0.45430183731E+01 -0.88452380232E+01  0.10055396501E+02  0.00000000000E+00 0. -1.
</event>
<event>
 7    1  0.3708346E-009  0.4614232E+02  0.7816164E-02  0.1320468E+00
        -11   -1    0    0    0    0  0.00000000000E+00  0.00000000000E+00  0.45593999997E+02  0.45594000000E+02  0.51100000000E-03 0.  1.
         11   -1    0    0    0    0 -0.00000000000E+00 -0.00000000000E+00 -0.45593999997E+02  0.45594000000E+02  0.51100000000E-03 0. -1.
    9900012    2    1    2    0    0 -0.61575492262E+01 -0.31569271235E+02 -0.31536951827E+02  0.46142316197E+02  0.99999857330E+01 0.  0.
        -12    1    1    2    0    0  0.61575492262E+01  0.31569271235E+02  0.31536951827E+02  0.45045683803E+02  0.00000000000E+00 0.  1.
         11    1    3    3    0    0 -0.40724160369E+01 -0.22501146985E+02 -0.25426947749E+02  0.34196722944E+02  0.51100000000E-03 0. -1.
        -11    1    3    3    0    0 -0.24963240889E+01 -0.33332140910E+01 -0.10698751992E+01  0.42996026952E+01  0.51100000000E-03 0.  1.
         12    1    3    3    0    0  0.41119089956E+00 -0.57349101592E+01 -0.50401288780E+01  0.76459905569E+01  0.00000000000E+00 0. -1.
</event>
<event>
 7    1  0.3708346E-009  0.4614232E+02  0.7816164E-02  0.1320468E+00
        -11   -1    0    0    0    0  0.00000000000E+00  0.00000000000E+00  0.45593999997E+02  0.45594000000E+02  0.51100000000E-03 0. -1.
         11   -1    0    0    0    0 -0.00000000000E+00 -0.00000000000E+00 -0.45593999997E+02  0.45594000000E+02  0.51100000000E-03 0.  1.
    9900012    2    1    2    0    0 -0.22031314019E+02  0.18814172388E+02  0.34492921903E+02  0.46142317172E+02  0.99999946312E+01 0.  0.
        -12    1    1    2    0    0  0.22031314019E+02 -0.18814172388E+02 -0.34492921903E+02  0.45045682828E+02  0.00000000000E+00 0.  1.
         11    1    3    3    0    0 -0.11895104253E+02  0.10736442342E+02  0.21363340473E+02  0.26704999827E+02  0.51100000000E-03 0. -1.
        -11    1    3    3    0    0 -0.78142944967E+01  0.82797805055E+01  0.12719984122E+02  0.17070909759E+02  0.51100000000E-03 0.  1.
         12    1    3    3    0    0 -0.23219152694E+01 -0.20205046041E+00  0.40959730840E+00  0.23664075857E+01  0.00000000000E+00 0. -1.
</event>
<event>
 7    1  0.3708346E-009  0.4614232E+02  0.7816164E-02  0.1320468E+00
        -11   -1    0    0    0    0  0.00000000000E+00  0.00000000000E+00  0.45593999997E+02  0.45594000000E+02  0.51100000000E-03 0. -1.
         11   -1    0    0    0    0 -0.00000000000E+00 -0.00000000000E+00 -0.45593999997E+02  0.45594000000E+02  0.51100000000E-03 0.  1.
    9900012    2    1    2    0    0 -0.42739029417E+02  0.13300864572E+02 -0.50572526776E+01  0.46142318314E+02  0.10000005046E+02 0.  0.
        -12    1    1    2    0    0  0.42739029417E+02 -0.13300864572E+02  0.50572526776E+01  0.45045681686E+02  0.00000000000E+00 0.  1.
         11    1    3    3    0    0 -0.23487969515E+02  0.10754450767E+02  0.66509898022E-01  0.25833066931E+02  0.51100000000E-03 0. -1.
        -11    1    3    3    0    0 -0.62545906815E+01 -0.54916618349E+00 -0.19916904288E+01  0.65869810320E+01  0.51100000000E-03 0.  1.
         12    1    3    3    0    0 -0.12996469220E+02  0.30955799884E+01 -0.31320721468E+01  0.13722270351E+02  0.00000000000E+00 0. -1.
</event>
<event>
 7    1  0.3708346E-009  0.4614232E+02  0.7816164E-02  0.1320468E+00
        -11   -1    0    0    0    0  0.00000000000E+00  0.00000000000E+00  0.45593999997E+02  0.45594000000E+02  0.51100000000E-03 0. -1.
         11   -1    0    0    0    0 -0.00000000000E+00 -0.00000000000E+00 -0.45593999997E+02  0.45594000000E+02  0.51100000000E-03 0.  1.
    9900012    2    1    2    0    0 -0.12331824360E+02 -0.76700059011E+01  0.42640481340E+02  0.46142317283E+02  0.99999956395E+01 0.  0.
        -12    1    1    2    0    0  0.12331824360E+02  0.76700059011E+01 -0.42640481340E+02  0.45045682717E+02  0.00000000000E+00 0.  1.
         11    1    3    3    0    0 -0.63570607877E+01 -0.80632804427E+00  0.13624497231E+02  0.15056205094E+02  0.51100000000E-03 0. -1.
        -11    1    3    3    0    0 -0.68117091939E+01 -0.74770602292E+01  0.26484890766E+02  0.28350577613E+02  0.51100000000E-03 0.  1.
        -12    1    3    3    0    0  0.83694562205E+00  0.61338237235E+00  0.25310933431E+01  0.27355345768E+01  0.00000000000E+00 0.  1.
</event>
<event>
 7    1  0.3708346E-009  0.4614232E+02  0.7816164E-02  0.1320468E+00
        -11   -1    0    0    0    0  0.00000000000E+00  0.00000000000E+00  0.45593999997E+02  0.45594000000E+02  0.51100000000E-03 0.  1.
         11   -1    0    0    0    0 -0.00000000000E+00 -0.00000000000E+00 -0.45593999997E+02  0.45594000000E+02  0.51100000000E-03 0. -1.
    9900012    2    1    2    0    0  0.13353586205E+02  0.36499097829E+02 -0.22773028409E+02  0.46142320631E+02  0.10000026172E+02 0.  0.
        -12    1    1    2    0    0 -0.13353586205E+02 -0.36499097829E+02  0.22773028409E+02  0.45045679369E+02  0.00000000000E+00 0.  1.
         11    1    3    3    0    0  0.11003642387E+01  0.48656842782E+00  0.60666832062E+00  0.13474409097E+01  0.51100000000E-03 0. -1.
        -11    1    3    3    0    0  0.24151639240E+00  0.39149840801E+01 -0.27983736528E+01  0.48183322713E+01  0.51100000000E-03 0.  1.
         12    1    3    3    0    0  0.12011705574E+02  0.32097545321E+02 -0.20581323077E+02  0.39976547450E+02  0.00000000000E+00 0. -1.
</event>
<event>
 7    1  0.3708346E-009  0.4614232E+02  0.7816164E-02  0.1320468E+00
        -11   -1    0    0    0    0  0.00000000000E+00  0.00000000000E+00  0.45593999997E+02  0.45594000000E+02  0.51100000000E-03 0.  1.
         11   -1    0    0    0    0 -0.00000000000E+00 -0.00000000000E+00 -0.45593999997E+02  0.45594000000E+02  0.51100000000E-03 0. -1.
    9900012    2    1    2    0    0  0.36087157008E+01  0.42862845302E+02 -0.13374122718E+02  0.46142317689E+02  0.99999993395E+01 0.  0.
        -12    1    1    2    0    0 -0.36087157008E+01 -0.42862845302E+02  0.13374122718E+02  0.45045682311E+02  0.00000000000E+00 0.  1.
         11    1    3    3    0    0  0.43149865647E+01  0.19447946317E+02 -0.82436368244E+01  0.21559203913E+02  0.51100000000E-03 0. -1.
        -11    1    3    3    0    0 -0.24089605853E+01  0.54261661321E+01 -0.18514559986E+01  0.62188632057E+01  0.51100000000E-03 0.  1.
        -12    1    3    3    0    0  0.17026897214E+01  0.17988732853E+02 -0.32790298948E+01  0.18364250570E+02  0.00000000000E+00 0.  1.
</event>
<event>
 7    1  0.3708346E-009  0.4614232E+02  0.7816164E-02  0.1320468E+00
        -11   -1    0    0    0    0  0.00000000000E+00  0.00000000000E+00  0.45593999997E+02  0.45594000000E+02  0.51100000000E-03 0. -1.
         11   -1    0    0    0    0 -0.00000000000E+00 -0.00000000000E+00 -0.45593999997E+02  0.45594000000E+02  0.51100000000E-03 0.  1.
    9900012    2    1    2    0    0  0.25477873571E+02 -0.99818581571E+01  0.35782034293E+02  0.46142317497E+02  0.99999975947E+01 0.  0.
        -12    1    1    2    0    0 -0.25477873571E+02  0.99818581571E+01 -0.35782034293E+02  0.45045682503E+02  0.00000000000E+00 0.  1.
         11    1    3    3    0    0  0.15838588834E+02 -0.85985311509E+01  0.26030570184E+02  0.31660483549E+02  0.51100000000E-03 0. -1.
        -11    1    3    3    0    0  0.59771957874E+01  0.98064661112E-01  0.83931985606E+01  0.10304478080E+02  0.51100000000E-03 0.  1.
         12    1    3    3    0    0  0.36620889502E+01 -0.14813916673E+01  0.13582655484E+01  0.41773558684E+01  0.00000000000E+00 0. -1.
</event>
<event>
 7    1  0.3708346E-009  0.4614232E+02  0.7816164E-02  0.1320468E+00
        -11   -1    0    0    0    0  0.00000000000E+00  0.00000000000E+00  0.45593999997E+02  0.45594000000E+02  0.51100000000E-03 0.  1.
         11   -1    0    0    0    0 -0.00000000000E+00 -0.00000000000E+00 -0.45593999997E+02  0.45594000000E+02  0.51100000000E-03 0. -1.
    9900012    2    1    2    0    0 -0.40134779802E+01  0.24946841359E+02 -0.37291561361E+02  0.46142318209E+02  0.10000004084E+02 0.  0.
        -12    1    1    2    0    0  0.40134779802E+01 -0.24946841359E+02  0.37291561361E+02  0.45045681791E+02  0.00000000000E+00 0.  1.
         11    1    3    3    0    0  0.15872144170E+01  0.69362871892E+01 -0.50908424687E+01  0.87491717825E+01  0.51100000000E-03 0. -1.
        -11    1    3    3    0    0 -0.19177502326E+01  0.72584211246E+01 -0.15047149059E+02  0.16816038125E+02  0.51100000000E-03 0.  1.
         12    1    3    3    0    0 -0.36829421646E+01  0.10752133046E+02 -0.17153569833E+02  0.20577108301E+02  0.00000000000E+00 0. -1.
</event>
<event>
 7    1  0.3708346E-009  0.4614232E+02  0.7816164E-02  0.1320468E+00
        -11   -1    0    0    0    0  0.00000000000E+00  0.00000000000E+00  0.45593999997E+02  0.45594000000E+02  0.51100000000E-03 0.  1.
         11   -1    0    0    0    0 -0.00000000000E+00 -0.00000000000E+00 -0.45593999997E+02  0.45594000000E+02  0.51100000000E-03 0. -1.
    9900012    2    1    2    0    0 -0.20782276331E+02  0.39963130623E+02  0.39821484729E+00  0.46142318811E+02  0.10000009576E+02 0.  0.
        -12    1    1    2    0    0  0.20782276331E+02 -0.39963130623E+02 -0.39821484729E+00  0.45045681189E+02  0.00000000000E+00 0.  1.
         11    1    3    3    0    0 -0.17126391072E+02  0.28028649136E+02 -0.22056602566E+01  0.32920865435E+02  0.51100000000E-03 0. -1.
        -11    1    3    3    0    0  0.25695173749E+00  0.12924464024E+01  0.12252899854E+01  0.17993825908E+01  0.51100000000E-03 0.  1.
         12    1    3    3    0    0 -0.39128369957E+01  0.10642035085E+02  0.13785851185E+01  0.11422070785E+02  0.00000000000E+00 0. -1.
</event>
<event>
 7    1  0.3708346E-009  0.4614232E+02  0.7816164E-02  0.1320468E+00
        -11   -1    0    0    0    0  0.00000000000E+00  0.00000000000E+00  0.45593999997E+02  0.45594000000E+02  0.51100000000E-03 0.  1.
         11   -1    0    0    0    0 -0.00000000000E+00 -0.00000000000E+00 -0.45593999997E+02  0.45594000000E+02  0.51100000000E-03 0. -1.
    9900012    2    1    2    0    0  0.36128830428E+02  0.11027116453E+02 -0.24540246977E+02  0.46142318664E+02  0.10000008230E+02 0.  0.
        -12    1    1    2    0    0 -0.36128830428E+02 -0.11027116453E+02  0.24540246977E+02  0.45045681336E+02  0.00000000000E+00 0.  1.
         11    1    3    3    0    0  0.21998264056E+02  0.91931622640E+01 -0.14402373467E+02  0.27854375162E+02  0.51100000000E-03 0. -1.
        -11    1    3    3    0    0  0.16172017981E+01  0.79719924274E+00 -0.38368712072E+01  0.42393925520E+01  0.51100000000E-03 0.  1.
         12    1    3    3    0    0  0.12513364574E+02  0.10367549458E+01 -0.63010023031E+01  0.14048550950E+02  0.00000000000E+00 0. -1.
</event>
<event>
 7    1  0.3708346E-009  0.4614232E+02  0.7816164E-02  0.1320468E+00
        -11   -1    0    0    0    0  0.00000000000E+00  0.00000000000E+00  0.45593999997E+02  0.45594000000E+02  0.51100000000E-03 0. -1.
         11   -1    0    0    0    0 -0.00000000000E+00 -0.00000000000E+00 -0.45593999997E+02  0.45594000000E+02  0.51100000000E-03 0.  1.
    9900012    2    1    2    0    0  0.21231791463E+02  0.39055744557E+02  0.72782837226E+01  0.46142316905E+02  0.99999921898E+01 0.  0.
        -12    1    1    2    0    0 -0.21231791463E+02 -0.39055744557E+02 -0.72782837226E+01  0.45045683095E+02  0.00000000000E+00 0.  1.
         11    1    3    3    0    0  0.71186898629E+01  0.94314660740E+01  0.25829947762E+01  0.12095460303E+02  0.51100000000E-03 0. -1.
        -11    1    3    3    0    0  0.10499122442E+02  0.27561144671E+02  0.34000308127E+01  0.29688524339E+02  0.51100000000E-03 0.  1.
        -12    1    3    3    0    0  0.36139791580E+01  0.20631338114E+01  0.12952581337E+01  0.43583322626E+01  0.00000000000E+00 0.  1.
</event>
<event>
 7    1  0.3708346E-009  0.4614232E+02  0.7816164E-02  0.1320468E+00
        -11   -1    0    0    0    0  0.00000000000E+00  0.00000000000E+00  0.45593999997E+02  0.45594000000E+02  0.51100000000E-03 0.  1.
         11   -1    0    0    0    0 -0.00000000000E+00 -0.00000000000E+00 -0.45593999997E+02  0.45594000000E+02  0.51100000000E-03 0. -1.
    9900012    2    1    2    0    0 -0.36418406469E+02 -0.13696908425E+00 -0.26510267665E+02  0.46142318943E+02  0.10000010775E+02 0.  0.
        -12    1    1    2    0    0  0.36418406469E+02  0.13696908425E+00  0.26510267665E+02  0.45045681057E+02  0.00000000000E+00 0.  1.
         11    1    3    3    0    0 -0.14021958213E+02 -0.11595398059E+01 -0.92629188843E+01  0.16845222207E+02  0.51100000000E-03 0. -1.
        -11    1    3    3    0    0 -0.26355583522E+00  0.96160249185E-01 -0.28799602178E+01  0.28935928513E+01  0.51100000000E-03 0.  1.
        -12    1    3    3    0    0 -0.22132892421E+02  0.92641047248E+00 -0.14367388563E+02  0.26403503885E+02  0.00000000000E+00 0.  1.
</event>
<event>
 7    1  0.3708346E-009  0.4614232E+02  0.7816164E-02  0.1320468E+00
        -11   -1    0    0    0    0  0.00000000000E+00  0.00000000000E+00  0.45593999997E+02  0.45594000000E+02  0.51100000000E-03 0.  1.
         11   -1    0    0    0    0 -0.00000000000E+00 -0.00000000000E+00 -0.45593999997E+02  0.45594000000E+02  0.51100000000E-03 0. -1.
    9900012    2    1    2    0    0  0.11048190472E+02  0.39068063771E+02 -0.19512491775E+02  0.46142318133E+02  0.10000003396E+02 0.  0.
        -12    1    1    2    0    0 -0.11048190472E+02 -0.39068063771E+02  0.19512491775E+02  0.45045681867E+02  0.00000000000E+00 0.  1.
         11    1    3    3    0    0  0.28598164523E+01  0.14406662560E+02 -0.52406575194E+01  0.15594709608E+02  0.51100000000E-03 0. -1.
        -11    1    3    3    0    0  0.30552630280E+01  0.18956597254E+02 -0.87958898666E+01  0.21120011610E+02  0.51100000000E-03 0.  1.
        -12    1    3    3    0    0  0.51331109916E+01  0.57048039579E+01 -0.54759443892E+01  0.94275969157E+01  0.00000000000E+00 0.  1.
</event>
<event>
 7    1  0.3708346E-009  0.4614232E+02  0.7816164E-02  0.1320468E+00
        -11   -1    0    0    0    0  0.00000000000E+00  0.00000000000E+00  0.45593999997E+02  0.45594000000E+02  0.51100000000E-03 0.  1.
         11   -1    0    0    0    0 -0.00000000000E+00 -0.00000000000E+00 -0.45593999997E+02  0.45594000000E+02  0.51100000000E-03 0. -1.
    9900012    2    1    2    0    0  0.15891471196E+01 -0.22284560265E+02 -0.39115041538E+02  0.46142317751E+02  0.99999999050E+01 0.  0.
        -12    1    1    2    0    0 -0.15891471196E+01  0.22284560265E+02  0.39115041538E+02  0.45045682249E+02  0.00000000000E+00 0.  1.
         11    1    3    3    0    0 -0.13729168304E+00 -0.91532165561E+01 -0.21130151192E+02  0.23027885530E+02  0.51100000000E-03 0. -1.
        -11    1    3    3    0    0  0.31296654567E+01 -0.45508419119E+01 -0.93576641518E+01  0.10866040982E+02  0.51100000000E-03 0.  1.
         12    1    3    3    0    0 -0.14032266541E+01 -0.85805017971E+01 -0.86272261945E+01  0.12248391239E+02  0.00000000000E+00 0. -1.
</event>
<event>
 7    1  0.3708346E-009  0.4614232E+02  0.7816164E-02  0.1320468E+00
        -11   -1    0    0    0    0  0.00000000000E+00  0.00000000000E+00  0.45593999997E+02  0.45594000000E+02  0.51100000000E-03 0.  1.
         11   -1    0    0    0    0 -0.00000000000E+00 -0.00000000000E+00 -0.45593999997E+02  0.45594000000E+02  0.51100000000E-03 0. -1.
    9900012    2    1    2    0    0 -0.36160043958E+02  0.99754962147E+01 -0.24941014824E+02  0.46142317363E+02  0.99999963664E+01 0.  0.
        -12    1    1    2    0    0  0.36160043958E+02 -0.99754962147E+01  0.24941014824E+02  0.45045682637E+02  0.00000000000E+00 0.  1.
         11    1    3    3    0    0 -0.11358763352E+02  0.59949630901E+01 -0.60383706748E+01  0.14192357380E+02  0.51100000000E-03 0. -1.
        -11    1    3    3    0    0 -0.21546636784E+01 -0.11398872783E+01 -0.26976870531E+01  0.36358539948E+01  0.51100000000E-03 0.  1.
         12    1    3    3    0    0 -0.22646616928E+02  0.51204204028E+01 -0.16204957096E+02  0.28314105987E+02  0.00000000000E+00 0. -1.
</event>
<event>
 7    1  0.3708346E-009  0.4614232E+02  0.7816164E-02  0.1320468E+00
        -11   -1    0    0    0    0  0.00000000000E+00  0.00000000000E+00  0.45593999997E+02  0.45594000000E+02  0.51100000000E-03 0.  1.
         11   -1    0    0    0    0 -0.00000000000E+00 -0.00000000000E+00 -0.45593999997E+02  0.45594000000E+02  0.51100000000E-03 0. -1.
    9900012    2    1    2    0    0 -0.19406292624E+01 -0.37943047816E+02 -0.24200673684E+02  0.46142317341E+02  0.99999961648E+01 0.  0.
        -12    1    1    2    0    0  0.19406292624E+01  0.37943047816E+02  0.24200673684E+02  0.45045682659E+02  0.00000000000E+00 0.  1.
         11    1    3    3    0    0 -0.15551333368E+01 -0.78410715616E+00 -0.18028922997E+01  0.25067278737E+01  0.51100000000E-03 0.  1.
        -11    1    3    3    0    0  0.48883205211E+00 -0.68616924292E+01 -0.62416814074E+01  0.92887225613E+01  0.51100000000E-03 0. -1.
         12    1    3    3    0    0 -0.87432797770E+00 -0.30297248230E+02 -0.16156099977E+02  0.34346866905E+02  0.00000000000E+00 0. -1.
</event>
<event>
 7    1  0.3708346E-009  0.4614232E+02  0.7816164E-02  0.1320468E+00
        -11   -1    0    0    0    0  0.00000000000E+00  0.00000000000E+00  0.45593999997E+02  0.45594000000E+02  0.51100000000E-03 0. -1.
         11   -1    0    0    0    0 -0.00000000000E+00 -0.00000000000E+00 -0.45593999997E+02  0.45594000000E+02  0.51100000000E-03 0.  1.
    9900012    2    1    2    0    0  0.31582404467E+02 -0.15002833803E+02  0.28400356123E+02  0.46142317388E+02  0.99999966011E+01 0.  0.
        -12    1    1    2    0    0 -0.31582404467E+02  0.15002833803E+02 -0.28400356123E+02  0.45045682612E+02  0.00000000000E+00 0.  1.
         11    1    3    3    0    0  0.14358895102E+02 -0.61448516038E+01  0.14544695899E+02  0.21342100385E+02  0.51100000000E-03 0. -1.
        -11    1    3    3    0    0  0.92220315864E+01 -0.77798172929E+01  0.57709405064E+01  0.13374422540E+02  0.51100000000E-03 0.  1.
        -12    1    3    3    0    0  0.80014777783E+01 -0.10781649059E+01  0.80847197175E+01  0.11425794463E+02  0.00000000000E+00 0.  1.
</event>
<event>
 7    1  0.3708346E-009  0.4614232E+02  0.7816164E-02  0.1320468E+00
        -11   -1    0    0    0    0  0.00000000000E+00  0.00000000000E+00  0.45593999997E+02  0.45594000000E+02  0.51100000000E-03 0. -1.
         11   -1    0    0    0    0 -0.00000000000E+00 -0.00000000000E+00 -0.45593999997E+02  0.45594000000E+02  0.51100000000E-03 0.  1.
    9900012    2    1    2    0    0  0.45021259683E+02  0.10068581813E+00  0.14796928137E+01  0.46142318166E+02  0.10000003691E+02 0.  0.
        -12    1    1    2    0    0 -0.45021259683E+02 -0.10068581813E+00 -0.14796928137E+01  0.45045681834E+02  0.00000000000E+00 0.  1.
         11    1    3    3    0    0  0.18754059324E+02  0.32819785892E+01 -0.24398787469E+01  0.19194768380E+02  0.51100000000E-03 0. -1.
        -11    1    3    3    0    0  0.10413435255E+02 -0.14814205796E+01  0.31688245442E+01  0.10985248745E+02  0.51100000000E-03 0.  1.
         12    1    3    3    0    0  0.15853765104E+02 -0.16998721915E+01  0.75074701635E+00  0.15962301041E+02  0.00000000000E+00 0. -1.
</event>
<event>
 7    1  0.3708346E-009  0.4614232E+02  0.7816164E-02  0.1320468E+00
        -11   -1    0    0    0    0  0.00000000000E+00  0.00000000000E+00  0.45593999997E+02  0.45594000000E+02  0.51100000000E-03 0.  1.
         11   -1    0    0    0    0 -0.00000000000E+00 -0.00000000000E+00 -0.45593999997E+02  0.45594000000E+02  0.51100000000E-03 0. -1.
    9900012    2    1    2    0    0  0.43537848293E+02  0.82171582341E+01  0.81269733138E+01  0.46142316315E+02  0.99999868120E+01 0.  0.
        -12    1    1    2    0    0 -0.43537848293E+02 -0.82171582341E+01 -0.81269733138E+01  0.45045683685E+02  0.00000000000E+00 0.  1.
         11    1    3    3    0    0  0.14410698004E+02  0.41842447974E+01  0.15360427417E+01  0.15084281522E+02  0.51100000000E-03 0. -1.
        -11    1    3    3    0    0  0.10245374543E+02 -0.14696944358E+01  0.44787075455E+01  0.11277700244E+02  0.51100000000E-03 0.  1.
        -12    1    3    3    0    0  0.18881775747E+02  0.55026078725E+01  0.21122230266E+01  0.19780334549E+02  0.00000000000E+00 0.  1.
</event>
<event>
 7    1  0.3708346E-009  0.4614232E+02  0.7816164E-02  0.1320468E+00
        -11   -1    0    0    0    0  0.00000000000E+00  0.00000000000E+00  0.45593999997E+02  0.45594000000E+02  0.51100000000E-03 0. -1.
         11   -1    0    0    0    0 -0.00000000000E+00 -0.00000000000E+00 -0.45593999997E+02  0.45594000000E+02  0.51100000000E-03 0.  1.
    9900012    2    1    2    0    0 -0.52611561172E+01 -0.31069308958E+02  0.32189001196E+02  0.46142317401E+02  0.99999967192E+01 0.  0.
        -12    1    1    2    0    0  0.52611561172E+01  0.31069308958E+02 -0.32189001196E+02  0.45045682599E+02  0.00000000000E+00 0.  1.
         11    1    3    3    0    0  0.76023057602E+00 -0.17285201717E+02  0.13995858866E+02  0.22253993228E+02  0.51100000000E-03 0. -1.
        -11    1    3    3    0    0 -0.10365812343E+01 -0.41852972598E+01  0.76642291874E+01  0.87938400660E+01  0.51100000000E-03 0.  1.
        -12    1    3    3    0    0 -0.49848054589E+01 -0.95988099810E+01  0.10528913142E+02  0.15094484108E+02  0.00000000000E+00 0.  1.
</event>
<event>
 7    1  0.3708346E-009  0.4614232E+02  0.7816164E-02  0.1320468E+00
        -11   -1    0    0    0    0  0.00000000000E+00  0.00000000000E+00  0.45593999997E+02  0.45594000000E+02  0.51100000000E-03 0.  1.
         11   -1    0    0    0    0 -0.00000000000E+00 -0.00000000000E+00 -0.45593999997E+02  0.45594000000E+02  0.51100000000E-03 0. -1.
    9900012    2    1    2    0    0 -0.17728799291E+02 -0.26420402853E+02 -0.31886753197E+02  0.46142322731E+02  0.10000045317E+02 0.  0.
        -12    1    1    2    0    0  0.17728799291E+02  0.26420402853E+02  0.31886753197E+02  0.45045677269E+02  0.00000000000E+00 0.  1.
         11    1    3    3    0    0 -0.39859448086E+01 -0.53520673918E+01 -0.89800687440E+01  0.11188119426E+02  0.51100000000E-03 0. -1.
        -11    1    3    3    0    0 -0.12510932292E+02 -0.21465846362E+02 -0.22678923801E+02  0.33639850949E+02  0.51100000000E-03 0.  1.
        -12    1    3    3    0    0 -0.12319221903E+01  0.39751090087E+00 -0.22776065142E+00  0.13143523552E+01  0.00000000000E+00 0.  1.
</event>
<event>
 7    1  0.3708346E-009  0.4614232E+02  0.7816164E-02  0.1320468E+00
        -11   -1    0    0    0    0  0.00000000000E+00  0.00000000000E+00  0.45593999997E+02  0.45594000000E+02  0.51100000000E-03 0. -1.
         11   -1    0    0    0    0 -0.00000000000E+00 -0.00000000000E+00 -0.45593999997E+02  0.45594000000E+02  0.51100000000E-03 0.  1.
    9900012    2    1    2    0    0 -0.35557003504E+02  0.21714773235E+02  0.17125467821E+02  0.46142317377E+02  0.99999965009E+01 0.  0.
        -12    1    1    2    0    0  0.35557003504E+02 -0.21714773235E+02 -0.17125467821E+02  0.45045682623E+02  0.00000000000E+00 0.  1.
         11    1    3    3    0    0 -0.45565543601E+01  0.48239972435E+01  0.43650613429E+01  0.79427260956E+01  0.51100000000E-03 0.  1.
        -11    1    3    3    0    0 -0.20376018280E+02  0.14624125064E+02  0.78746832291E+01  0.26287978071E+02  0.51100000000E-03 0. -1.
        -12    1    3    3    0    0 -0.10624430864E+02  0.22666509268E+01  0.48857232493E+01  0.11911613211E+02  0.00000000000E+00 0.  1.
</event>
<event>
 7    1  0.3708346E-009  0.4614232E+02  0.7816164E-02  0.1320468E+00
        -11   -1    0    0    0    0  0.00000000000E+00  0.00000000000E+00  0.45593999997E+02  0.45594000000E+02  0.51100000000E-03 0.  1.
         11   -1    0    0    0    0 -0.00000000000E+00 -0.00000000000E+00 -0.45593999997E+02  0.45594000000E+02  0.51100000000E-03 0. -1.
    9900012    2    1    2    0    0  0.21841426301E+02 -0.10524806257E+02 -0.37964378395E+02  0.46142317892E+02  0.10000001196E+02 0.  0.
        -12    1    1    2    0    0 -0.21841426301E+02  0.10524806257E+02  0.37964378395E+02  0.45045682108E+02  0.00000000000E+00 0.  1.
         11    1    3    3    0    0  0.87313665486E+01 -0.24210823979E+01 -0.84790197231E+01  0.12409358465E+02  0.51100000000E-03 0.  1.
        -11    1    3    3    0    0  0.78506924594E+01 -0.76389579953E+01 -0.17642209450E+02  0.20766189007E+02  0.51100000000E-03 0. -1.
         12    1    3    3    0    0  0.52593672927E+01 -0.46476586375E+00 -0.11843149223E+02  0.12966770421E+02  0.00000000000E+00 0. -1.
</event>
<event>
 7    1  0.3708346E-009  0.4614231E+02  0.7816164E-02  0.1320468E+00
        -11   -1    0    0    0    0  0.00000000000E+00  0.00000000000E+00  0.45593999997E+02  0.45594000000E+02  0.51100000000E-03 0.  1.
         11   -1    0    0    0    0 -0.00000000000E+00 -0.00000000000E+00 -0.45593999997E+02  0.45594000000E+02  0.51100000000E-03 0. -1.
    9900012    2    1    2    0    0 -0.24646539404E+02 -0.28370051298E+02 -0.24835502969E+02  0.46142312937E+02  0.99999560142E+01 0.  0.
        -12    1    1    2    0    0  0.24646539404E+02  0.28370051298E+02  0.24835502969E+02  0.45045687063E+02  0.00000000000E+00 0.  1.
         11    1    3    3    0    0 -0.11827275850E+02 -0.87860471588E+01 -0.87001753787E+01  0.17110585338E+02  0.51100000000E-03 0. -1.
        -11    1    3    3    0    0 -0.28251949756E+01 -0.94210358765E+01 -0.57160732641E+01  0.11375901611E+02  0.51100000000E-03 0.  1.
         12    1    3    3    0    0 -0.99940685777E+01 -0.10162968262E+02 -0.10419254326E+02  0.17655825989E+02  0.00000000000E+00 0. -1.
</event>
<event>
 7    1  0.3708346E-009  0.4614232E+02  0.7816164E-02  0.1320468E+00
        -11   -1    0    0    0    0  0.00000000000E+00  0.00000000000E+00  0.45593999997E+02  0.45594000000E+02  0.51100000000E-03 0.  1.
         11   -1    0    0    0    0 -0.00000000000E+00 -0.00000000000E+00 -0.45593999997E+02  0.45594000000E+02  0.51100000000E-03 0. -1.
    9900012    2    1    2    0    0 -0.54330074020E+00  0.36233871550E+02 -0.26756774466E+02  0.46142316488E+02  0.99999883947E+01 0.  0.
        -12    1    1    2    0    0  0.54330074020E+00 -0.36233871550E+02  0.26756774466E+02  0.45045683512E+02  0.00000000000E+00 0.  1.
         11    1    3    3    0    0  0.83357263715E+00  0.22663166688E+02 -0.17534538448E+02  0.28666600889E+02  0.51100000000E-03 0. -1.
        -11    1    3    3    0    0 -0.36671783490E+01  0.87650932657E+01 -0.63360519929E+01  0.11420184417E+02  0.51100000000E-03 0.  1.
         12    1    3    3    0    0  0.22903049716E+01  0.48056115964E+01 -0.28861840253E+01  0.60555311828E+01  0.00000000000E+00 0. -1.
</event>
<event>
 7    1  0.3708346E-009  0.4614232E+02  0.7816164E-02  0.1320468E+00
        -11   -1    0    0    0    0  0.00000000000E+00  0.00000000000E+00  0.45593999997E+02  0.45594000000E+02  0.51100000000E-03 0.  1.
         11   -1    0    0    0    0 -0.00000000000E+00 -0.00000000000E+00 -0.45593999997E+02  0.45594000000E+02  0.51100000000E-03 0. -1.
    9900012    2    1    2    0    0 -0.35605679151E+02 -0.14544632649E+02 -0.23447872487E+02  0.46142318177E+02  0.10000003795E+02 0.  0.
        -12    1    1    2    0    0  0.35605679151E+02  0.14544632649E+02  0.23447872487E+02  0.45045681823E+02  0.00000000000E+00 0.  1.
         11    1    3    3    0    0 -0.46656063096E+01 -0.21446807792E+01 -0.75586475919E+00  0.51902668213E+01  0.51100000000E-03 0. -1.
        -11    1    3    3    0    0 -0.44899861940E+01  0.39461360984E+00 -0.15983314771E+01  0.47822964876E+01  0.51100000000E-03 0.  1.
        -12    1    3    3    0    0 -0.26450086647E+02 -0.12794565480E+02 -0.21093676251E+02  0.36169754868E+02  0.00000000000E+00 0.  1.
</event>
<event>
 7    1  0.3708346E-009  0.4614232E+02  0.7816164E-02  0.1320468E+00
        -11   -1    0    0    0    0  0.00000000000E+00  0.00000000000E+00  0.45593999997E+02  0.45594000000E+02  0.51100000000E-03 0. -1.
         11   -1    0    0    0    0 -0.00000000000E+00 -0.00000000000E+00 -0.45593999997E+02  0.45594000000E+02  0.51100000000E-03 0.  1.
    9900012    2    1    2    0    0  0.25867755472E+00  0.68275618347E-01  0.45044888266E+02  0.46142317249E+02  0.99999953272E+01 0.  0.
        -12    1    1    2    0    0 -0.25867755472E+00 -0.68275618347E-01 -0.45044888266E+02  0.45045682751E+02  0.00000000000E+00 0.  1.
         11    1    3    3    0    0  0.92017746050E+00 -0.10078766548E+01  0.41432908528E+01  0.43622701959E+01  0.51100000000E-03 0. -1.
        -11    1    3    3    0    0  0.19057260011E+01 -0.30749330631E+01  0.15877816274E+02  0.16284718445E+02  0.51100000000E-03 0.  1.
        -12    1    3    3    0    0 -0.25672259069E+01  0.41510853363E+01  0.25023781139E+02  0.25495328608E+02  0.00000000000E+00 0.  1.
</event>
<event>
 7    1  0.3708346E-009  0.4614232E+02  0.7816164E-02  0.1320468E+00
        -11   -1    0    0    0    0  0.00000000000E+00  0.00000000000E+00  0.45593999997E+02  0.45594000000E+02  0.51100000000E-03 0.  1.
         11   -1    0    0    0    0 -0.00000000000E+00 -0.00000000000E+00 -0.45593999997E+02  0.45594000000E+02  0.51100000000E-03 0. -1.
    9900012    2    1    2    0    0  0.11365605965E+02  0.10892810362E+02 -0.42205248944E+02  0.46142319242E+02  0.10000013503E+02 0.  0.
        -12    1    1    2    0    0 -0.11365605965E+02 -0.10892810362E+02  0.42205248944E+02  0.45045680758E+02  0.00000000000E+00 0.  1.
         11    1    3    3    0    0  0.45669026260E+01  0.89921671511E+00 -0.19848424491E+02  0.20386886602E+02  0.51100000000E-03 0.  1.
        -11    1    3    3    0    0  0.71770281376E+01  0.79635384082E+01 -0.18582609257E+02  0.21453229219E+02  0.51100000000E-03 0. -1.
        -12    1    3    3    0    0 -0.37832479891E+00  0.20300552389E+01 -0.37742151959E+01  0.43022034206E+01  0.00000000000E+00 0.  1.
</event>
<event>
 7    1  0.3708346E-009  0.4614231E+02  0.7816164E-02  0.1320468E+00
        -11   -1    0    0    0    0  0.00000000000E+00  0.00000000000E+00  0.45593999997E+02  0.45594000000E+02  0.51100000000E-03 0.  1.
         11   -1    0    0    0    0 -0.00000000000E+00 -0.00000000000E+00 -0.45593999997E+02  0.45594000000E+02  0.51100000000E-03 0. -1.
    9900012    2    1    2    0    0  0.15749436471E+02  0.70633002698E+01 -0.41607438593E+02  0.46142313124E+02  0.99999577158E+01 0.  0.
        -12    1    1    2    0    0 -0.15749436471E+02 -0.70633002698E+01  0.41607438593E+02  0.45045686876E+02  0.00000000000E+00 0.  1.
         11    1    3    3    0    0  0.83397835156E+01  0.55534560832E+01 -0.20770670654E+02  0.23061084606E+02  0.51100000000E-03 0. -1.
        -11    1    3    3    0    0  0.36995021035E+01 -0.24613597767E+01 -0.82303834692E+01  0.93532785736E+01  0.51100000000E-03 0.  1.
        -12    1    3    3    0    0  0.37101508518E+01  0.39712039632E+01 -0.12606384470E+02  0.13727949944E+02  0.00000000000E+00 0.  1.
</event>
<event>
 7    1  0.3708346E-009  0.4614232E+02  0.7816164E-02  0.1320468E+00
        -11   -1    0    0    0    0  0.00000000000E+00  0.00000000000E+00  0.45593999997E+02  0.45594000000E+02  0.51100000000E-03 0.  1.
         11   -1    0    0    0    0 -0.00000000000E+00 -0.00000000000E+00 -0.45593999997E+02  0.45594000000E+02  0.51100000000E-03 0. -1.
    9900012    2    1    2    0    0  0.31050769297E+02 -0.24833812061E+02 -0.21171796486E+02  0.46142318055E+02  0.10000002682E+02 0.  0.
        -12    1    1    2    0    0 -0.31050769297E+02  0.24833812061E+02  0.21171796486E+02  0.45045681945E+02  0.00000000000E+00 0.  1.
         11    1    3    3    0    0  0.32850918008E+01 -0.13049173187E+01 -0.34899065925E+01  0.49673016451E+01  0.51100000000E-03 0. -1.
        -11    1    3    3    0    0  0.88622168289E+01 -0.12372409961E+02 -0.66459984407E+01  0.16606767021E+02  0.51100000000E-03 0.  1.
        -12    1    3    3    0    0  0.18903460667E+02 -0.11156484782E+02 -0.11035891453E+02  0.24568249389E+02  0.00000000000E+00 0.  1.
</event>
<event>
 7    1  0.3708346E-009  0.4614232E+02  0.7816164E-02  0.1320468E+00
        -11   -1    0    0    0    0  0.00000000000E+00  0.00000000000E+00  0.45593999997E+02  0.45594000000E+02  0.51100000000E-03 0.  1.
         11   -1    0    0    0    0 -0.00000000000E+00 -0.00000000000E+00 -0.45593999997E+02  0.45594000000E+02  0.51100000000E-03 0. -1.
    9900012    2    1    2    0    0  0.22328426974E+02  0.34113658595E+02 -0.19152362553E+02  0.46142319350E+02  0.10000014488E+02 0.  0.
        -12    1    1    2    0    0 -0.22328426974E+02 -0.34113658595E+02  0.19152362553E+02  0.45045680650E+02  0.00000000000E+00 0.  1.
         11    1    3    3    0    0  0.10944240988E+02  0.12636140136E+02 -0.10312896233E+02  0.19641901062E+02  0.51100000000E-03 0.  1.
        -11    1    3    3    0    0  0.36181095395E+01  0.34324709720E+01 -0.72574542750E-01  0.49877691344E+01  0.51100000000E-03 0. -1.
         12    1    3    3    0    0  0.77660764463E+01  0.18045047487E+02 -0.87668917772E+01  0.21512649154E+02  0.00000000000E+00 0. -1.
</event>
<event>
 7    1  0.3708346E-009  0.4614232E+02  0.7816164E-02  0.1320468E+00
        -11   -1    0    0    0    0  0.00000000000E+00  0.00000000000E+00  0.45593999997E+02  0.45594000000E+02  0.51100000000E-03 0.  1.
         11   -1    0    0    0    0 -0.00000000000E+00 -0.00000000000E+00 -0.45593999997E+02  0.45594000000E+02  0.51100000000E-03 0. -1.
    9900012    2    1    2    0    0 -0.35184284850E+02 -0.18307178637E+02 -0.21354784700E+02  0.46142317415E+02  0.99999968403E+01 0.  0.
        -12    1    1    2    0    0  0.35184284850E+02  0.18307178637E+02  0.21354784700E+02  0.45045682585E+02  0.00000000000E+00 0.  1.
         11    1    3    3    0    0 -0.17985586429E+02 -0.13804143920E+02 -0.13446157238E+02  0.26359720281E+02  0.51100000000E-03 0. -1.
        -11    1    3    3    0    0 -0.73172961952E+01 -0.33159317359E+00 -0.41409559013E+01  0.84142910384E+01  0.51100000000E-03 0.  1.
         12    1    3    3    0    0 -0.98814022255E+01 -0.41714415435E+01 -0.37676715599E+01  0.11368306095E+02  0.00000000000E+00 0. -1.
</event>
<event>
 7    1  0.3708346E-009  0.4614232E+02  0.7816164E-02  0.1320468E+00
        -11   -1    0    0    0    0  0.00000000000E+00  0.00000000000E+00  0.45593999997E+02  0.45594000000E+02  0.51100000000E-03 0.  1.
         11   -1    0    0    0    0 -0.00000000000E+00 -0.00000000000E+00 -0.45593999997E+02  0.45594000000E+02  0.51100000000E-03 0. -1.
    9900012    2    1    2    0    0 -0.40168518500E+02 -0.29773609324E+01 -0.20167767179E+02  0.46142318857E+02  0.10000009997E+02 0.  0.
        -12    1    1    2    0    0  0.40168518500E+02  0.29773609324E+01  0.20167767179E+02  0.45045681143E+02  0.00000000000E+00 0.  1.
         11    1    3    3    0    0 -0.15026279890E+02 -0.31509697641E+01 -0.79122063627E+01  0.17271963049E+02  0.51100000000E-03 0. -1.
        -11    1    3    3    0    0 -0.24089288918E+02 -0.94711951754E+00 -0.12728113554E+02  0.27261616806E+02  0.51100000000E-03 0.  1.
        -12    1    3    3    0    0 -0.10529496922E+01  0.11207283492E+01  0.47255273835E+00  0.16087390024E+01  0.00000000000E+00 0.  1.
</event>
<event>
 7    1  0.3708346E-009  0.4614232E+02  0.7816164E-02  0.1320468E+00
        -11   -1    0    0    0    0  0.00000000000E+00  0.00000000000E+00  0.45593999997E+02  0.45594000000E+02  0.51100000000E-03 0.  1.
         11   -1    0    0    0    0 -0.00000000000E+00 -0.00000000000E+00 -0.45593999997E+02  0.45594000000E+02  0.51100000000E-03 0. -1.
    9900012    2    1    2    0    0 -0.38896319598E+02 -0.59079728731E+00 -0.22712127202E+02  0.46142318279E+02  0.10000004719E+02 0.  0.
        -12    1    1    2    0    0  0.38896319598E+02  0.59079728731E+00  0.22712127202E+02  0.45045681721E+02  0.00000000000E+00 0.  1.
         11    1    3    3    0    0 -0.59839272848E+00  0.69679024698E-01 -0.50460321481E+00  0.78584584334E+00  0.51100000000E-03 0. -1.
        -11    1    3    3    0    0 -0.15161177761E+02 -0.15948967334E+01 -0.36335301516E+01  0.15671871244E+02  0.51100000000E-03 0.  1.
        -12    1    3    3    0    0 -0.23136749109E+02  0.93442042137E+00 -0.18573993835E+02  0.29684601191E+02  0.00000000000E+00 0.  1.
</event>
<event>
 7    1  0.3708346E-009  0.4614232E+02  0.7816164E-02  0.1320468E+00
        -11   -1    0    0    0    0  0.00000000000E+00  0.00000000000E+00  0.45593999997E+02  0.45594000000E+02  0.51100000000E-03 0. -1.
         11   -1    0    0    0    0 -0.00000000000E+00 -0.00000000000E+00 -0.45593999997E+02  0.45594000000E+02  0.51100000000E-03 0.  1.
    9900012    2    1    2    0    0  0.28603838390E+01  0.40198791796E+02  0.20124332928E+02  0.46142318372E+02  0.10000005568E+02 0.  0.
        -12    1    1    2    0    0 -0.28603838390E+01 -0.40198791796E+02 -0.20124332928E+02  0.45045681628E+02  0.00000000000E+00 0.  1.
         11    1    3    3    0    0  0.15959734231E+01  0.24234734796E+02  0.96692387846E+01  0.26141225693E+02  0.51100000000E-03 0. -1.
        -11    1    3    3    0    0  0.23844424693E+01  0.22531686152E+01  0.23356032630E+01  0.40270805258E+01  0.51100000000E-03 0.  1.
        -12    1    3    3    0    0 -0.11200320535E+01  0.13710888385E+02  0.81194908809E+01  0.15974012153E+02  0.00000000000E+00 0.  1.
</event>
<event>
 7    1  0.3708346E-009  0.4614232E+02  0.7816164E-02  0.1320468E+00
        -11   -1    0    0    0    0  0.00000000000E+00  0.00000000000E+00  0.45593999997E+02  0.45594000000E+02  0.51100000000E-03 0. -1.
         11   -1    0    0    0    0 -0.00000000000E+00 -0.00000000000E+00 -0.45593999997E+02  0.45594000000E+02  0.51100000000E-03 0.  1.
    9900012    2    1    2    0    0  0.28939169252E+02  0.47719868485E+01  0.34188684533E+02  0.46142317348E+02  0.99999962327E+01 0.  0.
        -12    1    1    2    0    0 -0.28939169252E+02 -0.47719868485E+01 -0.34188684533E+02  0.45045682652E+02  0.00000000000E+00 0.  1.
         11    1    3    3    0    0  0.16656017255E+02  0.33182365780E+01  0.17785195371E+02  0.24591599774E+02  0.51100000000E-03 0. -1.
        -11    1    3    3    0    0  0.10715605968E+01 -0.19637342268E+01  0.30583301720E+01  0.37891790573E+01  0.51100000000E-03 0.  1.
        -12    1    3    3    0    0  0.11211591400E+02  0.34174844973E+01  0.13345158990E+02  0.17761538516E+02  0.00000000000E+00 0.  1.
</event>
<event>
 7    1  0.3708346E-009  0.4614232E+02  0.7816164E-02  0.1320468E+00
        -11   -1    0    0    0    0  0.00000000000E+00  0.00000000000E+00  0.45593999997E+02  0.45594000000E+02  0.51100000000E-03 0. -1.
         11   -1    0    0    0    0 -0.00000000000E+00 -0.00000000000E+00 -0.45593999997E+02  0.45594000000E+02  0.51100000000E-03 0.  1.
    9900012    2    1    2    0    0 -0.33354675067E+02 -0.30274584952E+02  0.16937318076E+00  0.46142317297E+02  0.99999957702E+01 0.  0.
        -12    1    1    2    0    0  0.33354675067E+02  0.30274584952E+02 -0.16937318076E+00  0.45045682703E+02  0.00000000000E+00 0.  1.
         11    1    3    3    0    0 -0.25344091635E+02 -0.20564629931E+02 -0.38591341744E+01  0.32865177648E+02  0.51100000000E-03 0. -1.
        -11    1    3    3    0    0 -0.11776322340E+00  0.17481738048E-03 -0.31050763439E-01  0.12178923753E+00  0.51100000000E-03 0.  1.
         12    1    3    3    0    0 -0.78928202092E+01 -0.97101298391E+01  0.40595581186E+01  0.13155350412E+02  0.00000000000E+00 0. -1.
</event>
<event>
 7    1  0.3708346E-009  0.4614231E+02  0.7816164E-02  0.1320468E+00
        -11   -1    0    0    0    0  0.00000000000E+00  0.00000000000E+00  0.45593999997E+02  0.45594000000E+02  0.51100000000E-03 0.  1.
         11   -1    0    0    0    0 -0.00000000000E+00 -0.00000000000E+00 -0.45593999997E+02  0.45594000000E+02  0.51100000000E-03 0. -1.
    9900012    2    1    2    0    0 -0.40858475188E+02  0.43942300885E+01  0.18449666178E+02  0.46142307255E+02  0.99999042006E+01 0.  0.
        -12    1    1    2    0    0  0.40858475188E+02 -0.43942300885E+01 -0.18449666178E+02  0.45045692745E+02  0.00000000000E+00 0.  1.
         11    1    3    3    0    0 -0.34544749583E+02  0.49088358947E+01  0.13919521477E+02  0.37565801895E+02  0.51100000000E-03 0. -1.
        -11    1    3    3    0    0 -0.54111429297E+01 -0.17952229856E+01  0.33252684004E+01  0.66000533005E+01  0.51100000000E-03 0.  1.
         12    1    3    3    0    0 -0.90258267534E+00  0.12806171795E+01  0.12048763008E+01  0.19764520602E+01  0.00000000000E+00 0. -1.
</event>
<event>
 7    1  0.3708346E-009  0.4614232E+02  0.7816164E-02  0.1320468E+00
        -11   -1    0    0    0    0  0.00000000000E+00  0.00000000000E+00  0.45593999997E+02  0.45594000000E+02  0.51100000000E-03 0.  1.
         11   -1    0    0    0    0 -0.00000000000E+00 -0.00000000000E+00 -0.45593999997E+02  0.45594000000E+02  0.51100000000E-03 0. -1.
    9900012    2    1    2    0    0 -0.16487545046E+01  0.14414254974E+02 -0.42645332379E+02  0.46142317504E+02  0.99999976539E+01 0.  0.
        -12    1    1    2    0    0  0.16487545046E+01 -0.14414254974E+02  0.42645332379E+02  0.45045682496E+02  0.00000000000E+00 0.  1.
         11    1    3    3    0    0 -0.31997824841E+01  0.12579873393E+02 -0.24347281664E+02  0.27591338264E+02  0.51100000000E-03 0. -1.
        -11    1    3    3    0    0  0.16730278130E+00  0.14336298323E+01 -0.12199699643E+02  0.12284785564E+02  0.51100000000E-03 0.  1.
         12    1    3    3    0    0  0.13837251981E+01  0.40075174918E+00 -0.60983510715E+01  0.62661936755E+01  0.00000000000E+00 0. -1.
</event>
<event>
 7    1  0.3708346E-009  0.4614232E+02  0.7816164E-02  0.1320468E+00
        -11   -1    0    0    0    0  0.00000000000E+00  0.00000000000E+00  0.45593999997E+02  0.45594000000E+02  0.51100000000E-03 0.  1.
         11   -1    0    0    0    0 -0.00000000000E+00 -0.00000000000E+00 -0.45593999997E+02  0.45594000000E+02  0.51100000000E-03 0. -1.
    9900012    2    1    2    0    0  0.60393191776E+01  0.30155769022E+02 -0.32913061759E+02  0.46142318567E+02  0.10000007348E+02 0.  0.
        -12    1    1    2    0    0 -0.60393191776E+01 -0.30155769022E+02  0.32913061759E+02  0.45045681433E+02  0.00000000000E+00 0.  1.
         11    1    3    3    0    0  0.51541348023E+01  0.11671721082E+02 -0.15980699179E+02  0.20449374687E+02  0.51100000000E-03 0. -1.
        -11    1    3    3    0    0  0.22676531929E+01  0.49305000766E+01 -0.29761821514E+01  0.61894864463E+01  0.51100000000E-03 0.  1.
        -12    1    3    3    0    0 -0.13824688176E+01  0.13553547864E+02 -0.13956180429E+02  0.19503457434E+02  0.00000000000E+00 0.  1.
</event>
<event>
 7    1  0.3708346E-009  0.4614232E+02  0.7816164E-02  0.1320468E+00
        -11   -1    0    0    0    0  0.00000000000E+00  0.00000000000E+00  0.45593999997E+02  0.45594000000E+02  0.51100000000E-03 0.  1.
         11   -1    0    0    0    0 -0.00000000000E+00 -0.00000000000E+00 -0.45593999997E+02  0.45594000000E+02  0.51100000000E-03 0. -1.
    9900012    2    1    2    0    0 -0.23839557078E+02  0.96769114554E+01 -0.36974943932E+02  0.46142316791E+02  0.99999911492E+01 0.  0.
        -12    1    1    2    0    0  0.23839557078E+02 -0.96769114554E+01  0.36974943932E+02  0.45045683209E+02  0.00000000000E+00 0.  1.
         11    1    3    3    0    0 -0.30859872955E+01  0.12047413587E+00 -0.27825299237E+01  0.41569585809E+01  0.51100000000E-03 0. -1.
        -11    1    3    3    0    0 -0.26248424686E+01  0.48388695714E+01 -0.96644008177E+01  0.11122279449E+02  0.51100000000E-03 0.  1.
        -12    1    3    3    0    0 -0.18128727314E+02  0.47175677481E+01 -0.24528013191E+02  0.30863078761E+02  0.00000000000E+00 0.  1.
</event>
<event>
 7    1  0.3708346E-009  0.4614232E+02  0.7816164E-02  0.1320468E+00
        -11   -1    0    0    0    0  0.00000000000E+00  0.00000000000E+00  0.45593999997E+02  0.45594000000E+02  0.51100000000E-03 0. -1.
         11   -1    0    0    0    0 -0.00000000000E+00 -0.00000000000E+00 -0.45593999997E+02  0.45594000000E+02  0.51100000000E-03 0.  1.
    9900012    2    1    2    0    0 -0.11064894137E+02  0.41081691088E+02  0.14797846675E+02  0.46142317731E+02  0.99999997230E+01 0.  0.
        -12    1    1    2    0    0  0.11064894137E+02 -0.41081691088E+02 -0.14797846675E+02  0.45045682269E+02  0.00000000000E+00 0.  1.
         11    1    3    3    0    0 -0.11062253395E+02  0.26575194847E+02  0.75933199115E+01  0.29770336559E+02  0.51100000000E-03 0.  1.
        -11    1    3    3    0    0 -0.68491176647E+00  0.43129360134E+01  0.12299788142E+01  0.45368898298E+01  0.51100000000E-03 0. -1.
         12    1    3    3    0    0  0.68227102459E+00  0.10193560228E+02  0.59745479493E+01  0.11835091342E+02  0.00000000000E+00 0. -1.
</event>
<event>
 7    1  0.3708346E-009  0.4614232E+02  0.7816164E-02  0.1320468E+00
        -11   -1    0    0    0    0  0.00000000000E+00  0.00000000000E+00  0.45593999997E+02  0.45594000000E+02  0.51100000000E-03 0.  1.
         11   -1    0    0    0    0 -0.00000000000E+00 -0.00000000000E+00 -0.45593999997E+02  0.45594000000E+02  0.51100000000E-03 0. -1.
    9900012    2    1    2    0    0 -0.33364723105E+02 -0.18648365780E+02 -0.23835834976E+02  0.46142319595E+02  0.10000016721E+02 0.  0.
        -12    1    1    2    0    0  0.33364723105E+02  0.18648365780E+02  0.23835834976E+02  0.45045680405E+02  0.00000000000E+00 0.  1.
         11    1    3    3    0    0 -0.11675476647E+02 -0.93518442982E+01 -0.79089962544E+01  0.16921169248E+02  0.51100000000E-03 0. -1.
        -11    1    3    3    0    0 -0.19149010064E+01 -0.32486434395E+01 -0.31517760339E+01  0.49146945470E+01  0.51100000000E-03 0.  1.
        -12    1    3    3    0    0 -0.19774345452E+02 -0.60478780425E+01 -0.12775062688E+02  0.24306455799E+02  0.00000000000E+00 0.  1.
</event>
<event>
 7    1  0.3708346E-009  0.4614232E+02  0.7816164E-02  0.1320468E+00
        -11   -1    0    0    0    0  0.00000000000E+00  0.00000000000E+00  0.45593999997E+02  0.45594000000E+02  0.51100000000E-03 0.  1.
         11   -1    0    0    0    0 -0.00000000000E+00 -0.00000000000E+00 -0.45593999997E+02  0.45594000000E+02  0.51100000000E-03 0. -1.
    9900012    2    1    2    0    0  0.35839068260E+01  0.12360809817E+02 -0.43168036151E+02  0.46142319268E+02  0.10000013745E+02 0.  0.
        -12    1    1    2    0    0 -0.35839068260E+01 -0.12360809817E+02  0.43168036151E+02  0.45045680732E+02  0.00000000000E+00 0.  1.
         11    1    3    3    0    0  0.23410647040E+01  0.83805221922E+01 -0.19332371589E+02  0.21200337915E+02  0.51100000000E-03 0. -1.
        -11    1    3    3    0    0  0.25790490252E+01  0.26121564812E+01 -0.62169835739E+01  0.72198158132E+01  0.51100000000E-03 0.  1.
        -12    1    3    3    0    0 -0.13362069032E+01  0.13681311434E+01 -0.17618680987E+02  0.17722165541E+02  0.00000000000E+00 0.  1.
</event>
<event>
 7    1  0.3708346E-009  0.4614232E+02  0.7816164E-02  0.1320468E+00
        -11   -1    0    0    0    0  0.00000000000E+00  0.00000000000E+00  0.45593999997E+02  0.45594000000E+02  0.51100000000E-03 0.  1.
         11   -1    0    0    0    0 -0.00000000000E+00 -0.00000000000E+00 -0.45593999997E+02  0.45594000000E+02  0.51100000000E-03 0. -1.
    9900012    2    1    2    0    0 -0.36535158817E+02 -0.11593920881E+02 -0.23661713976E+02  0.46142317194E+02  0.99999948290E+01 0.  0.
        -12    1    1    2    0    0  0.36535158817E+02  0.11593920881E+02  0.23661713976E+02  0.45045682806E+02  0.00000000000E+00 0.  1.
         11    1    3    3    0    0 -0.22667941033E+02 -0.48908237207E+01 -0.14963811664E+02  0.27598394285E+02  0.51100000000E-03 0. -1.
        -11    1    3    3    0    0 -0.50923965451E+01 -0.31403479753E+01 -0.64752705766E+01  0.88160885476E+01  0.51100000000E-03 0.  1.
         12    1    3    3    0    0 -0.87748212389E+01 -0.35627491850E+01 -0.22226317354E+01  0.97278343613E+01  0.00000000000E+00 0. -1.
</event>
<event>
 7    1  0.3708346E-009  0.4614231E+02  0.7816164E-02  0.1320468E+00
        -11   -1    0    0    0    0  0.00000000000E+00  0.00000000000E+00  0.45593999997E+02  0.45594000000E+02  0.51100000000E-03 0. -1.
         11   -1    0    0    0    0 -0.00000000000E+00 -0.00000000000E+00 -0.45593999997E+02  0.45594000000E+02  0.51100000000E-03 0.  1.
    9900012    2    1    2    0    0 -0.13830588254E+02  0.34976793035E+02  0.24788160193E+02  0.46142310881E+02  0.99999372637E+01 0.  0.
        -12    1    1    2    0    0  0.13830588254E+02 -0.34976793035E+02 -0.24788160193E+02  0.45045689119E+02  0.00000000000E+00 0.  1.
         11    1    3    3    0    0 -0.77795966942E+01  0.11817416777E+02  0.56367831756E+01  0.15229799369E+02  0.51100000000E-03 0. -1.
        -11    1    3    3    0    0 -0.36138198693E+01  0.18245902128E+02  0.13130586280E+02  0.22768068316E+02  0.51100000000E-03 0.  1.
        -12    1    3    3    0    0 -0.24371716900E+01  0.49134741297E+01  0.60207907371E+01  0.81444431958E+01  0.00000000000E+00 0.  1.
</event>
<event>
 7    1  0.3708346E-009  0.4614232E+02  0.7816164E-02  0.1320468E+00
        -11   -1    0    0    0    0  0.00000000000E+00  0.00000000000E+00  0.45593999997E+02  0.45594000000E+02  0.51100000000E-03 0.  1.
         11   -1    0    0    0    0 -0.00000000000E+00 -0.00000000000E+00 -0.45593999997E+02  0.45594000000E+02  0.51100000000E-03 0. -1.
    9900012    2    1    2    0    0  0.25295503964E+02 -0.22672414256E+02  0.29583992770E+02  0.46142317441E+02  0.99999970817E+01 0.  0.
        -12    1    1    2    0    0 -0.25295503964E+02  0.22672414256E+02 -0.29583992770E+02  0.45045682559E+02  0.00000000000E+00 0.  1.
         11    1    3    3    0    0  0.14542915818E+02 -0.13933714779E+02  0.15187427560E+02  0.25225042402E+02  0.51100000000E-03 0. -1.
        -11    1    3    3    0    0  0.76871976746E-01 -0.14990940095E+01  0.42454852981E+01  0.45030365120E+01  0.51100000000E-03 0.  1.
         12    1    3    3    0    0  0.10675716169E+02 -0.72396054678E+01  0.10151079911E+02  0.16414238527E+02  0.00000000000E+00 0. -1.
</event>
<event>
 7    1  0.3708346E-009  0.4614232E+02  0.7816164E-02  0.1320468E+00
        -11   -1    0    0    0    0  0.00000000000E+00  0.00000000000E+00  0.45593999997E+02  0.45594000000E+02  0.51100000000E-03 0.  1.
         11   -1    0    0    0    0 -0.00000000000E+00 -0.00000000000E+00 -0.45593999997E+02  0.45594000000E+02  0.51100000000E-03 0. -1.
    9900012    2    1    2    0    0  0.26585653172E+01 -0.20565553705E+02 -0.39988792929E+02  0.46142317314E+02  0.99999959237E+01 0.  0.
        -12    1    1    2    0    0 -0.26585653172E+01  0.20565553705E+02  0.39988792929E+02  0.45045682686E+02  0.00000000000E+00 0.  1.
         11    1    3    3    0    0 -0.12196235132E+01 -0.72348017480E+01 -0.18941463499E+02  0.20312776216E+02  0.51100000000E-03 0. -1.
        -11    1    3    3    0    0  0.31616361822E-01 -0.67533580998E+01 -0.63275316535E+01  0.92545395512E+01  0.51100000000E-03 0.  1.
         12    1    3    3    0    0  0.38465724687E+01 -0.65773938569E+01 -0.14719797776E+02  0.16575001547E+02  0.00000000000E+00 0. -1.
</event>
<event>
 7    1  0.3708346E-009  0.4614232E+02  0.7816164E-02  0.1320468E+00
        -11   -1    0    0    0    0  0.00000000000E+00  0.00000000000E+00  0.45593999997E+02  0.45594000000E+02  0.51100000000E-03 0. -1.
         11   -1    0    0    0    0 -0.00000000000E+00 -0.00000000000E+00 -0.45593999997E+02  0.45594000000E+02  0.51100000000E-03 0.  1.
    9900012    2    1    2    0    0 -0.41811445389E+02  0.10623419346E+02  0.12963776522E+02  0.46142317567E+02  0.99999982306E+01 0.  0.
        -12    1    1    2    0    0  0.41811445389E+02 -0.10623419346E+02 -0.12963776522E+02  0.45045682433E+02  0.00000000000E+00 0.  1.
         11    1    3    3    0    0 -0.32602182946E+02  0.81709284696E+01  0.12467189827E+02  0.35848252780E+02  0.51100000000E-03 0. -1.
        -11    1    3    3    0    0 -0.75659527048E+01  0.31561286814E+01  0.13582587931E+01  0.83096122530E+01  0.51100000000E-03 0.  1.
         12    1    3    3    0    0 -0.16433097384E+01 -0.70363780527E+00 -0.86167209806E+00  0.19844525346E+01  0.00000000000E+00 0. -1.
</event>
<event>
 7    1  0.3708346E-009  0.4614232E+02  0.7816164E-02  0.1320468E+00
        -11   -1    0    0    0    0  0.00000000000E+00  0.00000000000E+00  0.45593999997E+02  0.45594000000E+02  0.51100000000E-03 0.  1.
         11   -1    0    0    0    0 -0.00000000000E+00 -0.00000000000E+00 -0.45593999997E+02  0.45594000000E+02  0.51100000000E-03 0. -1.
    9900012    2    1    2    0    0 -0.10077140893E+02 -0.21357199676E+02 -0.38359284921E+02  0.46142317785E+02  0.10000000218E+02 0.  0.
        -12    1    1    2    0    0  0.10077140893E+02  0.21357199676E+02  0.38359284921E+02  0.45045682215E+02  0.00000000000E+00 0.  1.
         11    1    3    3    0    0 -0.55337599568E+01 -0.16578318742E+02 -0.20043917389E+02  0.26593641648E+02  0.51100000000E-03 0. -1.
        -11    1    3    3    0    0 -0.11412535150E+01 -0.69938150649E+00 -0.21468836484E+01  0.25299612128E+01  0.51100000000E-03 0.  1.
         12    1    3    3    0    0 -0.34021274216E+01 -0.40794994277E+01 -0.16168483884E+02  0.17018714924E+02  0.00000000000E+00 0. -1.
</event>
<event>
 7    1  0.3708346E-009  0.4614231E+02  0.7816164E-02  0.1320468E+00
        -11   -1    0    0    0    0  0.00000000000E+00  0.00000000000E+00  0.45593999997E+02  0.45594000000E+02  0.51100000000E-03 0.  1.
         11   -1    0    0    0    0 -0.00000000000E+00 -0.00000000000E+00 -0.45593999997E+02  0.45594000000E+02  0.51100000000E-03 0. -1.
    9900012    2    1    2    0    0  0.40134051541E+02 -0.19116378716E+02 -0.72757002483E+01  0.46142313831E+02  0.99999641615E+01 0.  0.
        -12    1    1    2    0    0 -0.40134051541E+02  0.19116378716E+02  0.72757002483E+01  0.45045686169E+02  0.00000000000E+00 0.  1.
         11    1    3    3    0    0  0.17629209214E+02 -0.11141576181E+02 -0.58832190989E+01  0.21668779489E+02  0.51100000000E-03 0. -1.
        -11    1    3    3    0    0  0.50206580228E+01 -0.40952861392E+01 -0.10300966173E+01  0.65604477626E+01  0.51100000000E-03 0.  1.
         12    1    3    3    0    0  0.17484184304E+02 -0.38795163964E+01 -0.36238453207E+00  0.17913086580E+02  0.00000000000E+00 0. -1.
</event>
<event>
 7    1  0.3708346E-009  0.4614232E+02  0.7816164E-02  0.1320468E+00
        -11   -1    0    0    0    0  0.00000000000E+00  0.00000000000E+00  0.45593999997E+02  0.45594000000E+02  0.51100000000E-03 0.  1.
         11   -1    0    0    0    0 -0.00000000000E+00 -0.00000000000E+00 -0.45593999997E+02  0.45594000000E+02  0.51100000000E-03 0. -1.
    9900012    2    1    2    0    0 -0.12971540746E+01  0.14103467806E+02 -0.42761233308E+02  0.46142317778E+02  0.10000000150E+02 0.  0.
        -12    1    1    2    0    0  0.12971540746E+01 -0.14103467806E+02  0.42761233308E+02  0.45045682222E+02  0.00000000000E+00 0.  1.
         11    1    3    3    0    0 -0.18032148342E+01  0.90807869983E+01 -0.33464932320E+02  0.34721952302E+02  0.51100000000E-03 0. -1.
        -11    1    3    3    0    0  0.14661476059E+01 -0.25868705122E-01 -0.25229095369E+01  0.29181039708E+01  0.51100000000E-03 0.  1.
         12    1    3    3    0    0 -0.96008684630E+00  0.50485495131E+01 -0.67733914517E+01  0.85022615049E+01  0.00000000000E+00 0. -1.
</event>
<event>
 7    1  0.3708346E-009  0.4614232E+02  0.7816164E-02  0.1320468E+00
        -11   -1    0    0    0    0  0.00000000000E+00  0.00000000000E+00  0.45593999997E+02  0.45594000000E+02  0.51100000000E-03 0.  1.
         11   -1    0    0    0    0 -0.00000000000E+00 -0.00000000000E+00 -0.45593999997E+02  0.45594000000E+02  0.51100000000E-03 0. -1.
    9900012    2    1    2    0    0  0.38049712507E+02 -0.22036737931E+02 -0.97834096801E+01  0.46142317127E+02  0.99999942195E+01 0.  0.
        -12    1    1    2    0    0 -0.38049712507E+02  0.22036737931E+02  0.97834096801E+01  0.45045682873E+02  0.00000000000E+00 0.  1.
         11    1    3    3    0    0  0.24639653619E+02 -0.17696360062E+02 -0.76598638644E+01  0.31288132008E+02  0.51100000000E-03 0. -1.
        -11    1    3    3    0    0  0.11313594328E+02 -0.32857269764E+01 -0.32923250891E+01  0.12232449597E+02  0.51100000000E-03 0.  1.
        -12    1    3    3    0    0  0.20964645603E+01 -0.10546508929E+01  0.11687792734E+01  0.26217355222E+01  0.00000000000E+00 0.  1.
</event>
<event>
 7    1  0.3708346E-009  0.4614232E+02  0.7816164E-02  0.1320468E+00
        -11   -1    0    0    0    0  0.00000000000E+00  0.00000000000E+00  0.45593999997E+02  0.45594000000E+02  0.51100000000E-03 0.  1.
         11   -1    0    0    0    0 -0.00000000000E+00 -0.00000000000E+00 -0.45593999997E+02  0.45594000000E+02  0.51100000000E-03 0. -1.
    9900012    2    1    2    0    0 -0.15961059326E+02  0.29018397034E+02 -0.30533436363E+02  0.46142317440E+02  0.99999970692E+01 0.  0.
        -12    1    1    2    0    0  0.15961059326E+02 -0.29018397034E+02  0.30533436363E+02  0.45045682560E+02  0.00000000000E+00 0.  1.
         11    1    3    3    0    0 -0.60640302602E+01  0.36985702581E+01 -0.53954742939E+01  0.89198109883E+01  0.51100000000E-03 0. -1.
        -11    1    3    3    0    0 -0.61437888221E-01  0.20737792038E+01 -0.10223574625E+01  0.23129093892E+01  0.51100000000E-03 0.  1.
         12    1    3    3    0    0 -0.98355911777E+01  0.23246047572E+02 -0.24115604606E+02  0.34909597062E+02  0.00000000000E+00 0. -1.
</event>
<event>
 7    1  0.3708346E-009  0.4614232E+02  0.7816164E-02  0.1320468E+00
        -11   -1    0    0    0    0  0.00000000000E+00  0.00000000000E+00  0.45593999997E+02  0.45594000000E+02  0.51100000000E-03 0.  1.
         11   -1    0    0    0    0 -0.00000000000E+00 -0.00000000000E+00 -0.45593999997E+02  0.45594000000E+02  0.51100000000E-03 0. -1.
    9900012    2    1    2    0    0 -0.38297405288E+02 -0.21631630258E+01 -0.23616581971E+02  0.46142317964E+02  0.10000001849E+02 0.  0.
        -12    1    1    2    0    0  0.38297405288E+02  0.21631630258E+01  0.23616581971E+02  0.45045682036E+02  0.00000000000E+00 0.  1.
         11    1    3    3    0    0 -0.48422401040E+01 -0.26510208072E+01 -0.45078223733E+01  0.71271076430E+01  0.51100000000E-03 0. -1.
        -11    1    3    3    0    0 -0.16364642689E+01 -0.67248101776E+00  0.19611842989E+00  0.17800867176E+01  0.51100000000E-03 0.  1.
         12    1    3    3    0    0 -0.31818700915E+02  0.11603387991E+01 -0.19304878028E+02  0.37235123603E+02  0.00000000000E+00 0. -1.
</event>
<event>
 7    1  0.3708346E-009  0.4614232E+02  0.7816164E-02  0.1320468E+00
        -11   -1    0    0    0    0  0.00000000000E+00  0.00000000000E+00  0.45593999997E+02  0.45594000000E+02  0.51100000000E-03 0.  1.
         11   -1    0    0    0    0 -0.00000000000E+00 -0.00000000000E+00 -0.45593999997E+02  0.45594000000E+02  0.51100000000E-03 0. -1.
    9900012    2    1    2    0    0  0.37702360791E+02  0.10491722412E+02 -0.22306258933E+02  0.46142318343E+02  0.10000005303E+02 0.  0.
        -12    1    1    2    0    0 -0.37702360791E+02 -0.10491722412E+02  0.22306258933E+02  0.45045681657E+02  0.00000000000E+00 0.  1.
         11    1    3    3    0    0  0.23115629530E+02  0.64458428736E+01 -0.15112258498E+02  0.28359505921E+02  0.51100000000E-03 0. -1.
        -11    1    3    3    0    0  0.13596490443E+02  0.52302280308E+01 -0.57266467427E+01  0.15652933296E+02  0.51100000000E-03 0.  1.
        -12    1    3    3    0    0  0.99024081915E+00 -0.11843484924E+01 -0.14673536923E+01  0.21298791256E+01  0.00000000000E+00 0.  1.
</event>
<event>
 7    1  0.3708346E-009  0.4614233E+02  0.7816164E-02  0.1320468E+00
        -11   -1    0    0    0    0  0.00000000000E+00  0.00000000000E+00  0.45593999997E+02  0.45594000000E+02  0.51100000000E-03 0. -1.
         11   -1    0    0    0    0 -0.00000000000E+00 -0.00000000000E+00 -0.45593999997E+02  0.45594000000E+02  0.51100000000E-03 0.  1.
    9900012    2    1    2    0    0  0.36605097929E+02  0.14400981794E+01  0.26212696157E+02  0.46142328544E+02  0.10000098323E+02 0.  0.
        -12    1    1    2    0    0 -0.36605097929E+02 -0.14400981794E+01 -0.26212696157E+02  0.45045671456E+02  0.00000000000E+00 0.  1.
         11    1    3    3    0    0  0.24467974037E+01  0.35290491071E+00  0.43877880525E+01  0.50362727950E+01  0.51100000000E-03 0. -1.
        -11    1    3    3    0    0  0.68995370504E+01 -0.24879097002E+01  0.49353386328E+01  0.88402982906E+01  0.51100000000E-03 0.  1.
         12    1    3    3    0    0  0.27258763475E+02  0.35751029688E+01  0.16889569471E+02  0.32265757458E+02  0.00000000000E+00 0. -1.
</event>
<event>
 7    1  0.3708346E-009  0.4614232E+02  0.7816164E-02  0.1320468E+00
        -11   -1    0    0    0    0  0.00000000000E+00  0.00000000000E+00  0.45593999997E+02  0.45594000000E+02  0.51100000000E-03 0.  1.
         11   -1    0    0    0    0 -0.00000000000E+00 -0.00000000000E+00 -0.45593999997E+02  0.45594000000E+02  0.51100000000E-03 0. -1.
    9900012    2    1    2    0    0 -0.20754863456E+02 -0.22390861273E+02 -0.33120970567E+02  0.46142315224E+02  0.99999768618E+01 0.  0.
        -12    1    1    2    0    0  0.20754863456E+02  0.22390861273E+02  0.33120970567E+02  0.45045684776E+02  0.00000000000E+00 0.  1.
         11    1    3    3    0    0 -0.11411290556E+02 -0.14313031709E+02 -0.14574973705E+02  0.23398937746E+02  0.51100000000E-03 0. -1.
        -11    1    3    3    0    0 -0.44554343945E+00  0.59138041660E+00 -0.97336682467E+00  0.12229811896E+01  0.51100000000E-03 0.  1.
         12    1    3    3    0    0 -0.88980294604E+01 -0.86692099807E+01 -0.17572630037E+02  0.21520396288E+02  0.00000000000E+00 0. -1.
</event>
<event>
 7    1  0.3708346E-009  0.4614232E+02  0.7816164E-02  0.1320468E+00
        -11   -1    0    0    0    0  0.00000000000E+00  0.00000000000E+00  0.45593999997E+02  0.45594000000E+02  0.51100000000E-03 0. -1.
         11   -1    0    0    0    0 -0.00000000000E+00 -0.00000000000E+00 -0.45593999997E+02  0.45594000000E+02  0.51100000000E-03 0.  1.
    9900012    2    1    2    0    0 -0.14289358244E+02  0.26687131151E+02  0.33357527449E+02  0.46142319124E+02  0.10000012429E+02 0.  0.
        -12    1    1    2    0    0  0.14289358244E+02 -0.26687131151E+02 -0.33357527449E+02  0.45045680876E+02  0.00000000000E+00 0.  1.
         11    1    3    3    0    0 -0.71910032098E+01  0.14457661744E+02  0.12458742405E+02  0.20394969303E+02  0.51100000000E-03 0. -1.
        -11    1    3    3    0    0 -0.78326929117E+01  0.11716024240E+02  0.20090146253E+02  0.24540380579E+02  0.51100000000E-03 0.  1.
         12    1    3    3    0    0  0.73433787793E+00  0.51344516601E+00  0.80863879090E+00  0.12069692422E+01  0.00000000000E+00 0. -1.
</event>
<event>
 7    1  0.3708346E-009  0.4614232E+02  0.7816164E-02  0.1320468E+00
        -11   -1    0    0    0    0  0.00000000000E+00  0.00000000000E+00  0.45593999997E+02  0.45594000000E+02  0.51100000000E-03 0.  1.
         11   -1    0    0    0    0 -0.00000000000E+00 -0.00000000000E+00 -0.45593999997E+02  0.45594000000E+02  0.51100000000E-03 0. -1.
    9900012    2    1    2    0    0 -0.44718445351E+01  0.31362051277E+02 -0.32024021087E+02  0.46142316739E+02  0.99999906820E+01 0.  0.
        -12    1    1    2    0    0  0.44718445351E+01 -0.31362051277E+02  0.32024021087E+02  0.45045683261E+02  0.00000000000E+00 0.  1.
         11    1    3    3    0    0  0.96384098266E+00  0.28116960467E+01 -0.92048434382E+00  0.31115777007E+01  0.51100000000E-03 0.  1.
        -11    1    3    3    0    0 -0.32011606133E+01  0.15965307220E+02 -0.12829024954E+02  0.20729745427E+02  0.51100000000E-03 0. -1.
        -12    1    3    3    0    0 -0.22345249045E+01  0.12585048010E+02 -0.18274511789E+02  0.22300993612E+02  0.00000000000E+00 0.  1.
</event>
<event>
 7    1  0.3708346E-009  0.4614232E+02  0.7816164E-02  0.1320468E+00
        -11   -1    0    0    0    0  0.00000000000E+00  0.00000000000E+00  0.45593999997E+02  0.45594000000E+02  0.51100000000E-03 0.  1.
         11   -1    0    0    0    0 -0.00000000000E+00 -0.00000000000E+00 -0.45593999997E+02  0.45594000000E+02  0.51100000000E-03 0. -1.
    9900012    2    1    2    0    0  0.38314369373E+01  0.30965307249E+02 -0.32489741924E+02  0.46142317717E+02  0.99999995974E+01 0.  0.
        -12    1    1    2    0    0 -0.38314369373E+01 -0.30965307249E+02  0.32489741924E+02  0.45045682283E+02  0.00000000000E+00 0.  1.
         11    1    3    3    0    0  0.27091464796E+01  0.28555647723E+02 -0.27513326432E+02  0.39746039087E+02  0.51100000000E-03 0. -1.
        -11    1    3    3    0    0  0.19897902146E+01  0.12126063060E+01 -0.19911678145E+01  0.30650332263E+01  0.51100000000E-03 0.  1.
        -12    1    3    3    0    0 -0.86749975695E+00  0.11970532207E+01 -0.29852476776E+01  0.33312454034E+01  0.00000000000E+00 0.  1.
</event>
<event>
 7    1  0.3708346E-009  0.4614232E+02  0.7816164E-02  0.1320468E+00
        -11   -1    0    0    0    0  0.00000000000E+00  0.00000000000E+00  0.45593999997E+02  0.45594000000E+02  0.51100000000E-03 0.  1.
         11   -1    0    0    0    0 -0.00000000000E+00 -0.00000000000E+00 -0.45593999997E+02  0.45594000000E+02  0.51100000000E-03 0. -1.
    9900012    2    1    2    0    0  0.27679944763E+02 -0.33816827057E+02 -0.10925039774E+02  0.46142316207E+02  0.99999858253E+01 0.  0.
        -12    1    1    2    0    0 -0.27679944763E+02  0.33816827057E+02  0.10925039774E+02  0.45045683793E+02  0.00000000000E+00 0.  1.
         11    1    3    3    0    0  0.50165518520E+00 -0.41665476547E+01 -0.19254530095E+01  0.46172661648E+01  0.51100000000E-03 0. -1.
        -11    1    3    3    0    0  0.25554584341E+02 -0.27652862214E+02 -0.70762799392E+01  0.38311764610E+02  0.51100000000E-03 0.  1.
        -12    1    3    3    0    0  0.16237052372E+01 -0.19974171890E+01 -0.19233068257E+01  0.32132854324E+01  0.00000000000E+00 0.  1.
</event>
<event>
 7    1  0.3708346E-009  0.4614232E+02  0.7816164E-02  0.1320468E+00
        -11   -1    0    0    0    0  0.00000000000E+00  0.00000000000E+00  0.45593999997E+02  0.45594000000E+02  0.51100000000E-03 0.  1.
         11   -1    0    0    0    0 -0.00000000000E+00 -0.00000000000E+00 -0.45593999997E+02  0.45594000000E+02  0.51100000000E-03 0. -1.
    9900012    2    1    2    0    0 -0.40361605293E+02 -0.15280037491E+02 -0.12906379513E+02  0.46142319189E+02  0.10000013022E+02 0.  0.
        -12    1    1    2    0    0  0.40361605293E+02  0.15280037491E+02  0.12906379513E+02  0.45045680811E+02  0.00000000000E+00 0.  1.
         11    1    3    3    0    0 -0.49161483441E+01 -0.18704093359E+01 -0.49401605799E+01  0.72161023026E+01  0.51100000000E-03 0. -1.
        -11    1    3    3    0    0 -0.22379174870E+02 -0.10078055440E+02 -0.39743881874E+01  0.24863435624E+02  0.51100000000E-03 0.  1.
        -12    1    3    3    0    0 -0.13066282080E+02 -0.33315727153E+01 -0.39918307460E+01  0.14062781263E+02  0.00000000000E+00 0.  1.
</event>
<event>
 7    1  0.3708346E-009  0.4614232E+02  0.7816164E-02  0.1320468E+00
        -11   -1    0    0    0    0  0.00000000000E+00  0.00000000000E+00  0.45593999997E+02  0.45594000000E+02  0.51100000000E-03 0.  1.
         11   -1    0    0    0    0 -0.00000000000E+00 -0.00000000000E+00 -0.45593999997E+02  0.45594000000E+02  0.51100000000E-03 0. -1.
    9900012    2    1    2    0    0 -0.13730426109E+02  0.41701969937E+02 -0.10076436125E+02  0.46142318046E+02  0.10000002597E+02 0.  0.
        -12    1    1    2    0    0  0.13730426109E+02 -0.41701969937E+02  0.10076436125E+02  0.45045681954E+02  0.00000000000E+00 0.  1.
         11    1    3    3    0    0  0.26222571525E+00  0.45730187586E+01  0.73796876217E+00  0.46395970781E+01  0.51100000000E-03 0.  1.
        -11    1    3    3    0    0 -0.78207837032E+01  0.16209994636E+02 -0.72480038081E+01  0.19402632381E+02  0.51100000000E-03 0. -1.
         12    1    3    3    0    0 -0.61718681210E+01  0.20918956542E+02 -0.35664010795E+01  0.22100088587E+02  0.00000000000E+00 0. -1.
</event>
<event>
 7    1  0.3708346E-009  0.4614232E+02  0.7816164E-02  0.1320468E+00
        -11   -1    0    0    0    0  0.00000000000E+00  0.00000000000E+00  0.45593999997E+02  0.45594000000E+02  0.51100000000E-03 0. -1.
         11   -1    0    0    0    0 -0.00000000000E+00 -0.00000000000E+00 -0.45593999997E+02  0.45594000000E+02  0.51100000000E-03 0.  1.
    9900012    2    1    2    0    0  0.14253952211E+02 -0.36496184857E+02  0.22225363385E+02  0.46142318294E+02  0.10000004861E+02 0.  0.
        -12    1    1    2    0    0 -0.14253952211E+02  0.36496184857E+02 -0.22225363385E+02  0.45045681706E+02  0.00000000000E+00 0.  1.
         11    1    3    3    0    0  0.11903900487E+01 -0.10922924650E+02  0.83190092608E+01  0.13781626418E+02  0.51100000000E-03 0. -1.
        -11    1    3    3    0    0 -0.73421306296E-01 -0.43118287140E+00 -0.39759555650E+00  0.59109376961E+00  0.51100000000E-03 0.  1.
         12    1    3    3    0    0  0.13136983469E+02 -0.25142077335E+02  0.14303949681E+02  0.31769598107E+02  0.00000000000E+00 0. -1.
</event>
<event>
 7    1  0.3708346E-009  0.4614232E+02  0.7816164E-02  0.1320468E+00
        -11   -1    0    0    0    0  0.00000000000E+00  0.00000000000E+00  0.45593999997E+02  0.45594000000E+02  0.51100000000E-03 0. -1.
         11   -1    0    0    0    0 -0.00000000000E+00 -0.00000000000E+00 -0.45593999997E+02  0.45594000000E+02  0.51100000000E-03 0.  1.
    9900012    2    1    2    0    0 -0.35068411302E+02 -0.18422327608E+02  0.21446162333E+02  0.46142317582E+02  0.99999983632E+01 0.  0.
        -12    1    1    2    0    0  0.35068411302E+02  0.18422327608E+02 -0.21446162333E+02  0.45045682418E+02  0.00000000000E+00 0.  1.
         11    1    3    3    0    0 -0.13346535781E+02 -0.66784065442E+01  0.90092584535E+01  0.17432666734E+02  0.51100000000E-03 0. -1.
        -11    1    3    3    0    0 -0.83887639059E+01 -0.44876211011E+00  0.39255348999E+01  0.92726787830E+01  0.51100000000E-03 0.  1.
        -12    1    3    3    0    0 -0.13333111614E+02 -0.11295158954E+02  0.85113689796E+01  0.19436972064E+02  0.00000000000E+00 0.  1.
</event>
<event>
 7    1  0.3708346E-009  0.4614232E+02  0.7816164E-02  0.1320468E+00
        -11   -1    0    0    0    0  0.00000000000E+00  0.00000000000E+00  0.45593999997E+02  0.45594000000E+02  0.51100000000E-03 0. -1.
         11   -1    0    0    0    0 -0.00000000000E+00 -0.00000000000E+00 -0.45593999997E+02  0.45594000000E+02  0.51100000000E-03 0.  1.
    9900012    2    1    2    0    0 -0.62051635352E+01  0.44591108725E+02 -0.14975001520E+01  0.46142317205E+02  0.99999949272E+01 0.  0.
        -12    1    1    2    0    0  0.62051635352E+01 -0.44591108725E+02  0.14975001520E+01  0.45045682795E+02  0.00000000000E+00 0.  1.
         11    1    3    3    0    0 -0.39229022123E+00  0.26693351581E+01 -0.24746994553E+01  0.36610626133E+01  0.51100000000E-03 0.  1.
        -11    1    3    3    0    0 -0.53786334514E+01  0.26428079128E+02  0.53397029718E+00  0.26975140198E+02  0.51100000000E-03 0. -1.
         12    1    3    3    0    0 -0.43423986259E+00  0.15493694439E+02  0.44322900603E+00  0.15506114393E+02  0.00000000000E+00 0. -1.
</event>
<event>
 7    1  0.3708346E-009  0.4614232E+02  0.7816164E-02  0.1320468E+00
        -11   -1    0    0    0    0  0.00000000000E+00  0.00000000000E+00  0.45593999997E+02  0.45594000000E+02  0.51100000000E-03 0.  1.
         11   -1    0    0    0    0 -0.00000000000E+00 -0.00000000000E+00 -0.45593999997E+02  0.45594000000E+02  0.51100000000E-03 0. -1.
    9900012    2    1    2    0    0 -0.25002006665E+01  0.29989591033E+02 -0.33518456527E+02  0.46142317613E+02  0.99999986520E+01 0.  0.
        -12    1    1    2    0    0  0.25002006665E+01 -0.29989591033E+02  0.33518456527E+02  0.45045682387E+02  0.00000000000E+00 0.  1.
         11    1    3    3    0    0 -0.18422640092E+01  0.13158681437E+02 -0.12935709587E+02  0.18543932071E+02  0.51100000000E-03 0. -1.
        -11    1    3    3    0    0 -0.57729914848E+00  0.27000278247E+00 -0.43914840390E+01  0.44374889448E+01  0.51100000000E-03 0.  1.
        -12    1    3    3    0    0 -0.80637508774E-01  0.16560906814E+02 -0.16191262901E+02  0.23160896598E+02  0.00000000000E+00 0.  1.
</event>
<event>
 7    1  0.3708346E-009  0.4614232E+02  0.7816164E-02  0.1320468E+00
        -11   -1    0    0    0    0  0.00000000000E+00  0.00000000000E+00  0.45593999997E+02  0.45594000000E+02  0.51100000000E-03 0. -1.
         11   -1    0    0    0    0 -0.00000000000E+00 -0.00000000000E+00 -0.45593999997E+02  0.45594000000E+02  0.51100000000E-03 0.  1.
    9900012    2    1    2    0    0 -0.28015795017E+01 -0.31472049034E+02  0.32105678144E+02  0.46142319994E+02  0.10000020358E+02 0.  0.
        -12    1    1    2    0    0  0.28015795017E+01  0.31472049034E+02 -0.32105678144E+02  0.45045680006E+02  0.00000000000E+00 0.  1.
         11    1    3    3    0    0 -0.31852170886E+01 -0.10827286581E+02  0.16889750971E+02  0.20313528269E+02  0.51100000000E-03 0. -1.
        -11    1    3    3    0    0  0.13483264038E+01 -0.13270353029E+02  0.85677626743E+01  0.15853290230E+02  0.51100000000E-03 0.  1.
        -12    1    3    3    0    0 -0.96468881681E+00 -0.73744094242E+01  0.66481644994E+01  0.99755014952E+01  0.00000000000E+00 0.  1.
</event>
<event>
 7    1  0.3708346E-009  0.4614232E+02  0.7816164E-02  0.1320468E+00
        -11   -1    0    0    0    0  0.00000000000E+00  0.00000000000E+00  0.45593999997E+02  0.45594000000E+02  0.51100000000E-03 0. -1.
         11   -1    0    0    0    0 -0.00000000000E+00 -0.00000000000E+00 -0.45593999997E+02  0.45594000000E+02  0.51100000000E-03 0.  1.
    9900012    2    1    2    0    0  0.40637438017E+01  0.31096275837E+02  0.32336067147E+02  0.46142316265E+02  0.99999863567E+01 0.  0.
        -12    1    1    2    0    0 -0.40637438017E+01 -0.31096275837E+02 -0.32336067147E+02  0.45045683735E+02  0.00000000000E+00 0.  1.
         11    1    3    3    0    0  0.12545159025E+01  0.10749214552E+02  0.84024576825E+01  0.13701121085E+02  0.51100000000E-03 0.  1.
        -11    1    3    3    0    0  0.38422068753E+01  0.15267229622E+02  0.13291716304E+02  0.20603897121E+02  0.51100000000E-03 0. -1.
        -12    1    3    3    0    0 -0.10329789761E+01  0.50798316638E+01  0.10641893160E+02  0.11837298059E+02  0.00000000000E+00 0.  1.
</event>
<event>
 7    1  0.3708346E-009  0.4614232E+02  0.7816164E-02  0.1320468E+00
        -11   -1    0    0    0    0  0.00000000000E+00  0.00000000000E+00  0.45593999997E+02  0.45594000000E+02  0.51100000000E-03 0.  1.
         11   -1    0    0    0    0 -0.00000000000E+00 -0.00000000000E+00 -0.45593999997E+02  0.45594000000E+02  0.51100000000E-03 0. -1.
    9900012    2    1    2    0    0 -0.32640974336E+02  0.19921572308E+02 -0.23807797005E+02  0.46142318220E+02  0.10000004185E+02 0.  0.
        -12    1    1    2    0    0  0.32640974336E+02 -0.19921572308E+02  0.23807797005E+02  0.45045681780E+02  0.00000000000E+00 0.  1.
         11    1    3    3    0    0 -0.16958170447E+02  0.14337978196E+02 -0.10031093071E+02  0.24367601279E+02  0.51100000000E-03 0. -1.
        -11    1    3    3    0    0 -0.65590220859E+01  0.12798762417E+01 -0.43938039384E+01  0.79977726416E+01  0.51100000000E-03 0.  1.
         12    1    3    3    0    0 -0.91237818029E+01  0.43037178701E+01 -0.93828999954E+01  0.13776944299E+02  0.00000000000E+00 0. -1.
</event>
<event>
 7    1  0.3708346E-009  0.4614232E+02  0.7816164E-02  0.1320468E+00
        -11   -1    0    0    0    0  0.00000000000E+00  0.00000000000E+00  0.45593999997E+02  0.45594000000E+02  0.51100000000E-03 0. -1.
         11   -1    0    0    0    0 -0.00000000000E+00 -0.00000000000E+00 -0.45593999997E+02  0.45594000000E+02  0.51100000000E-03 0.  1.
    9900012    2    1    2    0    0 -0.17221219151E+02  0.41160814581E+02 -0.61911551625E+01  0.46142318206E+02  0.10000004056E+02 0.  0.
        -12    1    1    2    0    0  0.17221219151E+02 -0.41160814581E+02  0.61911551625E+01  0.45045681794E+02  0.00000000000E+00 0.  1.
         11    1    3    3    0    0 -0.12730922372E+00  0.49003217098E+01 -0.36239540227E+00  0.49153526004E+01  0.51100000000E-03 0. -1.
        -11    1    3    3    0    0  0.22656075053E+00  0.30228735053E+01 -0.18141399855E+01  0.35327323916E+01  0.51100000000E-03 0.  1.
         12    1    3    3    0    0 -0.17320470678E+02  0.33237619366E+02 -0.40146197747E+01  0.37694233214E+02  0.00000000000E+00 0. -1.
</event>
<event>
 7    1  0.3708346E-009  0.4614232E+02  0.7816164E-02  0.1320468E+00
        -11   -1    0    0    0    0  0.00000000000E+00  0.00000000000E+00  0.45593999997E+02  0.45594000000E+02  0.51100000000E-03 0.  1.
         11   -1    0    0    0    0 -0.00000000000E+00 -0.00000000000E+00 -0.45593999997E+02  0.45594000000E+02  0.51100000000E-03 0. -1.
    9900012    2    1    2    0    0  0.35128726039E+02  0.21422411000E+02 -0.18334843080E+02  0.46142316999E+02  0.99999930544E+01 0.  0.
        -12    1    1    2    0    0 -0.35128726039E+02 -0.21422411000E+02  0.18334843080E+02  0.45045683001E+02  0.00000000000E+00 0.  1.
         11    1    3    3    0    0  0.13786742325E+02  0.84018003355E+01 -0.91134212620E+01  0.18539659117E+02  0.51100000000E-03 0. -1.
        -11    1    3    3    0    0  0.11280196669E+02  0.46930480571E+01 -0.77283697692E+01  0.14456667545E+02  0.51100000000E-03 0.  1.
        -12    1    3    3    0    0  0.10061787046E+02  0.83275626078E+01 -0.14930520491E+01  0.13145990338E+02  0.00000000000E+00 0.  1.
</event>
<event>
 7    1  0.3708346E-009  0.4614232E+02  0.7816164E-02  0.1320468E+00
        -11   -1    0    0    0    0  0.00000000000E+00  0.00000000000E+00  0.45593999997E+02  0.45594000000E+02  0.51100000000E-03 0.  1.
         11   -1    0    0    0    0 -0.00000000000E+00 -0.00000000000E+00 -0.45593999997E+02  0.45594000000E+02  0.51100000000E-03 0. -1.
    9900012    2    1    2    0    0  0.12347762567E+02 -0.11889874980E+02 -0.41656657779E+02  0.46142317579E+02  0.99999983382E+01 0.  0.
        -12    1    1    2    0    0 -0.12347762567E+02  0.11889874980E+02  0.41656657779E+02  0.45045682421E+02  0.00000000000E+00 0.  1.
         11    1    3    3    0    0  0.11346015503E+02 -0.91913357722E+01 -0.32207432694E+02  0.35362853987E+02  0.51100000000E-03 0. -1.
        -11    1    3    3    0    0 -0.12639415492E+01 -0.26330609535E+01 -0.52993034672E+01  0.60508822269E+01  0.51100000000E-03 0.  1.
         12    1    3    3    0    0  0.22656886129E+01 -0.65478253805E-01 -0.41499216182E+01  0.47285813654E+01  0.00000000000E+00 0. -1.
</event>
<event>
 7    1  0.3708346E-009  0.4614232E+02  0.7816164E-02  0.1320468E+00
        -11   -1    0    0    0    0  0.00000000000E+00  0.00000000000E+00  0.45593999997E+02  0.45594000000E+02  0.51100000000E-03 0.  1.
         11   -1    0    0    0    0 -0.00000000000E+00 -0.00000000000E+00 -0.45593999997E+02  0.45594000000E+02  0.51100000000E-03 0. -1.
    9900012    2    1    2    0    0  0.30282033752E+02 -0.92749422414E+01 -0.32032597666E+02  0.46142318354E+02  0.10000005405E+02 0.  0.
        -12    1    1    2    0    0 -0.30282033752E+02  0.92749422414E+01  0.32032597666E+02  0.45045681646E+02  0.00000000000E+00 0.  1.
         11    1    3    3    0    0  0.10864812415E+02 -0.11355231455E+01 -0.10644115792E+02  0.15252237964E+02  0.51100000000E-03 0. -1.
        -11    1    3    3    0    0  0.14208601133E+02 -0.48541895370E+01 -0.10305889529E+02  0.18211503548E+02  0.51100000000E-03 0.  1.
        -12    1    3    3    0    0  0.52086202032E+01 -0.32852295589E+01 -0.11082592344E+02  0.12678576842E+02  0.00000000000E+00 0.  1.
</event>
<event>
 7    1  0.3708346E-009  0.4614232E+02  0.7816164E-02  0.1320468E+00
        -11   -1    0    0    0    0  0.00000000000E+00  0.00000000000E+00  0.45593999997E+02  0.45594000000E+02  0.51100000000E-03 0.  1.
         11   -1    0    0    0    0 -0.00000000000E+00 -0.00000000000E+00 -0.45593999997E+02  0.45594000000E+02  0.51100000000E-03 0. -1.
    9900012    2    1    2    0    0 -0.16750300667E+02  0.17850230137E+02 -0.37814145595E+02  0.46142324342E+02  0.10000060013E+02 0.  0.
        -12    1    1    2    0    0  0.16750300667E+02 -0.17850230137E+02  0.37814145595E+02  0.45045675658E+02  0.00000000000E+00 0.  1.
         11    1    3    3    0    0 -0.85927281608E+00  0.51484221638E+00 -0.72620997019E+01  0.73308597465E+01  0.51100000000E-03 0. -1.
        -11    1    3    3    0    0 -0.24759794061E+01  0.11687846601E+01 -0.21329866504E+01  0.34707584060E+01  0.51100000000E-03 0.  1.
         12    1    3    3    0    0 -0.13415048445E+02  0.16166603261E+02 -0.28419059243E+02  0.35340706190E+02  0.00000000000E+00 0. -1.
</event>
<event>
 7    1  0.3708346E-009  0.4614232E+02  0.7816164E-02  0.1320468E+00
        -11   -1    0    0    0    0  0.00000000000E+00  0.00000000000E+00  0.45593999997E+02  0.45594000000E+02  0.51100000000E-03 0.  1.
         11   -1    0    0    0    0 -0.00000000000E+00 -0.00000000000E+00 -0.45593999997E+02  0.45594000000E+02  0.51100000000E-03 0. -1.
    9900012    2    1    2    0    0 -0.23127268032E+02  0.37314520792E+02  0.10093033586E+02  0.46142319680E+02  0.10000017495E+02 0.  0.
        -12    1    1    2    0    0  0.23127268032E+02 -0.37314520792E+02 -0.10093033586E+02  0.45045680320E+02  0.00000000000E+00 0.  1.
         11    1    3    3    0    0 -0.10140446943E+01  0.56286029120E+01  0.32323585205E+01  0.65694443638E+01  0.51100000000E-03 0. -1.
        -11    1    3    3    0    0 -0.24938076040E+01  0.70309931118E+01  0.10657705571E+01  0.75359012497E+01  0.51100000000E-03 0.  1.
         12    1    3    3    0    0 -0.19619415734E+02  0.24654924768E+02  0.57949045087E+01  0.32036974066E+02  0.00000000000E+00 0. -1.
</event>
<event>
 7    1  0.3708346E-009  0.4614232E+02  0.7816164E-02  0.1320468E+00
        -11   -1    0    0    0    0  0.00000000000E+00  0.00000000000E+00  0.45593999997E+02  0.45594000000E+02  0.51100000000E-03 0.  1.
         11   -1    0    0    0    0 -0.00000000000E+00 -0.00000000000E+00 -0.45593999997E+02  0.45594000000E+02  0.51100000000E-03 0. -1.
    9900012    2    1    2    0    0  0.33009070567E+02  0.29743849314E+02 -0.74039256304E+01  0.46142318448E+02  0.10000006266E+02 0.  0.
        -12    1    1    2    0    0 -0.33009070567E+02 -0.29743849314E+02  0.74039256304E+01  0.45045681552E+02  0.00000000000E+00 0.  1.
         11    1    3    3    0    0  0.27500437094E+02  0.19855344659E+02 -0.62356364759E+01  0.34487561735E+02  0.51100000000E-03 0. -1.
        -11    1    3    3    0    0  0.41936749114E+01  0.83400485756E+01 -0.18408973166E+01  0.95148422319E+01  0.51100000000E-03 0.  1.
         12    1    3    3    0    0  0.13149585617E+01  0.15484560794E+01  0.67260816218E+00  0.21399144816E+01  0.00000000000E+00 0. -1.
</event>
<event>
 7    1  0.3708346E-009  0.4614232E+02  0.7816164E-02  0.1320468E+00
        -11   -1    0    0    0    0  0.00000000000E+00  0.00000000000E+00  0.45593999997E+02  0.45594000000E+02  0.51100000000E-03 0.  1.
         11   -1    0    0    0    0 -0.00000000000E+00 -0.00000000000E+00 -0.45593999997E+02  0.45594000000E+02  0.51100000000E-03 0. -1.
    9900012    2    1    2    0    0 -0.29190931939E+02 -0.33824972492E+02  0.57335951913E+01  0.46142318904E+02  0.10000010426E+02 0.  0.
        -12    1    1    2    0    0  0.29190931939E+02  0.33824972492E+02 -0.57335951913E+01  0.45045681096E+02  0.00000000000E+00 0.  1.
         11    1    3    3    0    0 -0.14672822398E+02 -0.12453988110E+02  0.43604527909E+01  0.19733400259E+02  0.51100000000E-03 0. -1.
        -11    1    3    3    0    0 -0.18941918691E+01 -0.13217735520E+01 -0.11540409117E+01  0.25820261127E+01  0.51100000000E-03 0.  1.
         12    1    3    3    0    0 -0.12623917671E+02 -0.20049210830E+02  0.25271833121E+01  0.23826892533E+02  0.00000000000E+00 0. -1.
</event>
<event>
 7    1  0.3708346E-009  0.4614232E+02  0.7816164E-02  0.1320468E+00
        -11   -1    0    0    0    0  0.00000000000E+00  0.00000000000E+00  0.45593999997E+02  0.45594000000E+02  0.51100000000E-03 0.  1.
         11   -1    0    0    0    0 -0.00000000000E+00 -0.00000000000E+00 -0.45593999997E+02  0.45594000000E+02  0.51100000000E-03 0. -1.
    9900012    2    1    2    0    0 -0.23293981974E+02  0.33595345893E+02 -0.18917098702E+02  0.46142317797E+02  0.10000000326E+02 0.  0.
        -12    1    1    2    0    0  0.23293981974E+02 -0.33595345893E+02  0.18917098702E+02  0.45045682203E+02  0.00000000000E+00 0.  1.
         11    1    3    3    0    0 -0.13781090312E+02  0.21092587204E+02 -0.14527877701E+02  0.29083928825E+02  0.51100000000E-03 0. -1.
        -11    1    3    3    0    0 -0.10070450032E+02  0.11173007912E+02 -0.40431166119E+01  0.15575521238E+02  0.51100000000E-03 0.  1.
        -12    1    3    3    0    0  0.55755837107E+00  0.13297507773E+01 -0.34610438977E+00  0.14828677337E+01  0.00000000000E+00 0.  1.
</event>
<event>
 7    1  0.3708346E-009  0.4614232E+02  0.7816164E-02  0.1320468E+00
        -11   -1    0    0    0    0  0.00000000000E+00  0.00000000000E+00  0.45593999997E+02  0.45594000000E+02  0.51100000000E-03 0. -1.
         11   -1    0    0    0    0 -0.00000000000E+00 -0.00000000000E+00 -0.45593999997E+02  0.45594000000E+02  0.51100000000E-03 0.  1.
    9900012    2    1    2    0    0  0.28068257750E+02 -0.35212791208E+02  0.11600445772E+01  0.46142318063E+02  0.10000002752E+02 0.  0.
        -12    1    1    2    0    0 -0.28068257750E+02  0.35212791208E+02 -0.11600445772E+01  0.45045681937E+02  0.00000000000E+00 0.  1.
         11    1    3    3    0    0  0.11015593369E+02 -0.12439375142E+02  0.72078714277E+00  0.16631322423E+02  0.51100000000E-03 0. -1.
        -11    1    3    3    0    0  0.15111711173E+02 -0.19239704013E+02 -0.23964028415E+01  0.24581960294E+02  0.51100000000E-03 0.  1.
        -12    1    3    3    0    0  0.19409532076E+01 -0.35337120537E+01  0.28356602759E+01  0.49290353451E+01  0.00000000000E+00 0.  1.
</event>
<event>
 7    1  0.3708346E-009  0.4614232E+02  0.7816164E-02  0.1320468E+00
        -11   -1    0    0    0    0  0.00000000000E+00  0.00000000000E+00  0.45593999997E+02  0.45594000000E+02  0.51100000000E-03 0. -1.
         11   -1    0    0    0    0 -0.00000000000E+00 -0.00000000000E+00 -0.45593999997E+02  0.45594000000E+02  0.51100000000E-03 0.  1.
    9900012    2    1    2    0    0 -0.36292425048E+02  0.19965092534E+02  0.17702216542E+02  0.46142317562E+02  0.99999981889E+01 0.  0.
        -12    1    1    2    0    0  0.36292425048E+02 -0.19965092534E+02 -0.17702216542E+02  0.45045682438E+02  0.00000000000E+00 0.  1.
         11    1    3    3    0    0 -0.85095227223E+01  0.70460935789E+01  0.88157848934E+00  0.11083167082E+02  0.51100000000E-03 0. -1.
        -11    1    3    3    0    0 -0.10937703071E+02  0.47650486164E+01  0.50850508079E+01  0.12969070081E+02  0.51100000000E-03 0.  1.
         12    1    3    3    0    0 -0.16845199255E+02  0.81539503387E+01  0.11735587244E+02  0.22090080399E+02  0.00000000000E+00 0. -1.
</event>
<event>
 7    1  0.3708346E-009  0.4614232E+02  0.7816164E-02  0.1320468E+00
        -11   -1    0    0    0    0  0.00000000000E+00  0.00000000000E+00  0.45593999997E+02  0.45594000000E+02  0.51100000000E-03 0. -1.
         11   -1    0    0    0    0 -0.00000000000E+00 -0.00000000000E+00 -0.45593999997E+02  0.45594000000E+02  0.51100000000E-03 0.  1.
    9900012    2    1    2    0    0  0.18074344317E+02  0.20764283945E+02  0.35654957726E+02  0.46142318513E+02  0.10000006855E+02 0.  0.
        -12    1    1    2    0    0 -0.18074344317E+02 -0.20764283945E+02 -0.35654957726E+02  0.45045681487E+02  0.00000000000E+00 0.  1.
         11    1    3    3    0    0  0.53034353959E+01  0.58022612051E+01  0.13865647593E+02  0.15938909797E+02  0.51100000000E-03 0. -1.
        -11    1    3    3    0    0  0.44614042119E+01  0.41804858470E+01  0.25241647104E+01  0.66145292504E+01  0.51100000000E-03 0.  1.
        -12    1    3    3    0    0  0.83095047088E+01  0.10781536893E+02  0.19265145423E+02  0.23588879466E+02  0.00000000000E+00 0.  1.
</event>
<event>
 7    1  0.3708346E-009  0.4614232E+02  0.7816164E-02  0.1320468E+00
        -11   -1    0    0    0    0  0.00000000000E+00  0.00000000000E+00  0.45593999997E+02  0.45594000000E+02  0.51100000000E-03 0.  1.
         11   -1    0    0    0    0 -0.00000000000E+00 -0.00000000000E+00 -0.45593999997E+02  0.45594000000E+02  0.51100000000E-03 0. -1.
    9900012    2    1    2    0    0  0.32007401249E+02  0.18284812923E+02 -0.25890256779E+02  0.46142317471E+02  0.99999973584E+01 0.  0.
        -12    1    1    2    0    0 -0.32007401249E+02 -0.18284812923E+02  0.25890256779E+02  0.45045682529E+02  0.00000000000E+00 0.  1.
         11    1    3    3    0    0  0.11577550377E+02  0.19877264981E+01 -0.10091578969E+02  0.15486468149E+02  0.51100000000E-03 0. -1.
        -11    1    3    3    0    0  0.58909436612E+01  0.59452253855E+01 -0.59722036030E+01  0.10281835354E+02  0.51100000000E-03 0.  1.
         12    1    3    3    0    0  0.14538907211E+02  0.10351861039E+02 -0.98264742072E+01  0.20374013969E+02  0.00000000000E+00 0. -1.
</event>
<event>
 7    1  0.3708346E-009  0.4614232E+02  0.7816164E-02  0.1320468E+00
        -11   -1    0    0    0    0  0.00000000000E+00  0.00000000000E+00  0.45593999997E+02  0.45594000000E+02  0.51100000000E-03 0.  1.
         11   -1    0    0    0    0 -0.00000000000E+00 -0.00000000000E+00 -0.45593999997E+02  0.45594000000E+02  0.51100000000E-03 0. -1.
    9900012    2    1    2    0    0 -0.30053670295E+02  0.13038112698E+02 -0.30917603272E+02  0.46142315712E+02  0.99999813139E+01 0.  0.
        -12    1    1    2    0    0  0.30053670295E+02 -0.13038112698E+02  0.30917603272E+02  0.45045684288E+02  0.00000000000E+00 0.  1.
         11    1    3    3    0    0 -0.21727208515E+01  0.42400161156E+01 -0.52076623985E+01  0.70582009377E+01  0.51100000000E-03 0.  1.
        -11    1    3    3    0    0 -0.13934775057E+02  0.36460824265E+01 -0.14727382478E+02  0.20600186112E+02  0.51100000000E-03 0. -1.
        -12    1    3    3    0    0 -0.13946174386E+02  0.51520141557E+01 -0.10982558396E+02  0.18483928662E+02  0.00000000000E+00 0.  1.
</event>
<event>
 7    1  0.3708346E-009  0.4614232E+02  0.7816164E-02  0.1320468E+00
        -11   -1    0    0    0    0  0.00000000000E+00  0.00000000000E+00  0.45593999997E+02  0.45594000000E+02  0.51100000000E-03 0. -1.
         11   -1    0    0    0    0 -0.00000000000E+00 -0.00000000000E+00 -0.45593999997E+02  0.45594000000E+02  0.51100000000E-03 0.  1.
    9900012    2    1    2    0    0  0.11297255408E+02  0.34407726474E+02  0.26787946401E+02  0.46142315487E+02  0.99999792617E+01 0.  0.
        -12    1    1    2    0    0 -0.11297255408E+02 -0.34407726474E+02 -0.26787946401E+02  0.45045684513E+02  0.00000000000E+00 0.  1.
         11    1    3    3    0    0  0.86065292651E+00  0.25250971062E+01  0.32319966439E+01  0.41907805267E+01  0.51100000000E-03 0. -1.
        -11    1    3    3    0    0  0.95722159274E+01  0.18525624126E+02  0.17658861538E+02  0.27325106735E+02  0.51100000000E-03 0.  1.
        -12    1    3    3    0    0  0.86438655363E+00  0.13357005242E+02  0.58970882193E+01  0.14626428225E+02  0.00000000000E+00 0.  1.
</event>
<event>
 7    1  0.3708346E-009  0.4614232E+02  0.7816164E-02  0.1320468E+00
        -11   -1    0    0    0    0  0.00000000000E+00  0.00000000000E+00  0.45593999997E+02  0.45594000000E+02  0.51100000000E-03 0.  1.
         11   -1    0    0    0    0 -0.00000000000E+00 -0.00000000000E+00 -0.45593999997E+02  0.45594000000E+02  0.51100000000E-03 0. -1.
    9900012    2    1    2    0    0  0.23240085782E+02 -0.14297722634E+02 -0.35841137664E+02  0.46142316425E+02  0.99999878164E+01 0.  0.
        -12    1    1    2    0    0 -0.23240085782E+02  0.14297722634E+02  0.35841137664E+02  0.45045683575E+02  0.00000000000E+00 0.  1.
         11    1    3    3    0    0  0.21919084567E+01 -0.44241770845E+01 -0.58608831025E+01  0.76634037189E+01  0.51100000000E-03 0. -1.
        -11    1    3    3    0    0  0.74066165620E+01 -0.28169143362E+01 -0.15312618772E+02  0.17241498461E+02  0.51100000000E-03 0.  1.
        -12    1    3    3    0    0  0.13641560764E+02 -0.70566312133E+01 -0.14667635789E+02  0.21237414245E+02  0.00000000000E+00 0.  1.
</event>
<event>
 7    1  0.3708346E-009  0.4614232E+02  0.7816164E-02  0.1320468E+00
        -11   -1    0    0    0    0  0.00000000000E+00  0.00000000000E+00  0.45593999997E+02  0.45594000000E+02  0.51100000000E-03 0.  1.
         11   -1    0    0    0    0 -0.00000000000E+00 -0.00000000000E+00 -0.45593999997E+02  0.45594000000E+02  0.51100000000E-03 0. -1.
    9900012    2    1    2    0    0  0.33808096618E+02 -0.65857943890E+01 -0.29030213460E+02  0.46142318984E+02  0.10000011150E+02 0.  0.
        -12    1    1    2    0    0 -0.33808096618E+02  0.65857943890E+01  0.29030213460E+02  0.45045681016E+02  0.00000000000E+00 0.  1.
         11    1    3    3    0    0  0.11831951847E+02 -0.33040440103E+01 -0.82543136707E+01  0.14800185328E+02  0.51100000000E-03 0. -1.
        -11    1    3    3    0    0  0.13893716575E+02  0.16606071594E+01 -0.12295461079E+02  0.18627166715E+02  0.51100000000E-03 0.  1.
        -12    1    3    3    0    0  0.80824281960E+01 -0.49423575381E+01 -0.84804387103E+01  0.12714966940E+02  0.00000000000E+00 0.  1.
</event>
<event>
 7    1  0.3708346E-009  0.4614232E+02  0.7816164E-02  0.1320468E+00
        -11   -1    0    0    0    0  0.00000000000E+00  0.00000000000E+00  0.45593999997E+02  0.45594000000E+02  0.51100000000E-03 0.  1.
         11   -1    0    0    0    0 -0.00000000000E+00 -0.00000000000E+00 -0.45593999997E+02  0.45594000000E+02  0.51100000000E-03 0. -1.
    9900012    2    1    2    0    0  0.41687092409E+02  0.50170204115E+01 -0.16313467743E+02  0.46142318773E+02  0.10000009232E+02 0.  0.
        -12    1    1    2    0    0 -0.41687092409E+02 -0.50170204115E+01  0.16313467743E+02  0.45045681227E+02  0.00000000000E+00 0.  1.
         11    1    3    3    0    0  0.20294122468E+02  0.37407584313E+01 -0.10904089307E+02  0.23339748162E+02  0.51100000000E-03 0. -1.
        -11    1    3    3    0    0  0.39317181739E+00  0.60604338802E+00  0.61143667592E+00  0.94642893866E+00  0.51100000000E-03 0.  1.
         12    1    3    3    0    0  0.20999798124E+02  0.67021859220E+00 -0.60208151118E+01  0.21856141673E+02  0.00000000000E+00 0. -1.
</event>
<event>
 7    1  0.3708346E-009  0.4614232E+02  0.7816164E-02  0.1320468E+00
        -11   -1    0    0    0    0  0.00000000000E+00  0.00000000000E+00  0.45593999997E+02  0.45594000000E+02  0.51100000000E-03 0.  1.
         11   -1    0    0    0    0 -0.00000000000E+00 -0.00000000000E+00 -0.45593999997E+02  0.45594000000E+02  0.51100000000E-03 0. -1.
    9900012    2    1    2    0    0  0.25845111359E+02 -0.10837606157E+02 -0.35265989351E+02  0.46142317707E+02  0.99999995081E+01 0.  0.
        -12    1    1    2    0    0 -0.25845111359E+02  0.10837606157E+02  0.35265989351E+02  0.45045682293E+02  0.00000000000E+00 0.  1.
         11    1    3    3    0    0  0.16876063487E+02 -0.47332467322E+01 -0.26119235571E+02  0.31455041099E+02  0.51100000000E-03 0. -1.
        -11    1    3    3    0    0  0.12680654061E+01  0.20832248105E+00 -0.19960859815E+00  0.13004737536E+01  0.51100000000E-03 0.  1.
        -12    1    3    3    0    0  0.77009824653E+01 -0.63126819057E+01 -0.89471451812E+01  0.13386802855E+02  0.00000000000E+00 0.  1.
</event>
<event>
 7    1  0.3708346E-009  0.4614232E+02  0.7816164E-02  0.1320468E+00
        -11   -1    0    0    0    0  0.00000000000E+00  0.00000000000E+00  0.45593999997E+02  0.45594000000E+02  0.51100000000E-03 0.  1.
         11   -1    0    0    0    0 -0.00000000000E+00 -0.00000000000E+00 -0.45593999997E+02  0.45594000000E+02  0.51100000000E-03 0. -1.
    9900012    2    1    2    0    0 -0.39743148492E+02 -0.21180335500E+02  0.99451201815E+00  0.46142317431E+02  0.99999969888E+01 0.  0.
        -12    1    1    2    0    0  0.39743148492E+02  0.21180335500E+02 -0.99451201815E+00  0.45045682569E+02  0.00000000000E+00 0.  1.
         11    1    3    3    0    0 -0.17257204640E+01 -0.36387424816E+01  0.42801733680E+00  0.40499082791E+01  0.51100000000E-03 0. -1.
        -11    1    3    3    0    0 -0.15345239968E+02 -0.91682894965E+01  0.11931918444E+01  0.17915290369E+02  0.51100000000E-03 0.  1.
        -12    1    3    3    0    0 -0.22672188060E+02 -0.83733035223E+01 -0.62669716300E+00  0.24177118783E+02  0.00000000000E+00 0.  1.
</event>
<event>
 7    1  0.3708346E-009  0.4614232E+02  0.7816164E-02  0.1320468E+00
        -11   -1    0    0    0    0  0.00000000000E+00  0.00000000000E+00  0.45593999997E+02  0.45594000000E+02  0.51100000000E-03 0.  1.
         11   -1    0    0    0    0 -0.00000000000E+00 -0.00000000000E+00 -0.45593999997E+02  0.45594000000E+02  0.51100000000E-03 0. -1.
    9900012    2    1    2    0    0 -0.15266856648E+00 -0.30724861826E+02 -0.32940446406E+02  0.46142318172E+02  0.10000003746E+02 0.  0.
        -12    1    1    2    0    0  0.15266856648E+00  0.30724861826E+02  0.32940446406E+02  0.45045681828E+02  0.00000000000E+00 0.  1.
         11    1    3    3    0    0  0.10789058068E+01 -0.64090311540E+00 -0.19091585872E+01  0.22846621885E+01  0.51100000000E-03 0. -1.
        -11    1    3    3    0    0  0.27367523046E+01 -0.19464732809E+02 -0.19743090775E+02  0.27859563351E+02  0.51100000000E-03 0.  1.
         12    1    3    3    0    0 -0.39683266779E+01 -0.10619225902E+02 -0.11288197044E+02  0.15998092633E+02  0.00000000000E+00 0. -1.
</event>
<event>
 7    1  0.3708346E-009  0.4614232E+02  0.7816164E-02  0.1320468E+00
        -11   -1    0    0    0    0  0.00000000000E+00  0.00000000000E+00  0.45593999997E+02  0.45594000000E+02  0.51100000000E-03 0.  1.
         11   -1    0    0    0    0 -0.00000000000E+00 -0.00000000000E+00 -0.45593999997E+02  0.45594000000E+02  0.51100000000E-03 0. -1.
    9900012    2    1    2    0    0 -0.78116900672E+01 -0.17642698983E+02 -0.40704128881E+02  0.46142318330E+02  0.10000005190E+02 0.  0.
        -12    1    1    2    0    0  0.78116900672E+01  0.17642698983E+02  0.40704128881E+02  0.45045681670E+02  0.00000000000E+00 0.  1.
         11    1    3    3    0    0 -0.34519425964E+01 -0.12035360214E+02 -0.21360261262E+02  0.24759373268E+02  0.51100000000E-03 0. -1.
        -11    1    3    3    0    0 -0.20719632402E+01 -0.45505281980E+00 -0.11668413293E+02  0.11859678485E+02  0.51100000000E-03 0.  1.
         12    1    3    3    0    0 -0.22877842306E+01 -0.51522859486E+01 -0.76754543262E+01  0.95232665770E+01  0.00000000000E+00 0. -1.
</event>
<event>
 7    1  0.3708346E-009  0.4614232E+02  0.7816164E-02  0.1320468E+00
        -11   -1    0    0    0    0  0.00000000000E+00  0.00000000000E+00  0.45593999997E+02  0.45594000000E+02  0.51100000000E-03 0. -1.
         11   -1    0    0    0    0 -0.00000000000E+00 -0.00000000000E+00 -0.45593999997E+02  0.45594000000E+02  0.51100000000E-03 0.  1.
    9900012    2    1    2    0    0  0.41232847229E+02  0.98600015653E-01 -0.18137147942E+02  0.46142317099E+02  0.99999939591E+01 0.  0.
        -12    1    1    2    0    0 -0.41232847229E+02 -0.98600015653E-01  0.18137147942E+02  0.45045682901E+02  0.00000000000E+00 0.  1.
         11    1    3    3    0    0  0.77943335289E+01  0.25299962867E+01 -0.54942645155E+01  0.98660761804E+01  0.51100000000E-03 0. -1.
        -11    1    3    3    0    0  0.31138136819E+01 -0.12889139945E+01 -0.27762631558E+01  0.43663225147E+01  0.51100000000E-03 0.  1.
         12    1    3    3    0    0  0.30324700018E+02 -0.11424822766E+01 -0.98666202702E+01  0.31909918404E+02  0.00000000000E+00 0. -1.
</event>
<event>
 7    1  0.3708346E-009  0.4614232E+02  0.7816164E-02  0.1320468E+00
        -11   -1    0    0    0    0  0.00000000000E+00  0.00000000000E+00  0.45593999997E+02  0.45594000000E+02  0.51100000000E-03 0.  1.
         11   -1    0    0    0    0 -0.00000000000E+00 -0.00000000000E+00 -0.45593999997E+02  0.45594000000E+02  0.51100000000E-03 0. -1.
    9900012    2    1    2    0    0 -0.14017282846E+02  0.19104328138E+02 -0.38309971646E+02  0.46142317638E+02  0.99999988742E+01 0.  0.
        -12    1    1    2    0    0  0.14017282846E+02 -0.19104328138E+02  0.38309971646E+02  0.45045682362E+02  0.00000000000E+00 0.  1.
         11    1    3    3    0    0 -0.38443803611E+01  0.77306417053E+01 -0.17493195567E+02  0.19507792621E+02  0.51100000000E-03 0. -1.
        -11    1    3    3    0    0 -0.38213369748E+01  0.88480894715E+01 -0.10438160072E+02  0.14207268897E+02  0.51100000000E-03 0.  1.
        -12    1    3    3    0    0 -0.63515655099E+01  0.25255969610E+01 -0.10378616007E+02  0.12427256120E+02  0.00000000000E+00 0.  1.
</event>
<event>
 7    1  0.3708346E-009  0.4614232E+02  0.7816164E-02  0.1320468E+00
        -11   -1    0    0    0    0  0.00000000000E+00  0.00000000000E+00  0.45593999997E+02  0.45594000000E+02  0.51100000000E-03 0.  1.
         11   -1    0    0    0    0 -0.00000000000E+00 -0.00000000000E+00 -0.45593999997E+02  0.45594000000E+02  0.51100000000E-03 0. -1.
    9900012    2    1    2    0    0 -0.35638482534E+02  0.17702005710E+02 -0.21110451294E+02  0.46142316552E+02  0.99999889702E+01 0.  0.
        -12    1    1    2    0    0  0.35638482534E+02 -0.17702005710E+02  0.21110451294E+02  0.45045683448E+02  0.00000000000E+00 0.  1.
         11    1    3    3    0    0 -0.13961642295E+02  0.60253113477E+01 -0.66166783807E+01  0.16583493766E+02  0.51100000000E-03 0. -1.
        -11    1    3    3    0    0 -0.90204398293E+01  0.77969293871E+00 -0.47853975108E+01  0.10240912332E+02  0.51100000000E-03 0.  1.
        -12    1    3    3    0    0 -0.12656400410E+02  0.10897001423E+02 -0.97083754027E+01  0.19317910454E+02  0.00000000000E+00 0.  1.
</event>
<event>
 7    1  0.3708346E-009  0.4614232E+02  0.7816164E-02  0.1320468E+00
        -11   -1    0    0    0    0  0.00000000000E+00  0.00000000000E+00  0.45593999997E+02  0.45594000000E+02  0.51100000000E-03 0.  1.
         11   -1    0    0    0    0 -0.00000000000E+00 -0.00000000000E+00 -0.45593999997E+02  0.45594000000E+02  0.51100000000E-03 0. -1.
    9900012    2    1    2    0    0  0.33612120218E+02 -0.17443588404E+02 -0.24393857224E+02  0.46142315720E+02  0.99999813864E+01 0.  0.
        -12    1    1    2    0    0 -0.33612120218E+02  0.17443588404E+02  0.24393857224E+02  0.45045684280E+02  0.00000000000E+00 0.  1.
         11    1    3    3    0    0  0.21788543437E+02 -0.10989548641E+02 -0.16126313764E+02  0.29250107698E+02  0.51100000000E-03 0. -1.
        -11    1    3    3    0    0  0.14133067110E+01  0.12549576194E+00  0.77220794890E+00  0.16153917244E+01  0.51100000000E-03 0.  1.
         12    1    3    3    0    0  0.10410270070E+02 -0.65795355247E+01 -0.90397514096E+01  0.15276816298E+02  0.00000000000E+00 0. -1.
</event>
<event>
 7    1  0.3708346E-009  0.4614232E+02  0.7816164E-02  0.1320468E+00
        -11   -1    0    0    0    0  0.00000000000E+00  0.00000000000E+00  0.45593999997E+02  0.45594000000E+02  0.51100000000E-03 0. -1.
         11   -1    0    0    0    0 -0.00000000000E+00 -0.00000000000E+00 -0.45593999997E+02  0.45594000000E+02  0.51100000000E-03 0.  1.
    9900012    2    1    2    0    0 -0.29539268240E+02 -0.21792804334E+02  0.26107829108E+02  0.46142318413E+02  0.10000005946E+02 0.  0.
        -12    1    1    2    0    0  0.29539268240E+02  0.21792804334E+02 -0.26107829108E+02  0.45045681587E+02  0.00000000000E+00 0.  1.
         11    1    3    3    0    0 -0.11840835915E+02 -0.59241956798E+01  0.11311187694E+02  0.17413915612E+02  0.51100000000E-03 0. -1.
        -11    1    3    3    0    0 -0.95303121193E+01 -0.12598042862E+02  0.10171931638E+02  0.18788446624E+02  0.51100000000E-03 0.  1.
        -12    1    3    3    0    0 -0.81681202058E+01 -0.32705657922E+01  0.46247097764E+01  0.99399561776E+01  0.00000000000E+00 0.  1.
</event>
<event>
 7    1  0.3708346E-009  0.4614232E+02  0.7816164E-02  0.1320468E+00
        -11   -1    0    0    0    0  0.00000000000E+00  0.00000000000E+00  0.45593999997E+02  0.45594000000E+02  0.51100000000E-03 0.  1.
         11   -1    0    0    0    0 -0.00000000000E+00 -0.00000000000E+00 -0.45593999997E+02  0.45594000000E+02  0.51100000000E-03 0. -1.
    9900012    2    1    2    0    0 -0.34477850248E+02 -0.18181054955E+01 -0.28932435761E+02  0.46142317583E+02  0.99999983772E+01 0.  0.
        -12    1    1    2    0    0  0.34477850248E+02  0.18181054955E+01  0.28932435761E+02  0.45045682417E+02  0.00000000000E+00 0.  1.
         11    1    3    3    0    0 -0.20061048558E+02  0.17323277135E+01 -0.19094273289E+02  0.27749556776E+02  0.51100000000E-03 0. -1.
        -11    1    3    3    0    0 -0.21276776142E+01 -0.22663939650E+01 -0.27351212863E+01  0.41405847831E+01  0.51100000000E-03 0.  1.
        -12    1    3    3    0    0 -0.12289124077E+02 -0.12840392440E+01 -0.71030411854E+01  0.14252176024E+02  0.00000000000E+00 0.  1.
</event>
<event>
 7    1  0.3708346E-009  0.4614231E+02  0.7816164E-02  0.1320468E+00
        -11   -1    0    0    0    0  0.00000000000E+00  0.00000000000E+00  0.45593999997E+02  0.45594000000E+02  0.51100000000E-03 0. -1.
         11   -1    0    0    0    0 -0.00000000000E+00 -0.00000000000E+00 -0.45593999997E+02  0.45594000000E+02  0.51100000000E-03 0.  1.
    9900012    2    1    2    0    0 -0.11177912560E+01  0.36055307625E+02  0.26979237762E+02  0.46142312799E+02  0.99999547510E+01 0.  0.
        -12    1    1    2    0    0  0.11177912560E+01 -0.36055307625E+02 -0.26979237762E+02  0.45045687201E+02  0.00000000000E+00 0.  1.
         11    1    3    3    0    0  0.15290100676E+01  0.15609821654E+02  0.16511711604E+02  0.22773691493E+02  0.51100000000E-03 0. -1.
        -11    1    3    3    0    0 -0.16892379047E+01  0.52015785203E+01  0.15603487114E+01  0.56872341400E+01  0.51100000000E-03 0.  1.
        -12    1    3    3    0    0 -0.95756341887E+00  0.15243907450E+02  0.89071774468E+01  0.17681387166E+02  0.00000000000E+00 0.  1.
</event>
<event>
 7    1  0.3708346E-009  0.4614232E+02  0.7816164E-02  0.1320468E+00
        -11   -1    0    0    0    0  0.00000000000E+00  0.00000000000E+00  0.45593999997E+02  0.45594000000E+02  0.51100000000E-03 0. -1.
         11   -1    0    0    0    0 -0.00000000000E+00 -0.00000000000E+00 -0.45593999997E+02  0.45594000000E+02  0.51100000000E-03 0.  1.
    9900012    2    1    2    0    0  0.22267205647E+02  0.39123709234E+02 -0.16187913400E+01  0.46142317000E+02  0.99999930602E+01 0.  0.
        -12    1    1    2    0    0 -0.22267205647E+02 -0.39123709234E+02  0.16187913400E+01  0.45045683000E+02  0.00000000000E+00 0.  1.
         11    1    3    3    0    0  0.67503113637E+01  0.87153465273E+01 -0.30595173823E+01  0.11440481435E+02  0.51100000000E-03 0. -1.
        -11    1    3    3    0    0  0.11260777004E+02  0.26879021907E+02  0.12640374742E+01  0.29169928152E+02  0.51100000000E-03 0.  1.
        -12    1    3    3    0    0  0.42561172788E+01  0.35293407998E+01  0.17668856809E+00  0.55319074126E+01  0.00000000000E+00 0.  1.
</event>
<event>
 7    1  0.3708346E-009  0.4614232E+02  0.7816164E-02  0.1320468E+00
        -11   -1    0    0    0    0  0.00000000000E+00  0.00000000000E+00  0.45593999997E+02  0.45594000000E+02  0.51100000000E-03 0. -1.
         11   -1    0    0    0    0 -0.00000000000E+00 -0.00000000000E+00 -0.45593999997E+02  0.45594000000E+02  0.51100000000E-03 0.  1.
    9900012    2    1    2    0    0 -0.27431745437E+02  0.48919969281E+01  0.35393237372E+02  0.46142317151E+02  0.99999944383E+01 0.  0.
        -12    1    1    2    0    0  0.27431745437E+02 -0.48919969281E+01 -0.35393237372E+02  0.45045682849E+02  0.00000000000E+00 0.  1.
         11    1    3    3    0    0 -0.32866775032E+01  0.14789850155E+01  0.21764631863E+01  0.42103014082E+01  0.51100000000E-03 0. -1.
        -11    1    3    3    0    0 -0.47849517489E+01 -0.19393296532E+01  0.98300264807E+01  0.11103431164E+02  0.51100000000E-03 0.  1.
        -12    1    3    3    0    0 -0.19360116185E+02  0.53523415659E+01  0.23386747705E+02  0.30828584579E+02  0.00000000000E+00 0.  1.
</event>
<event>
 7    1  0.3708346E-009  0.4614232E+02  0.7816164E-02  0.1320468E+00
        -11   -1    0    0    0    0  0.00000000000E+00  0.00000000000E+00  0.45593999997E+02  0.45594000000E+02  0.51100000000E-03 0.  1.
         11   -1    0    0    0    0 -0.00000000000E+00 -0.00000000000E+00 -0.45593999997E+02  0.45594000000E+02  0.51100000000E-03 0. -1.
    9900012    2    1    2    0    0 -0.28965073980E+02  0.27421494862E+02 -0.20933219149E+02  0.46142317021E+02  0.99999932469E+01 0.  0.
        -12    1    1    2    0    0  0.28965073980E+02 -0.27421494862E+02  0.20933219149E+02  0.45045682979E+02  0.00000000000E+00 0.  1.
         11    1    3    3    0    0 -0.12732621857E+02  0.16405833326E+02 -0.84099005087E+01  0.22405299670E+02  0.51100000000E-03 0. -1.
        -11    1    3    3    0    0 -0.12615315029E+02  0.75266511573E+01 -0.11381808964E+02  0.18583385765E+02  0.51100000000E-03 0.  1.
        -12    1    3    3    0    0 -0.36171370940E+01  0.34890103786E+01 -0.11415096760E+01  0.51536315855E+01  0.00000000000E+00 0.  1.
</event>
<event>
 7    1  0.3708346E-009  0.4614232E+02  0.7816164E-02  0.1320468E+00
        -11   -1    0    0    0    0  0.00000000000E+00  0.00000000000E+00  0.45593999997E+02  0.45594000000E+02  0.51100000000E-03 0.  1.
         11   -1    0    0    0    0 -0.00000000000E+00 -0.00000000000E+00 -0.45593999997E+02  0.45594000000E+02  0.51100000000E-03 0. -1.
    9900012    2    1    2    0    0  0.17645524379E+02  0.26242449879E+02 -0.32079320552E+02  0.46142317484E+02  0.99999974696E+01 0.  0.
        -12    1    1    2    0    0 -0.17645524379E+02 -0.26242449879E+02  0.32079320552E+02  0.45045682516E+02  0.00000000000E+00 0.  1.
         11    1    3    3    0    0  0.64190024136E+01  0.86187640417E+01 -0.64372581828E+01  0.12526970055E+02  0.51100000000E-03 0.  1.
        -11    1    3    3    0    0  0.81703485367E+01  0.14381313190E+02 -0.16090083642E+02  0.23075258528E+02  0.51100000000E-03 0. -1.
         12    1    3    3    0    0  0.30561734292E+01  0.32423726472E+01 -0.95519787273E+01  0.10540088900E+02  0.00000000000E+00 0. -1.
</event>
<event>
 7    1  0.3708346E-009  0.4614232E+02  0.7816164E-02  0.1320468E+00
        -11   -1    0    0    0    0  0.00000000000E+00  0.00000000000E+00  0.45593999997E+02  0.45594000000E+02  0.51100000000E-03 0.  1.
         11   -1    0    0    0    0 -0.00000000000E+00 -0.00000000000E+00 -0.45593999997E+02  0.45594000000E+02  0.51100000000E-03 0. -1.
    9900012    2    1    2    0    0 -0.21846719282E+02 -0.20162496970E+02 -0.33842399246E+02  0.46142318584E+02  0.10000007507E+02 0.  0.
        -12    1    1    2    0    0  0.21846719282E+02  0.20162496970E+02  0.33842399246E+02  0.45045681416E+02  0.00000000000E+00 0.  1.
         11    1    3    3    0    0 -0.84144990192E+01 -0.68640174903E+01 -0.15853735666E+02  0.19216125121E+02  0.51100000000E-03 0. -1.
        -11    1    3    3    0    0 -0.59573145412E+01 -0.95703348581E+01 -0.12957831679E+02  0.17175165441E+02  0.51100000000E-03 0.  1.
         12    1    3    3    0    0 -0.74749057221E+01 -0.37281446217E+01 -0.50308319018E+01  0.97510280226E+01  0.00000000000E+00 0. -1.
</event>
<event>
 7    1  0.3708346E-009  0.4614232E+02  0.7816164E-02  0.1320468E+00
        -11   -1    0    0    0    0  0.00000000000E+00  0.00000000000E+00  0.45593999997E+02  0.45594000000E+02  0.51100000000E-03 0.  1.
         11   -1    0    0    0    0 -0.00000000000E+00 -0.00000000000E+00 -0.45593999997E+02  0.45594000000E+02  0.51100000000E-03 0. -1.
    9900012    2    1    2    0    0 -0.17058860772E+02  0.41687318078E+02 -0.52535598202E+00  0.46142320758E+02  0.10000027333E+02 0.  0.
        -12    1    1    2    0    0  0.17058860772E+02 -0.41687318078E+02  0.52535598202E+00  0.45045679242E+02  0.00000000000E+00 0.  1.
         11    1    3    3    0    0 -0.65008500097E+01  0.12598552960E+02  0.16100095771E+01  0.14268031351E+02  0.51100000000E-03 0. -1.
        -11    1    3    3    0    0 -0.68000888635E+01  0.22872515735E+02  0.11767122647E+01  0.23890957214E+02  0.51100000000E-03 0.  1.
        -12    1    3    3    0    0 -0.37579218991E+01  0.62162493838E+01 -0.33120778238E+01  0.79833321936E+01  0.00000000000E+00 0.  1.
</event>
<event>
 7    1  0.3708346E-009  0.4614232E+02  0.7816164E-02  0.1320468E+00
        -11   -1    0    0    0    0  0.00000000000E+00  0.00000000000E+00  0.45593999997E+02  0.45594000000E+02  0.51100000000E-03 0.  1.
         11   -1    0    0    0    0 -0.00000000000E+00 -0.00000000000E+00 -0.45593999997E+02  0.45594000000E+02  0.51100000000E-03 0. -1.
    9900012    2    1    2    0    0  0.15775152688E+01 -0.56057795047E+01 -0.44667663157E+02  0.46142318185E+02  0.10000003862E+02 0.  0.
        -12    1    1    2    0    0 -0.15775152688E+01  0.56057795047E+01  0.44667663157E+02  0.45045681815E+02  0.00000000000E+00 0.  1.
         11    1    3    3    0    0 -0.85016748662E+00 -0.13801011250E+01 -0.26525057599E+01  0.31085769957E+01  0.51100000000E-03 0. -1.
        -11    1    3    3    0    0 -0.18016839849E+01 -0.73295692266E+00 -0.26442769658E+01  0.32826044484E+01  0.51100000000E-03 0.  1.
         12    1    3    3    0    0  0.42293667404E+01 -0.34927214570E+01 -0.39370880432E+02  0.39751136741E+02  0.00000000000E+00 0. -1.
</event>
<event>
 7    1  0.3708346E-009  0.4614232E+02  0.7816164E-02  0.1320468E+00
        -11   -1    0    0    0    0  0.00000000000E+00  0.00000000000E+00  0.45593999997E+02  0.45594000000E+02  0.51100000000E-03 0. -1.
         11   -1    0    0    0    0 -0.00000000000E+00 -0.00000000000E+00 -0.45593999997E+02  0.45594000000E+02  0.51100000000E-03 0.  1.
    9900012    2    1    2    0    0  0.22375859291E+02 -0.37752862776E+02 -0.10156556385E+02  0.46142319137E+02  0.10000012546E+02 0.  0.
        -12    1    1    2    0    0 -0.22375859291E+02  0.37752862776E+02  0.10156556385E+02  0.45045680863E+02  0.00000000000E+00 0.  1.
         11    1    3    3    0    0  0.22348509770E+02 -0.36282709898E+02 -0.95954765785E+01  0.43680248369E+02  0.51100000000E-03 0. -1.
        -11    1    3    3    0    0  0.81386574742E-01  0.43036732370E+00  0.99755924629E-01  0.44921188038E+00  0.51100000000E-03 0.  1.
         12    1    3    3    0    0 -0.54037053739E-01 -0.19005202014E+01 -0.66083573130E+00  0.20128588879E+01  0.00000000000E+00 0. -1.
</event>
<event>
 7    1  0.3708346E-009  0.4614232E+02  0.7816164E-02  0.1320468E+00
        -11   -1    0    0    0    0  0.00000000000E+00  0.00000000000E+00  0.45593999997E+02  0.45594000000E+02  0.51100000000E-03 0.  1.
         11   -1    0    0    0    0 -0.00000000000E+00 -0.00000000000E+00 -0.45593999997E+02  0.45594000000E+02  0.51100000000E-03 0. -1.
    9900012    2    1    2    0    0  0.27902300516E+02 -0.11682813831E+02 -0.33377941144E+02  0.46142317986E+02  0.10000002051E+02 0.  0.
        -12    1    1    2    0    0 -0.27902300516E+02  0.11682813831E+02  0.33377941144E+02  0.45045682014E+02  0.00000000000E+00 0.  1.
         11    1    3    3    0    0  0.12207799798E+02 -0.16687374238E+01 -0.87852977973E+01  0.15132630906E+02  0.51100000000E-03 0. -1.
        -11    1    3    3    0    0  0.15547013149E+01 -0.54050816076E-01 -0.26143931729E+01  0.30422145870E+01  0.51100000000E-03 0.  1.
         12    1    3    3    0    0  0.14139799403E+02 -0.99600255907E+01 -0.21978250174E+02  0.27967472493E+02  0.00000000000E+00 0. -1.
</event>
<event>
 7    1  0.3708346E-009  0.4614232E+02  0.7816164E-02  0.1320468E+00
        -11   -1    0    0    0    0  0.00000000000E+00  0.00000000000E+00  0.45593999997E+02  0.45594000000E+02  0.51100000000E-03 0.  1.
         11   -1    0    0    0    0 -0.00000000000E+00 -0.00000000000E+00 -0.45593999997E+02  0.45594000000E+02  0.51100000000E-03 0. -1.
    9900012    2    1    2    0    0  0.36204633745E+02 -0.15639901358E+02 -0.21765372241E+02  0.46142318211E+02  0.10000004100E+02 0.  0.
        -12    1    1    2    0    0 -0.36204633745E+02  0.15639901358E+02  0.21765372241E+02  0.45045681789E+02  0.00000000000E+00 0.  1.
         11    1    3    3    0    0  0.18598337439E+02 -0.89461571102E+01 -0.12027123063E+02  0.23886891216E+02  0.51100000000E-03 0. -1.
        -11    1    3    3    0    0  0.42232380746E+01 -0.49107693923E+01 -0.37652103326E+01  0.74918759312E+01  0.51100000000E-03 0.  1.
        -12    1    3    3    0    0  0.13383058231E+02 -0.17829748551E+01 -0.59730388460E+01  0.14763551064E+02  0.00000000000E+00 0.  1.
</event>
<event>
 7    1  0.3708346E-009  0.4614232E+02  0.7816164E-02  0.1320468E+00
        -11   -1    0    0    0    0  0.00000000000E+00  0.00000000000E+00  0.45593999997E+02  0.45594000000E+02  0.51100000000E-03 0.  1.
         11   -1    0    0    0    0 -0.00000000000E+00 -0.00000000000E+00 -0.45593999997E+02  0.45594000000E+02  0.51100000000E-03 0. -1.
    9900012    2    1    2    0    0 -0.15042042897E+02  0.26165037193E+02 -0.33440114084E+02  0.46142318123E+02  0.10000003298E+02 0.  0.
        -12    1    1    2    0    0  0.15042042897E+02 -0.26165037193E+02  0.33440114084E+02  0.45045681877E+02  0.00000000000E+00 0.  1.
         11    1    3    3    0    0 -0.12076650910E+01  0.54045774838E+01 -0.97178888092E+01  0.11185046979E+02  0.51100000000E-03 0. -1.
        -11    1    3    3    0    0 -0.54798677579E+01  0.39652515673E+01 -0.80423674386E+01  0.10508655714E+02  0.51100000000E-03 0.  1.
         12    1    3    3    0    0 -0.83545100483E+01  0.16795208142E+02 -0.15679857836E+02  0.24448615430E+02  0.00000000000E+00 0. -1.
</event>
<event>
 7    1  0.3708346E-009  0.4614232E+02  0.7816164E-02  0.1320468E+00
        -11   -1    0    0    0    0  0.00000000000E+00  0.00000000000E+00  0.45593999997E+02  0.45594000000E+02  0.51100000000E-03 0.  1.
         11   -1    0    0    0    0 -0.00000000000E+00 -0.00000000000E+00 -0.45593999997E+02  0.45594000000E+02  0.51100000000E-03 0. -1.
    9900012    2    1    2    0    0  0.19904050814E+01  0.26375566591E+02 -0.36462052396E+02  0.46142317739E+02  0.99999997997E+01 0.  0.
        -12    1    1    2    0    0 -0.19904050814E+01 -0.26375566591E+02  0.36462052396E+02  0.45045682261E+02  0.00000000000E+00 0.  1.
         11    1    3    3    0    0  0.11383365054E+01  0.11014164259E+02 -0.96610886505E+01  0.14695041970E+02  0.51100000000E-03 0. -1.
        -11    1    3    3    0    0  0.18313094722E+01  0.11137927297E+01 -0.29273493135E+01  0.36281679801E+01  0.51100000000E-03 0.  1.
         12    1    3    3    0    0 -0.97924089616E+00  0.14247609602E+02 -0.23873614433E+02  0.27819107789E+02  0.00000000000E+00 0. -1.
</event>
<event>
 7    1  0.3708346E-009  0.4614232E+02  0.7816164E-02  0.1320468E+00
        -11   -1    0    0    0    0  0.00000000000E+00  0.00000000000E+00  0.45593999997E+02  0.45594000000E+02  0.51100000000E-03 0.  1.
         11   -1    0    0    0    0 -0.00000000000E+00 -0.00000000000E+00 -0.45593999997E+02  0.45594000000E+02  0.51100000000E-03 0. -1.
    9900012    2    1    2    0    0 -0.34327614413E+01 -0.26746078077E+02 -0.36082920868E+02  0.46142315168E+02  0.99999763541E+01 0.  0.
        -12    1    1    2    0    0  0.34327614413E+01  0.26746078077E+02  0.36082920868E+02  0.45045684832E+02  0.00000000000E+00 0.  1.
         11    1    3    3    0    0  0.37646338744E+00 -0.80723790307E+01 -0.12675811751E+02  0.15032672141E+02  0.51100000000E-03 0. -1.
        -11    1    3    3    0    0 -0.56603837441E+01 -0.92721054696E+01 -0.13478285976E+02  0.17311154701E+02  0.51100000000E-03 0.  1.
        -12    1    3    3    0    0  0.18511589153E+01 -0.94015935770E+01 -0.99288231407E+01  0.13798488326E+02  0.00000000000E+00 0.  1.
</event>
<event>
 7    1  0.3708346E-009  0.4614232E+02  0.7816164E-02  0.1320468E+00
        -11   -1    0    0    0    0  0.00000000000E+00  0.00000000000E+00  0.45593999997E+02  0.45594000000E+02  0.51100000000E-03 0. -1.
         11   -1    0    0    0    0 -0.00000000000E+00 -0.00000000000E+00 -0.45593999997E+02  0.45594000000E+02  0.51100000000E-03 0.  1.
    9900012    2    1    2    0    0  0.41973535978E+02  0.88756755046E+01  0.13731642533E+02  0.46142319355E+02  0.10000014531E+02 0.  0.
        -12    1    1    2    0    0 -0.41973535978E+02 -0.88756755046E+01 -0.13731642533E+02  0.45045680645E+02  0.00000000000E+00 0.  1.
         11    1    3    3    0    0  0.24608078946E+02  0.17210698294E+01  0.82370624470E+01  0.26007091894E+02  0.51100000000E-03 0. -1.
        -11    1    3    3    0    0  0.98602864022E+01  0.28100861465E+01  0.82509872195E+00  0.10286040066E+02  0.51100000000E-03 0.  1.
        -12    1    3    3    0    0  0.75051706296E+01  0.43445195288E+01  0.46694813636E+01  0.98491873939E+01  0.00000000000E+00 0.  1.
</event>
<event>
 7    1  0.3708346E-009  0.4614232E+02  0.7816164E-02  0.1320468E+00
        -11   -1    0    0    0    0  0.00000000000E+00  0.00000000000E+00  0.45593999997E+02  0.45594000000E+02  0.51100000000E-03 0.  1.
         11   -1    0    0    0    0 -0.00000000000E+00 -0.00000000000E+00 -0.45593999997E+02  0.45594000000E+02  0.51100000000E-03 0. -1.
    9900012    2    1    2    0    0 -0.97376586848E+01  0.50626418842E+01 -0.43688226683E+02  0.46142317741E+02  0.99999998171E+01 0.  0.
        -12    1    1    2    0    0  0.97376586848E+01 -0.50626418842E+01  0.43688226683E+02  0.45045682259E+02  0.00000000000E+00 0.  1.
         11    1    3    3    0    0 -0.39265764526E+01  0.25736874074E+01 -0.24320645400E+02  0.24769652045E+02  0.51100000000E-03 0. -1.
        -11    1    3    3    0    0 -0.45915597797E+01  0.37574451435E+01 -0.85137704719E+01  0.10377143303E+02  0.51100000000E-03 0.  1.
        -12    1    3    3    0    0 -0.12195224525E+01 -0.12684906666E+01 -0.10853810811E+02  0.10995522393E+02  0.00000000000E+00 0.  1.
</event>
<event>
 7    1  0.3708346E-009  0.4614232E+02  0.7816164E-02  0.1320468E+00
        -11   -1    0    0    0    0  0.00000000000E+00  0.00000000000E+00  0.45593999997E+02  0.45594000000E+02  0.51100000000E-03 0.  1.
         11   -1    0    0    0    0 -0.00000000000E+00 -0.00000000000E+00 -0.45593999997E+02  0.45594000000E+02  0.51100000000E-03 0. -1.
    9900012    2    1    2    0    0  0.26459880238E+02  0.19489745856E+02 -0.30808084443E+02  0.46142317380E+02  0.99999965205E+01 0.  0.
        -12    1    1    2    0    0 -0.26459880238E+02 -0.19489745856E+02  0.30808084443E+02  0.45045682620E+02  0.00000000000E+00 0.  1.
         11    1    3    3    0    0  0.14441172268E+02  0.14595915547E+02 -0.21960986857E+02  0.30064483217E+02  0.51100000000E-03 0. -1.
        -11    1    3    3    0    0  0.11243892809E+02  0.35850341314E+01 -0.84221769411E+01  0.14498643382E+02  0.51100000000E-03 0.  1.
         12    1    3    3    0    0  0.77481516068E+00  0.13087961769E+01 -0.42492064455E+00  0.15791907802E+01  0.00000000000E+00 0. -1.
</event>
<event>
 7    1  0.3708346E-009  0.4614232E+02  0.7816164E-02  0.1320468E+00
        -11   -1    0    0    0    0  0.00000000000E+00  0.00000000000E+00  0.45593999997E+02  0.45594000000E+02  0.51100000000E-03 0.  1.
         11   -1    0    0    0    0 -0.00000000000E+00 -0.00000000000E+00 -0.45593999997E+02  0.45594000000E+02  0.51100000000E-03 0. -1.
    9900012    2    1    2    0    0  0.19008892275E+02  0.23715486399E+02 -0.33246823115E+02  0.46142317322E+02  0.99999959981E+01 0.  0.
        -12    1    1    2    0    0 -0.19008892275E+02 -0.23715486399E+02  0.33246823115E+02  0.45045682678E+02  0.00000000000E+00 0.  1.
         11    1    3    3    0    0  0.14127765650E+02  0.15249947460E+02 -0.19751881313E+02  0.28675625111E+02  0.51100000000E-03 0. -1.
        -11    1    3    3    0    0  0.10186415137E+01  0.67935367866E+01 -0.79882500641E+01  0.10535744490E+02  0.51100000000E-03 0.  1.
         12    1    3    3    0    0  0.38624851108E+01  0.16720021518E+01 -0.55066917381E+01  0.69309477220E+01  0.00000000000E+00 0. -1.
</event>
<event>
 7    1  0.3708346E-009  0.4614232E+02  0.7816164E-02  0.1320468E+00
        -11   -1    0    0    0    0  0.00000000000E+00  0.00000000000E+00  0.45593999997E+02  0.45594000000E+02  0.51100000000E-03 0.  1.
         11   -1    0    0    0    0 -0.00000000000E+00 -0.00000000000E+00 -0.45593999997E+02  0.45594000000E+02  0.51100000000E-03 0. -1.
    9900012    2    1    2    0    0  0.45233020980E+01 -0.31518812483E+02 -0.31862481388E+02  0.46142317383E+02  0.99999965544E+01 0.  0.
        -12    1    1    2    0    0 -0.45233020980E+01  0.31518812483E+02  0.31862481388E+02  0.45045682617E+02  0.00000000000E+00 0.  1.
         11    1    3    3    0    0  0.26805514844E+01 -0.22218620619E+02 -0.25712309268E+02  0.34087758897E+02  0.51100000000E-03 0. -1.
        -11    1    3    3    0    0  0.28957418774E+01 -0.39304855421E+01 -0.32089187063E+01  0.58421911251E+01  0.51100000000E-03 0.  1.
        -12    1    3    3    0    0 -0.10529912638E+01 -0.53697063221E+01 -0.29412534138E+01  0.62123673612E+01  0.00000000000E+00 0.  1.
</event>
<event>
 7    1  0.3708346E-009  0.4614232E+02  0.7816164E-02  0.1320468E+00
        -11   -1    0    0    0    0  0.00000000000E+00  0.00000000000E+00  0.45593999997E+02  0.45594000000E+02  0.51100000000E-03 0.  1.
         11   -1    0    0    0    0 -0.00000000000E+00 -0.00000000000E+00 -0.45593999997E+02  0.45594000000E+02  0.51100000000E-03 0. -1.
    9900012    2    1    2    0    0  0.33421050212E+02 -0.30108543723E+02 -0.23711805995E+01  0.46142317634E+02  0.99999988400E+01 0.  0.
        -12    1    1    2    0    0 -0.33421050212E+02  0.30108543723E+02  0.23711805995E+01  0.45045682366E+02  0.00000000000E+00 0.  1.
         11    1    3    3    0    0  0.69620444998E+01 -0.66295260629E+01 -0.33206017140E+01  0.10170893542E+02  0.51100000000E-03 0. -1.
        -11    1    3    3    0    0  0.14354186048E+02 -0.91965397976E+01 -0.13882226515E+01  0.17103980933E+02  0.51100000000E-03 0.  1.
        -12    1    3    3    0    0  0.12104819664E+02 -0.14282477863E+02  0.23376437660E+01  0.18867443159E+02  0.00000000000E+00 0.  1.
</event>
<event>
 7    1  0.3708346E-009  0.4614232E+02  0.7816164E-02  0.1320468E+00
        -11   -1    0    0    0    0  0.00000000000E+00  0.00000000000E+00  0.45593999997E+02  0.45594000000E+02  0.51100000000E-03 0.  1.
         11   -1    0    0    0    0 -0.00000000000E+00 -0.00000000000E+00 -0.45593999997E+02  0.45594000000E+02  0.51100000000E-03 0. -1.
    9900012    2    1    2    0    0  0.29645308708E+02 -0.95818576515E+01 -0.32533933712E+02  0.46142321326E+02  0.10000032509E+02 0.  0.
        -12    1    1    2    0    0 -0.29645308708E+02  0.95818576515E+01  0.32533933712E+02  0.45045678674E+02  0.00000000000E+00 0.  1.
         11    1    3    3    0    0  0.21383373170E+02 -0.28460554600E+01 -0.24782739403E+02  0.32856245257E+02  0.51100000000E-03 0. -1.
        -11    1    3    3    0    0  0.18147632527E+01 -0.24405635445E+01 -0.20596915749E+01  0.36731520147E+01  0.51100000000E-03 0.  1.
         12    1    3    3    0    0  0.64471722853E+01 -0.42952386470E+01 -0.56915027338E+01  0.96129240546E+01  0.00000000000E+00 0. -1.
</event>
<event>
 7    1  0.3708346E-009  0.4614232E+02  0.7816164E-02  0.1320468E+00
        -11   -1    0    0    0    0  0.00000000000E+00  0.00000000000E+00  0.45593999997E+02  0.45594000000E+02  0.51100000000E-03 0.  1.
         11   -1    0    0    0    0 -0.00000000000E+00 -0.00000000000E+00 -0.45593999997E+02  0.45594000000E+02  0.51100000000E-03 0. -1.
    9900012    2    1    2    0    0  0.84491005463E+01  0.41486683424E+02  0.15381201319E+02  0.46142317015E+02  0.99999931941E+01 0.  0.
        -12    1    1    2    0    0 -0.84491005463E+01 -0.41486683424E+02 -0.15381201319E+02  0.45045682985E+02  0.00000000000E+00 0.  1.
         11    1    3    3    0    0  0.73349950545E+01  0.25439900055E+02  0.13411168283E+02  0.29679118960E+02  0.51100000000E-03 0. -1.
        -11    1    3    3    0    0  0.18278902958E+01  0.14693084603E+02  0.19367651635E+01  0.14932480626E+02  0.51100000000E-03 0.  1.
        -12    1    3    3    0    0 -0.71378480398E+00  0.13536987660E+01  0.33267872776E-01  0.15307174288E+01  0.00000000000E+00 0.  1.
</event>
<event>
 7    1  0.3708346E-009  0.4614232E+02  0.7816164E-02  0.1320468E+00
        -11   -1    0    0    0    0  0.00000000000E+00  0.00000000000E+00  0.45593999997E+02  0.45594000000E+02  0.51100000000E-03 0.  1.
         11   -1    0    0    0    0 -0.00000000000E+00 -0.00000000000E+00 -0.45593999997E+02  0.45594000000E+02  0.51100000000E-03 0. -1.
    9900012    2    1    2    0    0  0.28910774798E+02 -0.89513318555E+01 -0.33363965949E+02  0.46142318017E+02  0.10000002335E+02 0.  0.
        -12    1    1    2    0    0 -0.28910774798E+02  0.89513318555E+01  0.33363965949E+02  0.45045681983E+02  0.00000000000E+00 0.  1.
         11    1    3    3    0    0  0.27568417866E+01 -0.18781135895E+01 -0.59650331595E+01  0.68344062029E+01  0.51100000000E-03 0. -1.
        -11    1    3    3    0    0  0.68361416309E+01  0.15675971464E+01 -0.72653334854E+01  0.10098280256E+02  0.51100000000E-03 0.  1.
        -12    1    3    3    0    0  0.19317791381E+02 -0.86408154124E+01 -0.20133599304E+02  0.29209631558E+02  0.00000000000E+00 0.  1.
</event>
<event>
 7    1  0.3708346E-009  0.4614232E+02  0.7816164E-02  0.1320468E+00
        -11   -1    0    0    0    0  0.00000000000E+00  0.00000000000E+00  0.45593999997E+02  0.45594000000E+02  0.51100000000E-03 0. -1.
         11   -1    0    0    0    0 -0.00000000000E+00 -0.00000000000E+00 -0.45593999997E+02  0.45594000000E+02  0.51100000000E-03 0.  1.
    9900012    2    1    2    0    0 -0.12959763332E+02 -0.34506641625E+02  0.25893043476E+02  0.46142317829E+02  0.10000000615E+02 0.  0.
        -12    1    1    2    0    0  0.12959763332E+02  0.34506641625E+02 -0.25893043476E+02  0.45045682171E+02  0.00000000000E+00 0.  1.
         11    1    3    3    0    0 -0.42591113706E+01 -0.13552922314E+02  0.15518753067E+02  0.21039330549E+02  0.51100000000E-03 0. -1.
        -11    1    3    3    0    0 -0.55238744785E+01 -0.13880469652E+02  0.82386704805E+01  0.17060372756E+02  0.51100000000E-03 0.  1.
         12    1    3    3    0    0 -0.31767774830E+01 -0.70732496584E+01  0.21356199288E+01  0.80426145243E+01  0.00000000000E+00 0. -1.
</event>
<event>
 7    1  0.3708346E-009  0.4614232E+02  0.7816164E-02  0.1320468E+00
        -11   -1    0    0    0    0  0.00000000000E+00  0.00000000000E+00  0.45593999997E+02  0.45594000000E+02  0.51100000000E-03 0.  1.
         11   -1    0    0    0    0 -0.00000000000E+00 -0.00000000000E+00 -0.45593999997E+02  0.45594000000E+02  0.51100000000E-03 0. -1.
    9900012    2    1    2    0    0 -0.21604085345E+02 -0.27466411823E+02 -0.28424870618E+02  0.46142317058E+02  0.99999935886E+01 0.  0.
        -12    1    1    2    0    0  0.21604085345E+02  0.27466411823E+02  0.28424870618E+02  0.45045682942E+02  0.00000000000E+00 0.  1.
         11    1    3    3    0    0 -0.30251987904E+01 -0.59379620628E+01 -0.30215014155E+01  0.73171505551E+01  0.51100000000E-03 0. -1.
        -11    1    3    3    0    0 -0.18470582237E+02 -0.21414954096E+02 -0.25873129299E+02  0.38329903301E+02  0.51100000000E-03 0.  1.
         12    1    3    3    0    0 -0.10830431699E+00 -0.11349566459E+00  0.46976009597E+00  0.49526320146E+00  0.00000000000E+00 0. -1.
</event>
<event>
 7    1  0.3708346E-009  0.4614232E+02  0.7816164E-02  0.1320468E+00
        -11   -1    0    0    0    0  0.00000000000E+00  0.00000000000E+00  0.45593999997E+02  0.45594000000E+02  0.51100000000E-03 0. -1.
         11   -1    0    0    0    0 -0.00000000000E+00 -0.00000000000E+00 -0.45593999997E+02  0.45594000000E+02  0.51100000000E-03 0.  1.
    9900012    2    1    2    0    0  0.99030311852E+01 -0.43939459819E+02  0.60603212483E+00  0.46142318401E+02  0.10000005832E+02 0.  0.
        -12    1    1    2    0    0 -0.99030311852E+01  0.43939459819E+02 -0.60603212483E+00  0.45045681599E+02  0.00000000000E+00 0.  1.
         11    1    3    3    0    0  0.11197247153E-02 -0.16965909060E+02 -0.18487040721E+01  0.17066334654E+02  0.51100000000E-03 0.  1.
        -11    1    3    3    0    0  0.58172075730E+01 -0.20183898953E+02  0.24877248808E+01  0.21152268347E+02  0.51100000000E-03 0. -1.
        -12    1    3    3    0    0  0.40847038875E+01 -0.67896518055E+01 -0.32988683887E-01  0.79237154001E+01  0.00000000000E+00 0.  1.
</event>
<event>
 7    1  0.3708346E-009  0.4614232E+02  0.7816164E-02  0.1320468E+00
        -11   -1    0    0    0    0  0.00000000000E+00  0.00000000000E+00  0.45593999997E+02  0.45594000000E+02  0.51100000000E-03 0. -1.
         11   -1    0    0    0    0 -0.00000000000E+00 -0.00000000000E+00 -0.45593999997E+02  0.45594000000E+02  0.51100000000E-03 0.  1.
    9900012    2    1    2    0    0 -0.21155624201E+02  0.44092692782E+01  0.39523554769E+02  0.46142317937E+02  0.10000001607E+02 0.  0.
        -12    1    1    2    0    0  0.21155624201E+02 -0.44092692782E+01 -0.39523554769E+02  0.45045682063E+02  0.00000000000E+00 0.  1.
         11    1    3    3    0    0 -0.18101770615E+02  0.50827383262E+01  0.34446994476E+02  0.39244155704E+02  0.51100000000E-03 0. -1.
        -11    1    3    3    0    0  0.40781832422E+00  0.49956644828E+00  0.26896862307E-02  0.64489527627E+00  0.51100000000E-03 0.  1.
        -12    1    3    3    0    0 -0.34616719108E+01 -0.11730354962E+01  0.50738706071E+01  0.62532669566E+01  0.00000000000E+00 0.  1.
</event>
<event>
 7    1  0.3708346E-009  0.4614232E+02  0.7816164E-02  0.1320468E+00
        -11   -1    0    0    0    0  0.00000000000E+00  0.00000000000E+00  0.45593999997E+02  0.45594000000E+02  0.51100000000E-03 0.  1.
         11   -1    0    0    0    0 -0.00000000000E+00 -0.00000000000E+00 -0.45593999997E+02  0.45594000000E+02  0.51100000000E-03 0. -1.
    9900012    2    1    2    0    0 -0.63650015358E+00 -0.22947517203E+02 -0.38757189859E+02  0.46142318254E+02  0.10000004493E+02 0.  0.
        -12    1    1    2    0    0  0.63650015358E+00  0.22947517203E+02  0.38757189859E+02  0.45045681746E+02  0.00000000000E+00 0.  1.
         11    1    3    3    0    0 -0.14547977896E+01 -0.11538689340E+02 -0.17918021833E+02  0.21361490935E+02  0.51100000000E-03 0. -1.
        -11    1    3    3    0    0  0.35117878172E+01 -0.41280630489E+01 -0.10864305373E+02  0.12141115670E+02  0.51100000000E-03 0.  1.
         12    1    3    3    0    0 -0.26934901812E+01 -0.72807648139E+01 -0.99748626532E+01  0.12639711649E+02  0.00000000000E+00 0. -1.
</event>
<event>
 7    1  0.3708346E-009  0.4614232E+02  0.7816164E-02  0.1320468E+00
        -11   -1    0    0    0    0  0.00000000000E+00  0.00000000000E+00  0.45593999997E+02  0.45594000000E+02  0.51100000000E-03 0.  1.
         11   -1    0    0    0    0 -0.00000000000E+00 -0.00000000000E+00 -0.45593999997E+02  0.45594000000E+02  0.51100000000E-03 0. -1.
    9900012    2    1    2    0    0  0.19669255822E+02 -0.99029909460E+01 -0.39295862575E+02  0.46142315747E+02  0.99999816378E+01 0.  0.
        -12    1    1    2    0    0 -0.19669255822E+02  0.99029909460E+01  0.39295862575E+02  0.45045684253E+02  0.00000000000E+00 0.  1.
         11    1    3    3    0    0  0.11068788234E+02 -0.31362971958E+01 -0.20500963419E+02  0.23508380089E+02  0.51100000000E-03 0. -1.
        -11    1    3    3    0    0  0.42469924332E+01 -0.70513089471E+01 -0.11715826863E+02  0.14318467164E+02  0.51100000000E-03 0.  1.
        -12    1    3    3    0    0  0.43534751551E+01  0.28461519700E+00 -0.70790722932E+01  0.83154684937E+01  0.00000000000E+00 0.  1.
</event>
<event>
 7    1  0.3708346E-009  0.4614231E+02  0.7816164E-02  0.1320468E+00
        -11   -1    0    0    0    0  0.00000000000E+00  0.00000000000E+00  0.45593999997E+02  0.45594000000E+02  0.51100000000E-03 0.  1.
         11   -1    0    0    0    0 -0.00000000000E+00 -0.00000000000E+00 -0.45593999997E+02  0.45594000000E+02  0.51100000000E-03 0. -1.
    9900012    2    1    2    0    0  0.85537035410E+01 -0.19941511803E+02 -0.39475109662E+02  0.46142311859E+02  0.99999461774E+01 0.  0.
        -12    1    1    2    0    0 -0.85537035410E+01  0.19941511803E+02  0.39475109662E+02  0.45045688141E+02  0.00000000000E+00 0.  1.
         11    1    3    3    0    0  0.46990141867E+01 -0.14807383331E+02 -0.21654853658E+02  0.26650929114E+02  0.51100000000E-03 0. -1.
        -11    1    3    3    0    0  0.31055864739E+01 -0.68005390710E+00 -0.52883120177E+01  0.61703634350E+01  0.51100000000E-03 0.  1.
         12    1    3    3    0    0  0.74910288042E+00 -0.44540745649E+01 -0.12531943987E+02  0.13321019310E+02  0.00000000000E+00 0. -1.
</event>
<event>
 7    1  0.3708346E-009  0.4614232E+02  0.7816164E-02  0.1320468E+00
        -11   -1    0    0    0    0  0.00000000000E+00  0.00000000000E+00  0.45593999997E+02  0.45594000000E+02  0.51100000000E-03 0.  1.
         11   -1    0    0    0    0 -0.00000000000E+00 -0.00000000000E+00 -0.45593999997E+02  0.45594000000E+02  0.51100000000E-03 0. -1.
    9900012    2    1    2    0    0  0.29114979191E+02 -0.24912806198E+02 -0.23680869738E+02  0.46142317438E+02  0.99999970509E+01 0.  0.
        -12    1    1    2    0    0 -0.29114979191E+02  0.24912806198E+02  0.23680869738E+02  0.45045682562E+02  0.00000000000E+00 0.  1.
         11    1    3    3    0    0  0.69249568258E+00 -0.53118400522E+00 -0.16946416125E+01  0.19061786836E+01  0.51100000000E-03 0. -1.
        -11    1    3    3    0    0  0.16775898179E+02 -0.10545572644E+02 -0.14983441735E+02  0.24842370833E+02  0.51100000000E-03 0.  1.
        -12    1    3    3    0    0  0.11646585329E+02 -0.13836049549E+02 -0.70027863904E+01  0.19393767921E+02  0.00000000000E+00 0.  1.
</event>
<event>
 7    1  0.3708346E-009  0.4614232E+02  0.7816164E-02  0.1320468E+00
        -11   -1    0    0    0    0  0.00000000000E+00  0.00000000000E+00  0.45593999997E+02  0.45594000000E+02  0.51100000000E-03 0.  1.
         11   -1    0    0    0    0 -0.00000000000E+00 -0.00000000000E+00 -0.45593999997E+02  0.45594000000E+02  0.51100000000E-03 0. -1.
    9900012    2    1    2    0    0 -0.92779966107E+01  0.24508047067E+02 -0.36638611773E+02  0.46142318023E+02  0.10000002384E+02 0.  0.
        -12    1    1    2    0    0  0.92779966107E+01 -0.24508047067E+02  0.36638611773E+02  0.45045681977E+02  0.00000000000E+00 0.  1.
         11    1    3    3    0    0 -0.54888738362E+01  0.50058571561E+01 -0.12868740738E+02  0.14859031943E+02  0.51100000000E-03 0. -1.
        -11    1    3    3    0    0 -0.31683854428E+01  0.62763888569E+01 -0.70606802025E+01  0.99641822836E+01  0.51100000000E-03 0.  1.
         12    1    3    3    0    0 -0.62073733173E+00  0.13225801054E+02 -0.16709190833E+02  0.21319103796E+02  0.00000000000E+00 0. -1.
</event>
<event>
 7    1  0.3708346E-009  0.4614232E+02  0.7816164E-02  0.1320468E+00
        -11   -1    0    0    0    0  0.00000000000E+00  0.00000000000E+00  0.45593999997E+02  0.45594000000E+02  0.51100000000E-03 0. -1.
         11   -1    0    0    0    0 -0.00000000000E+00 -0.00000000000E+00 -0.45593999997E+02  0.45594000000E+02  0.51100000000E-03 0.  1.
    9900012    2    1    2    0    0  0.63133547591E+00 -0.43933420470E+02 -0.99282050993E+01  0.46142320128E+02  0.10000021582E+02 0.  0.
        -12    1    1    2    0    0 -0.63133547591E+00  0.43933420470E+02  0.99282050993E+01  0.45045679872E+02  0.00000000000E+00 0.  1.
         11    1    3    3    0    0  0.37458890032E+01 -0.30627341659E+02 -0.63606864293E+01  0.31504350074E+02  0.51100000000E-03 0. -1.
        -11    1    3    3    0    0 -0.73317879062E+00 -0.48681945609E+01 -0.31822012002E+01  0.58620196316E+01  0.51100000000E-03 0.  1.
         12    1    3    3    0    0 -0.23813747366E+01 -0.84378842502E+01 -0.38531746986E+00  0.87759504220E+01  0.00000000000E+00 0. -1.
</event>
<event>
 7    1  0.3708346E-009  0.4614232E+02  0.7816164E-02  0.1320468E+00
        -11   -1    0    0    0    0  0.00000000000E+00  0.00000000000E+00  0.45593999997E+02  0.45594000000E+02  0.51100000000E-03 0. -1.
         11   -1    0    0    0    0 -0.00000000000E+00 -0.00000000000E+00 -0.45593999997E+02  0.45594000000E+02  0.51100000000E-03 0.  1.
    9900012    2    1    2    0    0 -0.42007052237E+02 -0.59121676536E+00  0.16253354403E+02  0.46142317585E+02  0.99999983960E+01 0.  0.
        -12    1    1    2    0    0  0.42007052237E+02  0.59121676536E+00 -0.16253354403E+02  0.45045682415E+02  0.00000000000E+00 0.  1.
         11    1    3    3    0    0 -0.73072239819E+01  0.13968497219E+00  0.52139036136E+00  0.73271332991E+01  0.51100000000E-03 0.  1.
        -11    1    3    3    0    0 -0.27110241937E+02 -0.20275592532E+00  0.15445002607E+02  0.31201833819E+02  0.51100000000E-03 0. -1.
        -12    1    3    3    0    0 -0.75895863180E+01 -0.52814581222E+00  0.28696143382E+00  0.76133504675E+01  0.00000000000E+00 0.  1.
</event>
<event>
 7    1  0.3708346E-009  0.4614232E+02  0.7816164E-02  0.1320468E+00
        -11   -1    0    0    0    0  0.00000000000E+00  0.00000000000E+00  0.45593999997E+02  0.45594000000E+02  0.51100000000E-03 0. -1.
         11   -1    0    0    0    0 -0.00000000000E+00 -0.00000000000E+00 -0.45593999997E+02  0.45594000000E+02  0.51100000000E-03 0.  1.
    9900012    2    1    2    0    0  0.46372582006E+00  0.43811959414E+02  0.10459962626E+02  0.46142315995E+02  0.99999838982E+01 0.  0.
        -12    1    1    2    0    0 -0.46372582006E+00 -0.43811959414E+02 -0.10459962626E+02  0.45045684005E+02  0.00000000000E+00 0.  1.
         11    1    3    3    0    0 -0.18252022804E+01  0.53704017472E+01  0.27459629509E+01  0.63018164905E+01  0.51100000000E-03 0. -1.
        -11    1    3    3    0    0  0.36023333034E+01  0.35947188509E+02  0.80144077073E+01  0.37005511726E+02  0.51100000000E-03 0.  1.
        -12    1    3    3    0    0 -0.13134052030E+01  0.24943691572E+01 -0.30040803202E+00  0.28349877787E+01  0.00000000000E+00 0.  1.
</event>
<event>
 7    1  0.3708346E-009  0.4614232E+02  0.7816164E-02  0.1320468E+00
        -11   -1    0    0    0    0  0.00000000000E+00  0.00000000000E+00  0.45593999997E+02  0.45594000000E+02  0.51100000000E-03 0. -1.
         11   -1    0    0    0    0 -0.00000000000E+00 -0.00000000000E+00 -0.45593999997E+02  0.45594000000E+02  0.51100000000E-03 0.  1.
    9900012    2    1    2    0    0 -0.33794293557E+00  0.40792373958E+02  0.19104489431E+02  0.46142317688E+02  0.99999993300E+01 0.  0.
        -12    1    1    2    0    0  0.33794293557E+00 -0.40792373958E+02 -0.19104489431E+02  0.45045682312E+02  0.00000000000E+00 0.  1.
         11    1    3    3    0    0  0.19055127671E+01  0.28378409077E+01  0.99001546095E-01  0.34196668683E+01  0.51100000000E-03 0. -1.
        -11    1    3    3    0    0 -0.19891890589E+01  0.63517865651E+01  0.31142138811E+01  0.73484960392E+01  0.51100000000E-03 0.  1.
         12    1    3    3    0    0 -0.25426664380E+00  0.31602746485E+02  0.15891274003E+02  0.35374154780E+02  0.00000000000E+00 0. -1.
</event>
<event>
 7    1  0.3708346E-009  0.4614232E+02  0.7816164E-02  0.1320468E+00
        -11   -1    0    0    0    0  0.00000000000E+00  0.00000000000E+00  0.45593999997E+02  0.45594000000E+02  0.51100000000E-03 0.  1.
         11   -1    0    0    0    0 -0.00000000000E+00 -0.00000000000E+00 -0.45593999997E+02  0.45594000000E+02  0.51100000000E-03 0. -1.
    9900012    2    1    2    0    0  0.34853088607E+01  0.44875803743E+02 -0.17687183583E+01  0.46142317587E+02  0.99999984124E+01 0.  0.
        -12    1    1    2    0    0 -0.34853088607E+01 -0.44875803743E+02  0.17687183583E+01  0.45045682413E+02  0.00000000000E+00 0.  1.
         11    1    3    3    0    0  0.24279317243E+01  0.32604707831E+02 -0.19769916744E+00  0.32695579371E+02  0.51100000000E-03 0. -1.
        -11    1    3    3    0    0  0.30755022191E+01  0.74175008592E+01 -0.28309423546E+00  0.80348102344E+01  0.51100000000E-03 0.  1.
         12    1    3    3    0    0 -0.20181250827E+01  0.48535950529E+01 -0.12879249554E+01  0.54119279816E+01  0.00000000000E+00 0. -1.
</event>
<event>
 7    1  0.3708346E-009  0.4614232E+02  0.7816164E-02  0.1320468E+00
        -11   -1    0    0    0    0  0.00000000000E+00  0.00000000000E+00  0.45593999997E+02  0.45594000000E+02  0.51100000000E-03 0. -1.
         11   -1    0    0    0    0 -0.00000000000E+00 -0.00000000000E+00 -0.45593999997E+02  0.45594000000E+02  0.51100000000E-03 0.  1.
    9900012    2    1    2    0    0  0.39734613548E+02  0.18451561629E+02 -0.10479206174E+02  0.46142318715E+02  0.10000008701E+02 0.  0.
        -12    1    1    2    0    0 -0.39734613548E+02 -0.18451561629E+02  0.10479206174E+02  0.45045681285E+02  0.00000000000E+00 0.  1.
         11    1    3    3    0    0  0.84782744820E+01  0.19532752595E+01 -0.12087242826E+01  0.87839306170E+01  0.51100000000E-03 0. -1.
        -11    1    3    3    0    0  0.85352283340E+01  0.73059726070E+01 -0.24026975030E+00  0.11237663826E+02  0.51100000000E-03 0.  1.
        -12    1    3    3    0    0  0.22721110732E+02  0.91923137626E+01 -0.90302121408E+01  0.26120724273E+02  0.00000000000E+00 0.  1.
</event>
<event>
 7    1  0.3708346E-009  0.4614232E+02  0.7816164E-02  0.1320468E+00
        -11   -1    0    0    0    0  0.00000000000E+00  0.00000000000E+00  0.45593999997E+02  0.45594000000E+02  0.51100000000E-03 0.  1.
         11   -1    0    0    0    0 -0.00000000000E+00 -0.00000000000E+00 -0.45593999997E+02  0.45594000000E+02  0.51100000000E-03 0. -1.
    9900012    2    1    2    0    0 -0.18950410894E+02  0.30064431099E+02 -0.27678968793E+02  0.46142318700E+02  0.10000008559E+02 0.  0.
        -12    1    1    2    0    0  0.18950410894E+02 -0.30064431099E+02  0.27678968793E+02  0.45045681300E+02  0.00000000000E+00 0.  1.
         11    1    3    3    0    0 -0.10247486016E+02  0.15745166550E+02 -0.17200787258E+02  0.25471323521E+02  0.51100000000E-03 0. -1.
        -11    1    3    3    0    0 -0.62140237211E+01  0.83599201764E+01 -0.31050572838E+01  0.10869394517E+02  0.51100000000E-03 0.  1.
        -12    1    3    3    0    0 -0.24889011568E+01  0.59593443725E+01 -0.73731242513E+01  0.98016006623E+01  0.00000000000E+00 0.  1.
</event>
<event>
 7    1  0.3708346E-009  0.4614232E+02  0.7816164E-02  0.1320468E+00
        -11   -1    0    0    0    0  0.00000000000E+00  0.00000000000E+00  0.45593999997E+02  0.45594000000E+02  0.51100000000E-03 0.  1.
         11   -1    0    0    0    0 -0.00000000000E+00 -0.00000000000E+00 -0.45593999997E+02  0.45594000000E+02  0.51100000000E-03 0. -1.
    9900012    2    1    2    0    0 -0.70067778173E+01  0.25162080338E+02  0.36699976019E+02  0.46142318052E+02  0.10000002657E+02 0.  0.
        -12    1    1    2    0    0  0.70067778173E+01 -0.25162080338E+02 -0.36699976019E+02  0.45045681948E+02  0.00000000000E+00 0.  1.
         11    1    3    3    0    0  0.18404889850E+01  0.31748287221E+01  0.39313987645E+01  0.53779953166E+01  0.51100000000E-03 0. -1.
        -11    1    3    3    0    0 -0.71197154276E+01  0.10857737995E+02  0.17734273608E+02  0.21979201141E+02  0.51100000000E-03 0.  1.
        -12    1    3    3    0    0 -0.17275513746E+01  0.11129513621E+02  0.15034303647E+02  0.18785121595E+02  0.00000000000E+00 0.  1.
</event>
<event>
 7    1  0.3708346E-009  0.4614232E+02  0.7816164E-02  0.1320468E+00
        -11   -1    0    0    0    0  0.00000000000E+00  0.00000000000E+00  0.45593999997E+02  0.45594000000E+02  0.51100000000E-03 0. -1.
         11   -1    0    0    0    0 -0.00000000000E+00 -0.00000000000E+00 -0.45593999997E+02  0.45594000000E+02  0.51100000000E-03 0.  1.
    9900012    2    1    2    0    0 -0.40165367768E+02  0.13150390633E+02  0.15586016495E+02  0.46142318165E+02  0.10000003687E+02 0.  0.
        -12    1    1    2    0    0  0.40165367768E+02 -0.13150390633E+02 -0.15586016495E+02  0.45045681835E+02  0.00000000000E+00 0.  1.
         11    1    3    3    0    0 -0.85525437348E+01  0.47206267632E+00  0.21161816700E+01  0.88230988109E+01  0.51100000000E-03 0. -1.
        -11    1    3    3    0    0 -0.94166672957E+01  0.33135589177E+01  0.75375965800E+01  0.12508743267E+02  0.51100000000E-03 0.  1.
        -12    1    3    3    0    0 -0.22196156738E+02  0.93647690389E+01  0.59322382446E+01  0.24810476087E+02  0.00000000000E+00 0.  1.
</event>
<event>
 7    1  0.3708346E-009  0.4614232E+02  0.7816164E-02  0.1320468E+00
        -11   -1    0    0    0    0  0.00000000000E+00  0.00000000000E+00  0.45593999997E+02  0.45594000000E+02  0.51100000000E-03 0.  1.
         11   -1    0    0    0    0 -0.00000000000E+00 -0.00000000000E+00 -0.45593999997E+02  0.45594000000E+02  0.51100000000E-03 0. -1.
    9900012    2    1    2    0    0 -0.24478903945E+02 -0.80028843554E+01 -0.36957416260E+02  0.46142317488E+02  0.99999975109E+01 0.  0.
        -12    1    1    2    0    0  0.24478903945E+02  0.80028843554E+01  0.36957416260E+02  0.45045682512E+02  0.00000000000E+00 0.  1.
         11    1    3    3    0    0 -0.44605845045E+01  0.14784652614E+01 -0.77182755263E+01  0.90362852440E+01  0.51100000000E-03 0. -1.
        -11    1    3    3    0    0 -0.55701071572E+01 -0.41691372242E+01 -0.57703552310E+01  0.90390706762E+01  0.51100000000E-03 0.  1.
         12    1    3    3    0    0 -0.14448212283E+02 -0.53122123926E+01 -0.23468785503E+02  0.28066961568E+02  0.00000000000E+00 0. -1.
</event>
<event>
 7    1  0.3708346E-009  0.4614232E+02  0.7816164E-02  0.1320468E+00
        -11   -1    0    0    0    0  0.00000000000E+00  0.00000000000E+00  0.45593999997E+02  0.45594000000E+02  0.51100000000E-03 0. -1.
         11   -1    0    0    0    0 -0.00000000000E+00 -0.00000000000E+00 -0.45593999997E+02  0.45594000000E+02  0.51100000000E-03 0.  1.
    9900012    2    1    2    0    0 -0.12996047997E+02  0.11176699240E+02  0.41656903662E+02  0.46142317719E+02  0.99999996187E+01 0.  0.
        -12    1    1    2    0    0  0.12996047997E+02 -0.11176699240E+02 -0.41656903662E+02  0.45045682281E+02  0.00000000000E+00 0.  1.
         11    1    3    3    0    0 -0.40666630111E+01  0.48385683719E+01  0.21032770981E+02  0.21961943160E+02  0.51100000000E-03 0. -1.
        -11    1    3    3    0    0 -0.36055254657E+01 -0.11582004821E+00  0.10168592633E+02  0.10789509005E+02  0.51100000000E-03 0.  1.
         12    1    3    3    0    0 -0.53238595199E+01  0.64539509165E+01  0.10455540047E+02  0.13390865555E+02  0.00000000000E+00 0. -1.
</event>
<event>
 7    1  0.3708346E-009  0.4614231E+02  0.7816164E-02  0.1320468E+00
        -11   -1    0    0    0    0  0.00000000000E+00  0.00000000000E+00  0.45593999997E+02  0.45594000000E+02  0.51100000000E-03 0.  1.
         11   -1    0    0    0    0 -0.00000000000E+00 -0.00000000000E+00 -0.45593999997E+02  0.45594000000E+02  0.51100000000E-03 0. -1.
    9900012    2    1    2    0    0  0.37083752471E+01 -0.34306643276E+02 -0.28955414231E+02  0.46142313934E+02  0.99999651035E+01 0.  0.
        -12    1    1    2    0    0 -0.37083752471E+01  0.34306643276E+02  0.28955414231E+02  0.45045686066E+02  0.00000000000E+00 0.  1.
         11    1    3    3    0    0  0.32069266116E+01 -0.19663863125E+02 -0.14786205005E+02  0.24810960280E+02  0.51100000000E-03 0. -1.
        -11    1    3    3    0    0  0.28626880525E+01 -0.87618022725E+01 -0.10640736809E+02  0.14077977200E+02  0.51100000000E-03 0.  1.
        -12    1    3    3    0    0 -0.23612394170E+01 -0.58809778782E+01 -0.35284724175E+01  0.72533764544E+01  0.00000000000E+00 0.  1.
</event>
<event>
 7    1  0.3708346E-009  0.4614232E+02  0.7816164E-02  0.1320468E+00
        -11   -1    0    0    0    0  0.00000000000E+00  0.00000000000E+00  0.45593999997E+02  0.45594000000E+02  0.51100000000E-03 0. -1.
         11   -1    0    0    0    0 -0.00000000000E+00 -0.00000000000E+00 -0.45593999997E+02  0.45594000000E+02  0.51100000000E-03 0.  1.
    9900012    2    1    2    0    0  0.25428985234E+01  0.16953046750E+02  0.41656228080E+02  0.46142318022E+02  0.10000002376E+02 0.  0.
        -12    1    1    2    0    0 -0.25428985234E+01 -0.16953046750E+02 -0.41656228080E+02  0.45045681978E+02  0.00000000000E+00 0.  1.
         11    1    3    3    0    0  0.31933153713E+01  0.19266511368E+01  0.10818682971E+02  0.11443476271E+02  0.51100000000E-03 0. -1.
        -11    1    3    3    0    0 -0.26285509428E+01  0.11159280152E+02  0.24009000008E+02  0.26605843254E+02  0.51100000000E-03 0.  1.
        -12    1    3    3    0    0  0.19781340948E+01  0.38671154609E+01  0.68285451010E+01  0.80929984976E+01  0.00000000000E+00 0.  1.
</event>
<event>
 7    1  0.3708346E-009  0.4614232E+02  0.7816164E-02  0.1320468E+00
        -11   -1    0    0    0    0  0.00000000000E+00  0.00000000000E+00  0.45593999997E+02  0.45594000000E+02  0.51100000000E-03 0.  1.
         11   -1    0    0    0    0 -0.00000000000E+00 -0.00000000000E+00 -0.45593999997E+02  0.45594000000E+02  0.51100000000E-03 0. -1.
    9900012    2    1    2    0    0  0.35142000830E+02  0.24280176277E+02 -0.14304769385E+02  0.46142316416E+02  0.99999877328E+01 0.  0.
        -12    1    1    2    0    0 -0.35142000830E+02 -0.24280176277E+02  0.14304769385E+02  0.45045683584E+02  0.00000000000E+00 0.  1.
         11    1    3    3    0    0  0.15972843383E+02  0.15507919152E+02 -0.99854972953E+01  0.24399537673E+02  0.51100000000E-03 0.  1.
        -11    1    3    3    0    0  0.10060821500E+02  0.41092554840E+01 -0.37423355971E+01  0.11493963018E+02  0.51100000000E-03 0. -1.
        -12    1    3    3    0    0  0.91083359478E+01  0.46630016408E+01 -0.57693649291E+00  0.10248815725E+02  0.00000000000E+00 0.  1.
</event>
<event>
 7    1  0.3708346E-009  0.4614232E+02  0.7816164E-02  0.1320468E+00
        -11   -1    0    0    0    0  0.00000000000E+00  0.00000000000E+00  0.45593999997E+02  0.45594000000E+02  0.51100000000E-03 0.  1.
         11   -1    0    0    0    0 -0.00000000000E+00 -0.00000000000E+00 -0.45593999997E+02  0.45594000000E+02  0.51100000000E-03 0. -1.
    9900012    2    1    2    0    0 -0.14206493623E+02  0.53469244693E+01 -0.42411076792E+02  0.46142317666E+02  0.99999991296E+01 0.  0.
        -12    1    1    2    0    0  0.14206493623E+02 -0.53469244693E+01  0.42411076792E+02  0.45045682334E+02  0.00000000000E+00 0.  1.
         11    1    3    3    0    0  0.13940673953E+00  0.10972148789E+01 -0.12759891895E+01  0.16886276684E+01  0.51100000000E-03 0. -1.
        -11    1    3    3    0    0 -0.37070715615E+01 -0.20452348606E+01 -0.14193066222E+02  0.14811093621E+02  0.51100000000E-03 0.  1.
         12    1    3    3    0    0 -0.10638828801E+02  0.62949444510E+01 -0.26942021380E+02  0.29642596376E+02  0.00000000000E+00 0. -1.
</event>
<event>
 7    1  0.3708346E-009  0.4614232E+02  0.7816164E-02  0.1320468E+00
        -11   -1    0    0    0    0  0.00000000000E+00  0.00000000000E+00  0.45593999997E+02  0.45594000000E+02  0.51100000000E-03 0.  1.
         11   -1    0    0    0    0 -0.00000000000E+00 -0.00000000000E+00 -0.45593999997E+02  0.45594000000E+02  0.51100000000E-03 0. -1.
    9900012    2    1    2    0    0 -0.13444757500E+02 -0.15345930426E+02 -0.40160360855E+02  0.46142315758E+02  0.99999817336E+01 0.  0.
        -12    1    1    2    0    0  0.13444757500E+02  0.15345930426E+02  0.40160360855E+02  0.45045684242E+02  0.00000000000E+00 0.  1.
         11    1    3    3    0    0 -0.56962022551E+01 -0.42547086513E+01 -0.78189045451E+01  0.10568090385E+02  0.51100000000E-03 0. -1.
        -11    1    3    3    0    0 -0.58968874331E+01 -0.88337649130E+01 -0.30021797179E+02  0.31845203565E+02  0.51100000000E-03 0.  1.
        -12    1    3    3    0    0 -0.18516678114E+01 -0.22574568618E+01 -0.23196591300E+01  0.37290218082E+01  0.00000000000E+00 0.  1.
</event>
<event>
 7    1  0.3708346E-009  0.4614232E+02  0.7816164E-02  0.1320468E+00
        -11   -1    0    0    0    0  0.00000000000E+00  0.00000000000E+00  0.45593999997E+02  0.45594000000E+02  0.51100000000E-03 0.  1.
         11   -1    0    0    0    0 -0.00000000000E+00 -0.00000000000E+00 -0.45593999997E+02  0.45594000000E+02  0.51100000000E-03 0. -1.
    9900012    2    1    2    0    0  0.15020038770E+02 -0.42380236574E+02 -0.27253406255E+01  0.46142317652E+02  0.99999990026E+01 0.  0.
        -12    1    1    2    0    0 -0.15020038770E+02  0.42380236574E+02  0.27253406255E+01  0.45045682348E+02  0.00000000000E+00 0.  1.
         11    1    3    3    0    0  0.89188652280E+01 -0.26272095011E+02 -0.55255342615E+01  0.28289585758E+02  0.51100000000E-03 0. -1.
        -11    1    3    3    0    0  0.27921096109E+01 -0.11158174942E+02  0.30283919587E+01  0.11894196158E+02  0.51100000000E-03 0.  1.
        -12    1    3    3    0    0  0.33090639311E+01 -0.49499666207E+01 -0.22819832262E+00  0.59585357363E+01  0.00000000000E+00 0.  1.
</event>
<event>
 7    1  0.3708346E-009  0.4614232E+02  0.7816164E-02  0.1320468E+00
        -11   -1    0    0    0    0  0.00000000000E+00  0.00000000000E+00  0.45593999997E+02  0.45594000000E+02  0.51100000000E-03 0.  1.
         11   -1    0    0    0    0 -0.00000000000E+00 -0.00000000000E+00 -0.45593999997E+02  0.45594000000E+02  0.51100000000E-03 0. -1.
    9900012    2    1    2    0    0  0.23624032950E+01  0.33934388812E+02 -0.29529471460E+02  0.46142318985E+02  0.10000011159E+02 0.  0.
        -12    1    1    2    0    0 -0.23624032950E+01 -0.33934388812E+02  0.29529471460E+02  0.45045681015E+02  0.00000000000E+00 0.  1.
         11    1    3    3    0    0 -0.90336501670E+00  0.92834254502E+01 -0.69825720125E+01  0.11651367671E+02  0.51100000000E-03 0. -1.
        -11    1    3    3    0    0  0.16883802338E+00  0.36089190810E+01 -0.16701411806E+00  0.36167246492E+01  0.51100000000E-03 0.  1.
         12    1    3    3    0    0  0.30969302883E+01  0.21042044281E+02 -0.22379885330E+02  0.30874226664E+02  0.00000000000E+00 0. -1.
</event>
<event>
 7    1  0.3708346E-009  0.4614232E+02  0.7816164E-02  0.1320468E+00
        -11   -1    0    0    0    0  0.00000000000E+00  0.00000000000E+00  0.45593999997E+02  0.45594000000E+02  0.51100000000E-03 0.  1.
         11   -1    0    0    0    0 -0.00000000000E+00 -0.00000000000E+00 -0.45593999997E+02  0.45594000000E+02  0.51100000000E-03 0. -1.
    9900012    2    1    2    0    0 -0.18356180057E+02 -0.16622536010E+02 -0.37627854170E+02  0.46142318086E+02  0.10000002960E+02 0.  0.
        -12    1    1    2    0    0  0.18356180057E+02  0.16622536010E+02  0.37627854170E+02  0.45045681914E+02  0.00000000000E+00 0.  1.
         11    1    3    3    0    0 -0.13781091002E+02 -0.86720861474E+01 -0.20947844066E+02  0.26531786947E+02  0.51100000000E-03 0. -1.
        -11    1    3    3    0    0 -0.21396236007E+01 -0.24877943867E+01 -0.10539988900E+02  0.11038952683E+02  0.51100000000E-03 0.  1.
        -12    1    3    3    0    0 -0.24354654536E+01 -0.54626554761E+01 -0.61400212042E+01  0.85715784553E+01  0.00000000000E+00 0.  1.
</event>
<event>
 7    1  0.3708346E-009  0.4614232E+02  0.7816164E-02  0.1320468E+00
        -11   -1    0    0    0    0  0.00000000000E+00  0.00000000000E+00  0.45593999997E+02  0.45594000000E+02  0.51100000000E-03 0.  1.
         11   -1    0    0    0    0 -0.00000000000E+00 -0.00000000000E+00 -0.45593999997E+02  0.45594000000E+02  0.51100000000E-03 0. -1.
    9900012    2    1    2    0    0 -0.14151243625E+02 -0.35281452551E+02 -0.24167641455E+02  0.46142317812E+02  0.10000000468E+02 0.  0.
        -12    1    1    2    0    0  0.14151243625E+02  0.35281452551E+02  0.24167641455E+02  0.45045682188E+02  0.00000000000E+00 0.  1.
         11    1    3    3    0    0 -0.86612928805E+01 -0.19428579297E+02 -0.15741932743E+02  0.26463108937E+02  0.51100000000E-03 0. -1.
        -11    1    3    3    0    0 -0.18160723447E+01 -0.71199754600E+01 -0.56686631440E+00  0.73697698059E+01  0.51100000000E-03 0.  1.
        -12    1    3    3    0    0 -0.36738783994E+01 -0.87328977937E+01 -0.78588423979E+01  0.12309439069E+02  0.00000000000E+00 0.  1.
</event>
<event>
 7    1  0.3708346E-009  0.4614232E+02  0.7816164E-02  0.1320468E+00
        -11   -1    0    0    0    0  0.00000000000E+00  0.00000000000E+00  0.45593999997E+02  0.45594000000E+02  0.51100000000E-03 0.  1.
         11   -1    0    0    0    0 -0.00000000000E+00 -0.00000000000E+00 -0.45593999997E+02  0.45594000000E+02  0.51100000000E-03 0. -1.
    9900012    2    1    2    0    0 -0.15682010526E+02  0.31484777999E+02 -0.28140662477E+02  0.46142316695E+02  0.99999902784E+01 0.  0.
        -12    1    1    2    0    0  0.15682010526E+02 -0.31484777999E+02  0.28140662477E+02  0.45045683305E+02  0.00000000000E+00 0.  1.
         11    1    3    3    0    0 -0.73003633529E+00  0.30245604419E+01 -0.36704256245E+01  0.48117505591E+01  0.51100000000E-03 0. -1.
        -11    1    3    3    0    0 -0.25320088840E+01  0.61690824188E+01 -0.11596957892E+01  0.67685701196E+01  0.51100000000E-03 0.  1.
        -12    1    3    3    0    0 -0.12419965306E+02  0.22291135138E+02 -0.23310541064E+02  0.34561996016E+02  0.00000000000E+00 0.  1.
</event>
<event>
 7    1  0.3708346E-009  0.4614232E+02  0.7816164E-02  0.1320468E+00
        -11   -1    0    0    0    0  0.00000000000E+00  0.00000000000E+00  0.45593999997E+02  0.45594000000E+02  0.51100000000E-03 0.  1.
         11   -1    0    0    0    0 -0.00000000000E+00 -0.00000000000E+00 -0.45593999997E+02  0.45594000000E+02  0.51100000000E-03 0. -1.
    9900012    2    1    2    0    0  0.20028361655E+02 -0.28314503014E+02 -0.28744862289E+02  0.46142318081E+02  0.10000002919E+02 0.  0.
        -12    1    1    2    0    0 -0.20028361655E+02  0.28314503014E+02  0.28744862289E+02  0.45045681919E+02  0.00000000000E+00 0.  1.
         11    1    3    3    0    0  0.67914473116E+01 -0.87706235964E+01 -0.13109096500E+02  0.17172536393E+02  0.51100000000E-03 0. -1.
        -11    1    3    3    0    0  0.13669733362E+02 -0.19511562546E+02 -0.14852136667E+02  0.28073985235E+02  0.51100000000E-03 0.  1.
        -12    1    3    3    0    0 -0.43281901934E+00 -0.32316871981E-01 -0.78362912202E+00  0.89579645266E+00  0.00000000000E+00 0.  1.
</event>
<event>
 7    1  0.3708346E-009  0.4614232E+02  0.7816164E-02  0.1320468E+00
        -11   -1    0    0    0    0  0.00000000000E+00  0.00000000000E+00  0.45593999997E+02  0.45594000000E+02  0.51100000000E-03 0.  1.
         11   -1    0    0    0    0 -0.00000000000E+00 -0.00000000000E+00 -0.45593999997E+02  0.45594000000E+02  0.51100000000E-03 0. -1.
    9900012    2    1    2    0    0  0.65227692462E+00 -0.41761570432E+02 -0.16871847901E+02  0.46142317835E+02  0.10000000673E+02 0.  0.
        -12    1    1    2    0    0 -0.65227692462E+00  0.41761570432E+02  0.16871847901E+02  0.45045682165E+02  0.00000000000E+00 0.  1.
         11    1    3    3    0    0 -0.88338292612E+00 -0.21941480882E+02 -0.10871743048E+02  0.24503137470E+02  0.51100000000E-03 0. -1.
        -11    1    3    3    0    0  0.26942381149E+01 -0.83084220661E+01 -0.49056843565E+01  0.10017711092E+02  0.51100000000E-03 0.  1.
         12    1    3    3    0    0 -0.11585782642E+01 -0.11511667484E+02 -0.10944204960E+01  0.11621469273E+02  0.00000000000E+00 0. -1.
</event>
<event>
 7    1  0.3708346E-009  0.4614232E+02  0.7816164E-02  0.1320468E+00
        -11   -1    0    0    0    0  0.00000000000E+00  0.00000000000E+00  0.45593999997E+02  0.45594000000E+02  0.51100000000E-03 0.  1.
         11   -1    0    0    0    0 -0.00000000000E+00 -0.00000000000E+00 -0.45593999997E+02  0.45594000000E+02  0.51100000000E-03 0. -1.
    9900012    2    1    2    0    0 -0.24308895473E+02  0.31275906590E+02 -0.21447813960E+02  0.46142318123E+02  0.10000003296E+02 0.  0.
        -12    1    1    2    0    0  0.24308895473E+02 -0.31275906590E+02  0.21447813960E+02  0.45045681877E+02  0.00000000000E+00 0.  1.
         11    1    3    3    0    0 -0.15358608396E+02  0.23557907212E+02 -0.11830019504E+02  0.30509198707E+02  0.51100000000E-03 0. -1.
        -11    1    3    3    0    0 -0.46353299307E+01  0.18736880508E+01 -0.46875595375E+01  0.68534812437E+01  0.51100000000E-03 0.  1.
        -12    1    3    3    0    0 -0.43149571464E+01  0.58443113278E+01 -0.49302349187E+01  0.87796381717E+01  0.00000000000E+00 0.  1.
</event>
<event>
 7    1  0.3708346E-009  0.4614232E+02  0.7816164E-02  0.1320468E+00
        -11   -1    0    0    0    0  0.00000000000E+00  0.00000000000E+00  0.45593999997E+02  0.45594000000E+02  0.51100000000E-03 0.  1.
         11   -1    0    0    0    0 -0.00000000000E+00 -0.00000000000E+00 -0.45593999997E+02  0.45594000000E+02  0.51100000000E-03 0. -1.
    9900012    2    1    2    0    0 -0.38185557068E+01  0.86144449351E+01 -0.44049103329E+02  0.46142317262E+02  0.99999954492E+01 0.  0.
        -12    1    1    2    0    0  0.38185557068E+01 -0.86144449351E+01  0.44049103329E+02  0.45045682738E+02  0.00000000000E+00 0.  1.
         11    1    3    3    0    0  0.61384269447E+00 -0.86406241859E+00 -0.29934020993E+01  0.31755098970E+01  0.51100000000E-03 0.  1.
        -11    1    3    3    0    0  0.14262027956E+01  0.13134047902E+01 -0.27496993061E+01  0.33645108251E+01  0.51100000000E-03 0. -1.
         12    1    3    3    0    0 -0.58586011969E+01  0.81651025635E+01 -0.38306001924E+02  0.39602296540E+02  0.00000000000E+00 0. -1.
</event>
<event>
 7    1  0.3708346E-009  0.4614231E+02  0.7816164E-02  0.1320468E+00
        -11   -1    0    0    0    0  0.00000000000E+00  0.00000000000E+00  0.45593999997E+02  0.45594000000E+02  0.51100000000E-03 0.  1.
         11   -1    0    0    0    0 -0.00000000000E+00 -0.00000000000E+00 -0.45593999997E+02  0.45594000000E+02  0.51100000000E-03 0. -1.
    9900012    2    1    2    0    0  0.38130640467E+02 -0.65935640077E+01 -0.23058467899E+02  0.46142314628E+02  0.99999714317E+01 0.  0.
        -12    1    1    2    0    0 -0.38130640467E+02  0.65935640077E+01  0.23058467899E+02  0.45045685372E+02  0.00000000000E+00 0.  1.
         11    1    3    3    0    0  0.10293348394E+02 -0.37556640174E+01 -0.43898265832E+01  0.11803754109E+02  0.51100000000E-03 0. -1.
        -11    1    3    3    0    0  0.24026395810E+02 -0.40459627988E+01 -0.17982916853E+02  0.30282384473E+02  0.51100000000E-03 0.  1.
        -12    1    3    3    0    0  0.38108962630E+01  0.12080628085E+01 -0.68572446308E+00  0.40561760460E+01  0.00000000000E+00 0.  1.
</event>
<event>
 7    1  0.3708346E-009  0.4614232E+02  0.7816164E-02  0.1320468E+00
        -11   -1    0    0    0    0  0.00000000000E+00  0.00000000000E+00  0.45593999997E+02  0.45594000000E+02  0.51100000000E-03 0.  1.
         11   -1    0    0    0    0 -0.00000000000E+00 -0.00000000000E+00 -0.45593999997E+02  0.45594000000E+02  0.51100000000E-03 0. -1.
    9900012    2    1    2    0    0 -0.18065596118E+02  0.40278788958E+02  0.89647635109E+01  0.46142316657E+02  0.99999899312E+01 0.  0.
        -12    1    1    2    0    0  0.18065596118E+02 -0.40278788958E+02 -0.89647635109E+01  0.45045683343E+02  0.00000000000E+00 0.  1.
         11    1    3    3    0    0 -0.47240262158E+01  0.10283958817E+02  0.62882270644E-01  0.11317251746E+02  0.51100000000E-03 0. -1.
        -11    1    3    3    0    0 -0.43713656055E+00  0.68786297062E+01 -0.56778649525E-02  0.68925080709E+01  0.51100000000E-03 0.  1.
        -12    1    3    3    0    0 -0.12904433342E+02  0.23116200435E+02  0.89075591052E+01  0.27932556840E+02  0.00000000000E+00 0.  1.
</event>
