<event>
 7    1  0.4452647E-009  0.4614232E+02  0.7816164E-02  0.1320468E+00
        -11   -1    0    0    0    0  0.00000000000E+00  0.00000000000E+00  0.45593999997E+02  0.45594000000E+02  0.51100000000E-03 0. -1.
         11   -1    0    0    0    0 -0.00000000000E+00 -0.00000000000E+00 -0.45593999997E+02  0.45594000000E+02  0.51100000000E-03 0.  1.
    9900012    2    1    2    0    0  0.25031414395E+02  0.24835606783E+02 -0.28030954607E+02  0.46142317776E+02  0.10000000132E+02 0.  0.
         12    1    1    2    0    0 -0.25031414395E+02 -0.24835606783E+02  0.28030954607E+02  0.45045682224E+02  0.00000000000E+00 0. -1.
         11    1    3    3    0    0  0.83857606542E+00 -0.25308670343E+00 -0.14971402835E+01  0.17345581531E+01  0.51100000000E-03 0. -1.
        -11    1    3    3    0    0  0.11186075086E+02  0.14315783919E+02 -0.98425750201E+01  0.20662677182E+02  0.51100000000E-03 0.  1.
        -12    1    3    3    0    0  0.13006763244E+02  0.10772909567E+02 -0.16691239303E+02  0.23745082441E+02  0.00000000000E+00 0.  1.
</event>
<event>
 7    1  0.4452647E-009  0.4614232E+02  0.7816164E-02  0.1320468E+00
        -11   -1    0    0    0    0  0.00000000000E+00  0.00000000000E+00  0.45593999997E+02  0.45594000000E+02  0.51100000000E-03 0. -1.
         11   -1    0    0    0    0 -0.00000000000E+00 -0.00000000000E+00 -0.45593999997E+02  0.45594000000E+02  0.51100000000E-03 0.  1.
    9900012    2    1    2    0    0  0.26650172603E+02 -0.10972555502E+02 -0.34619139977E+02  0.46142317335E+02  0.99999961172E+01 0.  0.
         12    1    1    2    0    0 -0.26650172603E+02  0.10972555502E+02  0.34619139977E+02  0.45045682665E+02  0.00000000000E+00 0. -1.
         11    1    3    3    0    0  0.25482302684E+00  0.91877317213E-01 -0.39254009111E+01  0.39347361780E+01  0.51100000000E-03 0. -1.
        -11    1    3    3    0    0  0.12240550840E+02 -0.38139505210E+01 -0.16463615829E+02  0.20866910405E+02  0.51100000000E-03 0.  1.
         12    1    3    3    0    0  0.14154798736E+02 -0.72504822980E+01 -0.14230123237E+02  0.21340670752E+02  0.00000000000E+00 0. -1.
</event>
<event>
 7    1  0.4452647E-009  0.4614232E+02  0.7816164E-02  0.1320468E+00
        -11   -1    0    0    0    0  0.00000000000E+00  0.00000000000E+00  0.45593999997E+02  0.45594000000E+02  0.51100000000E-03 0. -1.
         11   -1    0    0    0    0 -0.00000000000E+00 -0.00000000000E+00 -0.45593999997E+02  0.45594000000E+02  0.51100000000E-03 0.  1.
    9900012    2    1    2    0    0  0.29870841507E+02 -0.15202485439E+02  0.30095351295E+02  0.46142324232E+02  0.10000059002E+02 0.  0.
        -12    1    1    2    0    0 -0.29870841507E+02  0.15202485439E+02 -0.30095351295E+02  0.45045675768E+02  0.00000000000E+00 0.  1.
         11    1    3    3    0    0  0.10690312152E+02 -0.68673692575E+01  0.11075934675E+02  0.16855855469E+02  0.51100000000E-03 0. -1.
        -11    1    3    3    0    0  0.16677220087E+02 -0.41170391878E+01  0.13125033812E+02  0.21618191283E+02  0.51100000000E-03 0.  1.
        -12    1    3    3    0    0  0.25033092686E+01 -0.42180769932E+01  0.58943828080E+01  0.76682774795E+01  0.00000000000E+00 0.  1.
</event>
<event>
 7    1  0.4452647E-009  0.4614232E+02  0.7816164E-02  0.1320468E+00
        -11   -1    0    0    0    0  0.00000000000E+00  0.00000000000E+00  0.45593999997E+02  0.45594000000E+02  0.51100000000E-03 0. -1.
         11   -1    0    0    0    0 -0.00000000000E+00 -0.00000000000E+00 -0.45593999997E+02  0.45594000000E+02  0.51100000000E-03 0.  1.
    9900012    2    1    2    0    0 -0.28995965312E+01 -0.10845465102E+02 -0.43624326695E+02  0.46142315935E+02  0.99999833467E+01 0.  0.
         12    1    1    2    0    0  0.28995965312E+01  0.10845465102E+02  0.43624326695E+02  0.45045684065E+02  0.00000000000E+00 0. -1.
         11    1    3    3    0    0  0.14756303008E+01 -0.71668079417E+01 -0.15040083884E+02  0.16725571570E+02  0.51100000000E-03 0. -1.
        -11    1    3    3    0    0 -0.29083280389E+01 -0.33887989223E+00 -0.17620324471E+02  0.17861944079E+02  0.51100000000E-03 0.  1.
        -12    1    3    3    0    0 -0.14668987932E+01 -0.33397772683E+01 -0.10963918340E+02  0.11554800285E+02  0.00000000000E+00 0.  1.
</event>
<event>
 7    1  0.4452647E-009  0.4614232E+02  0.7816164E-02  0.1320468E+00
        -11   -1    0    0    0    0  0.00000000000E+00  0.00000000000E+00  0.45593999997E+02  0.45594000000E+02  0.51100000000E-03 0. -1.
         11   -1    0    0    0    0 -0.00000000000E+00 -0.00000000000E+00 -0.45593999997E+02  0.45594000000E+02  0.51100000000E-03 0.  1.
    9900012    2    1    2    0    0 -0.80380082069E+01  0.20988313452E+02 -0.39038374122E+02  0.46142317282E+02  0.99999956267E+01 0.  0.
         12    1    1    2    0    0  0.80380082069E+01 -0.20988313452E+02  0.39038374122E+02  0.45045682718E+02  0.00000000000E+00 0. -1.
         11    1    3    3    0    0  0.21042514942E+01  0.32683906915E+01 -0.49357337335E+01  0.62826522912E+01  0.51100000000E-03 0. -1.
        -11    1    3    3    0    0 -0.93888349488E+01  0.17456719543E+02 -0.33058545700E+02  0.38545489009E+02  0.51100000000E-03 0.  1.
        -12    1    3    3    0    0 -0.75342475231E+00  0.26320321757E+00 -0.10440946883E+01  0.13141759811E+01  0.00000000000E+00 0.  1.
</event>
<event>
 7    1  0.4452647E-009  0.4614232E+02  0.7816164E-02  0.1320468E+00
        -11   -1    0    0    0    0  0.00000000000E+00  0.00000000000E+00  0.45593999997E+02  0.45594000000E+02  0.51100000000E-03 0. -1.
         11   -1    0    0    0    0 -0.00000000000E+00 -0.00000000000E+00 -0.45593999997E+02  0.45594000000E+02  0.51100000000E-03 0.  1.
    9900012    2    1    2    0    0  0.18808554418E+02  0.11849560564E+02  0.39178305344E+02  0.46142318582E+02  0.10000007483E+02 0.  0.
        -12    1    1    2    0    0 -0.18808554418E+02 -0.11849560564E+02 -0.39178305344E+02  0.45045681418E+02  0.00000000000E+00 0.  1.
         11    1    3    3    0    0  0.47353359638E+01  0.32187946271E+01  0.61086981620E+01  0.83725885506E+01  0.51100000000E-03 0. -1.
        -11    1    3    3    0    0  0.69539751796E+01 -0.12321167361E+00  0.13175029258E+02  0.14898132371E+02  0.51100000000E-03 0.  1.
        -12    1    3    3    0    0  0.71192432747E+01  0.87539776100E+01  0.19894577923E+02  0.22871597660E+02  0.00000000000E+00 0.  1.
</event>
<event>
 7    1  0.4452647E-009  0.4614232E+02  0.7816164E-02  0.1320468E+00
        -11   -1    0    0    0    0  0.00000000000E+00  0.00000000000E+00  0.45593999997E+02  0.45594000000E+02  0.51100000000E-03 0. -1.
         11   -1    0    0    0    0 -0.00000000000E+00 -0.00000000000E+00 -0.45593999997E+02  0.45594000000E+02  0.51100000000E-03 0.  1.
    9900012    2    1    2    0    0  0.19308338443E+02  0.36470464064E+02  0.18061196155E+02  0.46142317754E+02  0.99999999379E+01 0.  0.
        -12    1    1    2    0    0 -0.19308338443E+02 -0.36470464064E+02 -0.18061196155E+02  0.45045682246E+02  0.00000000000E+00 0.  1.
         11    1    3    3    0    0  0.11512293791E+02  0.16424326109E+02  0.10920647100E+02  0.22837511463E+02  0.51100000000E-03 0. -1.
        -11    1    3    3    0    0  0.61137885732E+01  0.10359078209E+02  0.19465592324E+01  0.12185155114E+02  0.51100000000E-03 0.  1.
         12    1    3    3    0    0  0.16822560792E+01  0.96870597459E+01  0.51939898220E+01  0.11119651177E+02  0.00000000000E+00 0. -1.
</event>
<event>
 7    1  0.4452647E-009  0.4614232E+02  0.7816164E-02  0.1320468E+00
        -11   -1    0    0    0    0  0.00000000000E+00  0.00000000000E+00  0.45593999997E+02  0.45594000000E+02  0.51100000000E-03 0. -1.
         11   -1    0    0    0    0 -0.00000000000E+00 -0.00000000000E+00 -0.45593999997E+02  0.45594000000E+02  0.51100000000E-03 0.  1.
    9900012    2    1    2    0    0  0.18652071807E+02  0.39818416646E+02  0.97830145103E+01  0.46142318078E+02  0.10000002889E+02 0.  0.
        -12    1    1    2    0    0 -0.18652071807E+02 -0.39818416646E+02 -0.97830145103E+01  0.45045681922E+02  0.00000000000E+00 0.  1.
         11    1    3    3    0    0  0.13836522842E+02  0.31818825945E+02  0.11037042806E+02  0.36410209599E+02  0.51100000000E-03 0. -1.
        -11    1    3    3    0    0  0.50496864808E+01  0.76445412974E+01 -0.14283652607E+01  0.92724631453E+01  0.51100000000E-03 0.  1.
        -12    1    3    3    0    0 -0.23413751573E+00  0.35504940344E+00  0.17433696458E+00  0.45964533324E+00  0.00000000000E+00 0.  1.
</event>
<event>
 7    1  0.4452647E-009  0.4614232E+02  0.7816164E-02  0.1320468E+00
        -11   -1    0    0    0    0  0.00000000000E+00  0.00000000000E+00  0.45593999997E+02  0.45594000000E+02  0.51100000000E-03 0. -1.
         11   -1    0    0    0    0 -0.00000000000E+00 -0.00000000000E+00 -0.45593999997E+02  0.45594000000E+02  0.51100000000E-03 0.  1.
    9900012    2    1    2    0    0  0.35065386553E+02 -0.25469769790E+02  0.12281000336E+02  0.46142317892E+02  0.10000001197E+02 0.  0.
        -12    1    1    2    0    0 -0.35065386553E+02  0.25469769790E+02 -0.12281000336E+02  0.45045682108E+02  0.00000000000E+00 0.  1.
         11    1    3    3    0    0  0.18601637792E+02 -0.16259083742E+02  0.31160789244E+01  0.24901579886E+02  0.51100000000E-03 0. -1.
        -11    1    3    3    0    0  0.12990489877E+02 -0.60984259037E+01  0.57469998103E+01  0.15458707346E+02  0.51100000000E-03 0.  1.
         12    1    3    3    0    0  0.34732588842E+01 -0.31122601438E+01  0.34179216012E+01  0.57820306599E+01  0.00000000000E+00 0. -1.
</event>
<event>
 7    1  0.4452647E-009  0.4614232E+02  0.7816164E-02  0.1320468E+00
        -11   -1    0    0    0    0  0.00000000000E+00  0.00000000000E+00  0.45593999997E+02  0.45594000000E+02  0.51100000000E-03 0. -1.
         11   -1    0    0    0    0 -0.00000000000E+00 -0.00000000000E+00 -0.45593999997E+02  0.45594000000E+02  0.51100000000E-03 0.  1.
    9900012    2    1    2    0    0  0.54950441357E+01 -0.24206801364E+02  0.37589211141E+02  0.46142317226E+02  0.99999951216E+01 0.  0.
        -12    1    1    2    0    0 -0.54950441357E+01  0.24206801364E+02 -0.37589211141E+02  0.45045682774E+02  0.00000000000E+00 0.  1.
         11    1    3    3    0    0  0.25896546764E+01 -0.18384818721E+02  0.32950719903E+02  0.37821393591E+02  0.51100000000E-03 0. -1.
        -11    1    3    3    0    0  0.24130783019E+01 -0.33929665074E+01  0.17540046909E+01  0.45179310893E+01  0.51100000000E-03 0.  1.
         12    1    3    3    0    0  0.49231115747E+00 -0.24290161360E+01  0.28844865472E+01  0.38029925461E+01  0.00000000000E+00 0. -1.
</event>
<event>
 7    1  0.4452647E-009  0.4614232E+02  0.7816164E-02  0.1320468E+00
        -11   -1    0    0    0    0  0.00000000000E+00  0.00000000000E+00  0.45593999997E+02  0.45594000000E+02  0.51100000000E-03 0. -1.
         11   -1    0    0    0    0 -0.00000000000E+00 -0.00000000000E+00 -0.45593999997E+02  0.45594000000E+02  0.51100000000E-03 0.  1.
    9900012    2    1    2    0    0  0.34444314468E+02  0.11216562321E+02 -0.26774828013E+02  0.46142317803E+02  0.10000000383E+02 0.  0.
         12    1    1    2    0    0 -0.34444314468E+02 -0.11216562321E+02  0.26774828013E+02  0.45045682197E+02  0.00000000000E+00 0. -1.
         11    1    3    3    0    0  0.14916147501E+01  0.59892856326E+00 -0.43540511621E+01  0.46412704909E+01  0.51100000000E-03 0. -1.
        -11    1    3    3    0    0  0.28785660713E+02  0.92859118682E+01 -0.21273545842E+02  0.36978455550E+02  0.51100000000E-03 0.  1.
         12    1    3    3    0    0  0.41670390051E+01  0.13317218896E+01 -0.11472310084E+01  0.45225917622E+01  0.00000000000E+00 0. -1.
</event>
<event>
 7    1  0.4452647E-009  0.4614232E+02  0.7816164E-02  0.1320468E+00
        -11   -1    0    0    0    0  0.00000000000E+00  0.00000000000E+00  0.45593999997E+02  0.45594000000E+02  0.51100000000E-03 0. -1.
         11   -1    0    0    0    0 -0.00000000000E+00 -0.00000000000E+00 -0.45593999997E+02  0.45594000000E+02  0.51100000000E-03 0.  1.
    9900012    2    1    2    0    0  0.12546393772E+01  0.28373812003E+02 -0.34963783059E+02  0.46142318150E+02  0.10000003547E+02 0.  0.
         12    1    1    2    0    0 -0.12546393772E+01 -0.28373812003E+02  0.34963783059E+02  0.45045681850E+02  0.00000000000E+00 0. -1.
         11    1    3    3    0    0 -0.12889323223E+00  0.76710023191E+01 -0.60140815217E+01  0.97483366200E+01  0.51100000000E-03 0.  1.
        -11    1    3    3    0    0  0.30074594707E+01  0.18329494857E+02 -0.21522214673E+02  0.28429226491E+02  0.51100000000E-03 0. -1.
         12    1    3    3    0    0 -0.16239268612E+01  0.23733148270E+01 -0.74274868645E+01  0.79647550396E+01  0.00000000000E+00 0. -1.
</event>
<event>
 7    1  0.4452647E-009  0.4614232E+02  0.7816164E-02  0.1320468E+00
        -11   -1    0    0    0    0  0.00000000000E+00  0.00000000000E+00  0.45593999997E+02  0.45594000000E+02  0.51100000000E-03 0. -1.
         11   -1    0    0    0    0 -0.00000000000E+00 -0.00000000000E+00 -0.45593999997E+02  0.45594000000E+02  0.51100000000E-03 0.  1.
    9900012    2    1    2    0    0  0.30793165705E+02  0.32766267616E+02  0.26955956647E+01  0.46142316704E+02  0.99999903621E+01 0.  0.
         12    1    1    2    0    0 -0.30793165705E+02 -0.32766267616E+02 -0.26955956647E+01  0.45045683296E+02  0.00000000000E+00 0. -1.
         11    1    3    3    0    0  0.13319435900E+02  0.19481267805E+02 -0.48217970595E+00  0.23604229822E+02  0.51100000000E-03 0. -1.
        -11    1    3    3    0    0  0.13048281242E+02  0.90923744678E+01  0.39671487510E+01  0.16391070323E+02  0.51100000000E-03 0.  1.
         12    1    3    3    0    0  0.44254485623E+01  0.41926253435E+01 -0.78937338034E+00  0.61470165595E+01  0.00000000000E+00 0. -1.
</event>
<event>
 7    1  0.4452647E-009  0.4614232E+02  0.7816164E-02  0.1320468E+00
        -11   -1    0    0    0    0  0.00000000000E+00  0.00000000000E+00  0.45593999997E+02  0.45594000000E+02  0.51100000000E-03 0.  1.
         11   -1    0    0    0    0 -0.00000000000E+00 -0.00000000000E+00 -0.45593999997E+02  0.45594000000E+02  0.51100000000E-03 0. -1.
    9900012    2    1    2    0    0 -0.49441211980E+01 -0.39484921319E+02 -0.21109480364E+02  0.46142317552E+02  0.99999980955E+01 0.  0.
         12    1    1    2    0    0  0.49441211980E+01  0.39484921319E+02  0.21109480364E+02  0.45045682448E+02  0.00000000000E+00 0. -1.
         11    1    3    3    0    0 -0.20115786192E+01 -0.33907130846E+01 -0.48009870755E+01  0.62123152627E+01  0.51100000000E-03 0. -1.
        -11    1    3    3    0    0 -0.35520878839E+01 -0.26810940995E+02 -0.13394680466E+02  0.30180479626E+02  0.51100000000E-03 0.  1.
         12    1    3    3    0    0  0.61954530510E+00 -0.92832672386E+01 -0.29138128222E+01  0.97495226637E+01  0.00000000000E+00 0. -1.
</event>
<event>
 7    1  0.4452647E-009  0.4614231E+02  0.7816164E-02  0.1320468E+00
        -11   -1    0    0    0    0  0.00000000000E+00  0.00000000000E+00  0.45593999997E+02  0.45594000000E+02  0.51100000000E-03 0. -1.
         11   -1    0    0    0    0 -0.00000000000E+00 -0.00000000000E+00 -0.45593999997E+02  0.45594000000E+02  0.51100000000E-03 0.  1.
    9900012    2    1    2    0    0 -0.18758670510E+02 -0.25284109390E+02  0.32217074610E+02  0.46142314264E+02  0.99999681151E+01 0.  0.
        -12    1    1    2    0    0  0.18758670510E+02  0.25284109390E+02 -0.32217074610E+02  0.45045685736E+02  0.00000000000E+00 0.  1.
         11    1    3    3    0    0 -0.14857255298E+02 -0.18383740426E+02  0.24024092799E+02  0.33702477388E+02  0.51100000000E-03 0. -1.
        -11    1    3    3    0    0 -0.20492279975E+01 -0.60937428250E+01  0.34763413851E+01  0.73087609545E+01  0.51100000000E-03 0.  1.
         12    1    3    3    0    0 -0.18521872144E+01 -0.80662613944E+00  0.47166404264E+01  0.51310759221E+01  0.00000000000E+00 0. -1.
</event>
<event>
 7    1  0.4452647E-009  0.4614232E+02  0.7816164E-02  0.1320468E+00
        -11   -1    0    0    0    0  0.00000000000E+00  0.00000000000E+00  0.45593999997E+02  0.45594000000E+02  0.51100000000E-03 0. -1.
         11   -1    0    0    0    0 -0.00000000000E+00 -0.00000000000E+00 -0.45593999997E+02  0.45594000000E+02  0.51100000000E-03 0.  1.
    9900012    2    1    2    0    0 -0.10340608671E+02 -0.24342062396E+02 -0.36464356472E+02  0.46142317829E+02  0.10000000617E+02 0.  0.
         12    1    1    2    0    0  0.10340608671E+02  0.24342062396E+02  0.36464356472E+02  0.45045682171E+02  0.00000000000E+00 0. -1.
         11    1    3    3    0    0 -0.15183581461E+01 -0.94878823165E+01 -0.76707410873E+01  0.12294941700E+02  0.51100000000E-03 0. -1.
        -11    1    3    3    0    0 -0.38497497250E+01 -0.35547427029E+01 -0.11076753440E+02  0.12253621329E+02  0.51100000000E-03 0.  1.
         12    1    3    3    0    0 -0.49725007995E+01 -0.11299437377E+02 -0.17716861944E+02  0.21593754800E+02  0.00000000000E+00 0. -1.
</event>
<event>
 7    1  0.4452647E-009  0.4614232E+02  0.7816164E-02  0.1320468E+00
        -11   -1    0    0    0    0  0.00000000000E+00  0.00000000000E+00  0.45593999997E+02  0.45594000000E+02  0.51100000000E-03 0. -1.
         11   -1    0    0    0    0 -0.00000000000E+00 -0.00000000000E+00 -0.45593999997E+02  0.45594000000E+02  0.51100000000E-03 0.  1.
    9900012    2    1    2    0    0 -0.19223968519E+02 -0.70486812014E+01 -0.40123167585E+02  0.46142318194E+02  0.10000003951E+02 0.  0.
         12    1    1    2    0    0  0.19223968519E+02  0.70486812014E+01  0.40123167585E+02  0.45045681806E+02  0.00000000000E+00 0. -1.
         11    1    3    3    0    0 -0.27337483756E+01 -0.38994498846E+01 -0.16061256690E+02  0.16752404493E+02  0.51100000000E-03 0. -1.
        -11    1    3    3    0    0 -0.37043187261E+01 -0.91479039237E+00 -0.67326505647E+01  0.77386951467E+01  0.51100000000E-03 0.  1.
         12    1    3    3    0    0 -0.12785901418E+02 -0.22344409244E+01 -0.17329260330E+02  0.21651218555E+02  0.00000000000E+00 0. -1.
</event>
<event>
 7    1  0.4452647E-009  0.4614232E+02  0.7816164E-02  0.1320468E+00
        -11   -1    0    0    0    0  0.00000000000E+00  0.00000000000E+00  0.45593999997E+02  0.45594000000E+02  0.51100000000E-03 0.  1.
         11   -1    0    0    0    0 -0.00000000000E+00 -0.00000000000E+00 -0.45593999997E+02  0.45594000000E+02  0.51100000000E-03 0. -1.
    9900012    2    1    2    0    0  0.24025942257E+02 -0.22972224662E+02  0.30399744371E+02  0.46142318020E+02  0.10000002358E+02 0.  0.
        -12    1    1    2    0    0 -0.24025942257E+02  0.22972224662E+02 -0.30399744371E+02  0.45045681980E+02  0.00000000000E+00 0.  1.
         11    1    3    3    0    0  0.56769072121E+01 -0.47053991106E+01  0.10467371195E+02  0.12803668079E+02  0.51100000000E-03 0. -1.
        -11    1    3    3    0    0  0.19199086989E+01  0.25669380198E+00  0.18555761161E+01  0.26823691214E+01  0.51100000000E-03 0.  1.
         12    1    3    3    0    0  0.16429126346E+02 -0.18523519353E+02  0.18076797061E+02  0.30656280819E+02  0.00000000000E+00 0. -1.
</event>
<event>
 7    1  0.4452647E-009  0.4614232E+02  0.7816164E-02  0.1320468E+00
        -11   -1    0    0    0    0  0.00000000000E+00  0.00000000000E+00  0.45593999997E+02  0.45594000000E+02  0.51100000000E-03 0. -1.
         11   -1    0    0    0    0 -0.00000000000E+00 -0.00000000000E+00 -0.45593999997E+02  0.45594000000E+02  0.51100000000E-03 0.  1.
    9900012    2    1    2    0    0 -0.17752276229E+02  0.31913802942E+02 -0.26371942105E+02  0.46142318077E+02  0.10000002876E+02 0.  0.
         12    1    1    2    0    0  0.17752276229E+02 -0.31913802942E+02  0.26371942105E+02  0.45045681923E+02  0.00000000000E+00 0. -1.
         11    1    3    3    0    0 -0.18398585878E+01  0.63923750306E+01 -0.25964830220E+01  0.71406766136E+01  0.51100000000E-03 0. -1.
        -11    1    3    3    0    0 -0.21734680053E+01  0.33042203615E+01 -0.44895071625E+00  0.39803759087E+01  0.51100000000E-03 0.  1.
        -12    1    3    3    0    0 -0.13738949636E+02  0.22217207550E+02 -0.23326508367E+02  0.35021265554E+02  0.00000000000E+00 0.  1.
</event>
<event>
 7    1  0.4452647E-009  0.4614232E+02  0.7816164E-02  0.1320468E+00
        -11   -1    0    0    0    0  0.00000000000E+00  0.00000000000E+00  0.45593999997E+02  0.45594000000E+02  0.51100000000E-03 0. -1.
         11   -1    0    0    0    0 -0.00000000000E+00 -0.00000000000E+00 -0.45593999997E+02  0.45594000000E+02  0.51100000000E-03 0.  1.
    9900012    2    1    2    0    0  0.20138481814E+02 -0.80566083851E+00  0.40285308232E+02  0.46142316539E+02  0.99999888536E+01 0.  0.
        -12    1    1    2    0    0 -0.20138481814E+02  0.80566083851E+00 -0.40285308232E+02  0.45045683461E+02  0.00000000000E+00 0.  1.
         11    1    3    3    0    0  0.81563657938E+01  0.22417820030E+01  0.14490609679E+02  0.16778845570E+02  0.51100000000E-03 0. -1.
        -11    1    3    3    0    0  0.33144313248E+01  0.86917351109E+00  0.26218006269E+01  0.43144821691E+01  0.51100000000E-03 0.  1.
        -12    1    3    3    0    0  0.86676846956E+01 -0.39166163526E+01  0.23172897926E+02  0.25048988800E+02  0.00000000000E+00 0.  1.
</event>
<event>
 7    1  0.4452647E-009  0.4614232E+02  0.7816164E-02  0.1320468E+00
        -11   -1    0    0    0    0  0.00000000000E+00  0.00000000000E+00  0.45593999997E+02  0.45594000000E+02  0.51100000000E-03 0. -1.
         11   -1    0    0    0    0 -0.00000000000E+00 -0.00000000000E+00 -0.45593999997E+02  0.45594000000E+02  0.51100000000E-03 0.  1.
    9900012    2    1    2    0    0 -0.20813373287E+02  0.24493044243E+02 -0.31559590710E+02  0.46142317747E+02  0.99999998690E+01 0.  0.
         12    1    1    2    0    0  0.20813373287E+02 -0.24493044243E+02  0.31559590710E+02  0.45045682253E+02  0.00000000000E+00 0. -1.
         11    1    3    3    0    0 -0.51373514925E+01  0.92324996239E+01 -0.11488244182E+02  0.15608048703E+02  0.51100000000E-03 0. -1.
        -11    1    3    3    0    0 -0.10437922568E+02  0.77225973515E+01 -0.15681843383E+02  0.20359492861E+02  0.51100000000E-03 0.  1.
        -12    1    3    3    0    0 -0.52380992264E+01  0.75379472681E+01 -0.43895031444E+01  0.10174776183E+02  0.00000000000E+00 0.  1.
</event>
<event>
 7    1  0.4452647E-009  0.4614232E+02  0.7816164E-02  0.1320468E+00
        -11   -1    0    0    0    0  0.00000000000E+00  0.00000000000E+00  0.45593999997E+02  0.45594000000E+02  0.51100000000E-03 0. -1.
         11   -1    0    0    0    0 -0.00000000000E+00 -0.00000000000E+00 -0.45593999997E+02  0.45594000000E+02  0.51100000000E-03 0.  1.
    9900012    2    1    2    0    0 -0.12948071267E+02  0.14358411880E+02  0.40685339987E+02  0.46142318397E+02  0.10000005795E+02 0.  0.
        -12    1    1    2    0    0  0.12948071267E+02 -0.14358411880E+02 -0.40685339987E+02  0.45045681603E+02  0.00000000000E+00 0.  1.
         11    1    3    3    0    0 -0.96221862354E+00  0.15834243607E+01  0.14242824142E+02  0.14362838758E+02  0.51100000000E-03 0. -1.
        -11    1    3    3    0    0 -0.91567684287E+01  0.10348970372E+02  0.22012315403E+02  0.25990183253E+02  0.51100000000E-03 0.  1.
         12    1    3    3    0    0 -0.28290842150E+01  0.24260171468E+01  0.44302004419E+01  0.57892963862E+01  0.00000000000E+00 0. -1.
</event>
<event>
 7    1  0.4452647E-009  0.4614232E+02  0.7816164E-02  0.1320468E+00
        -11   -1    0    0    0    0  0.00000000000E+00  0.00000000000E+00  0.45593999997E+02  0.45594000000E+02  0.51100000000E-03 0.  1.
         11   -1    0    0    0    0 -0.00000000000E+00 -0.00000000000E+00 -0.45593999997E+02  0.45594000000E+02  0.51100000000E-03 0. -1.
    9900012    2    1    2    0    0  0.17265270729E+02  0.40425735247E+02  0.98378786304E+01  0.46142317637E+02  0.99999988661E+01 0.  0.
        -12    1    1    2    0    0 -0.17265270729E+02 -0.40425735247E+02 -0.98378786304E+01  0.45045682363E+02  0.00000000000E+00 0.  1.
         11    1    3    3    0    0  0.12360629916E+02  0.31399243672E+02  0.88865117394E+01  0.34895096593E+02  0.51100000000E-03 0. -1.
        -11    1    3    3    0    0  0.28393470816E+01  0.12217072358E+01  0.70309842461E+00  0.31699855008E+01  0.51100000000E-03 0.  1.
         12    1    3    3    0    0  0.20652937315E+01  0.78047843391E+01  0.24826846638E+00  0.80772355425E+01  0.00000000000E+00 0. -1.
</event>
<event>
 7    1  0.4452647E-009  0.4614232E+02  0.7816164E-02  0.1320468E+00
        -11   -1    0    0    0    0  0.00000000000E+00  0.00000000000E+00  0.45593999997E+02  0.45594000000E+02  0.51100000000E-03 0. -1.
         11   -1    0    0    0    0 -0.00000000000E+00 -0.00000000000E+00 -0.45593999997E+02  0.45594000000E+02  0.51100000000E-03 0.  1.
    9900012    2    1    2    0    0  0.27969969939E+02  0.32661415852E+02  0.13417384140E+02  0.46142317621E+02  0.99999987209E+01 0.  0.
        -12    1    1    2    0    0 -0.27969969939E+02 -0.32661415852E+02 -0.13417384140E+02  0.45045682379E+02  0.00000000000E+00 0.  1.
         11    1    3    3    0    0  0.65198715336E+01  0.56263174568E+01  0.35448509014E+01  0.93129018632E+01  0.51100000000E-03 0. -1.
        -11    1    3    3    0    0  0.96454123044E+01  0.18371203399E+02  0.70699868023E+01  0.21920761996E+02  0.51100000000E-03 0.  1.
        -12    1    3    3    0    0  0.11804686101E+02  0.86638949958E+01  0.28025464365E+01  0.14908653761E+02  0.00000000000E+00 0.  1.
</event>
<event>
 7    1  0.4452647E-009  0.4614231E+02  0.7816164E-02  0.1320468E+00
        -11   -1    0    0    0    0  0.00000000000E+00  0.00000000000E+00  0.45593999997E+02  0.45594000000E+02  0.51100000000E-03 0. -1.
         11   -1    0    0    0    0 -0.00000000000E+00 -0.00000000000E+00 -0.45593999997E+02  0.45594000000E+02  0.51100000000E-03 0.  1.
    9900012    2    1    2    0    0  0.32963283686E+02 -0.12191731830E+01 -0.30676527417E+02  0.46142314424E+02  0.99999695720E+01 0.  0.
         12    1    1    2    0    0 -0.32963283686E+02  0.12191731830E+01  0.30676527417E+02  0.45045685576E+02  0.00000000000E+00 0. -1.
         11    1    3    3    0    0  0.30774251502E+01 -0.48161636580E-01 -0.64832743186E+01  0.71767479578E+01  0.51100000000E-03 0. -1.
        -11    1    3    3    0    0  0.78092318276E+01 -0.13958962943E+01 -0.33772745053E+01  0.86219842001E+01  0.51100000000E-03 0.  1.
        -12    1    3    3    0    0  0.22076626708E+02  0.22488474794E+00 -0.20815978593E+02  0.30343582266E+02  0.00000000000E+00 0.  1.
</event>
<event>
 7    1  0.4452647E-009  0.4614232E+02  0.7816164E-02  0.1320468E+00
        -11   -1    0    0    0    0  0.00000000000E+00  0.00000000000E+00  0.45593999997E+02  0.45594000000E+02  0.51100000000E-03 0. -1.
         11   -1    0    0    0    0 -0.00000000000E+00 -0.00000000000E+00 -0.45593999997E+02  0.45594000000E+02  0.51100000000E-03 0.  1.
    9900012    2    1    2    0    0  0.24210348737E+02 -0.12442433267E+02  0.35890921918E+02  0.46142318656E+02  0.10000008163E+02 0.  0.
        -12    1    1    2    0    0 -0.24210348737E+02  0.12442433267E+02 -0.35890921918E+02  0.45045681344E+02  0.00000000000E+00 0.  1.
         11    1    3    3    0    0  0.16499180521E+02 -0.11543188680E+02  0.27794537734E+02  0.34322070026E+02  0.51100000000E-03 0. -1.
        -11    1    3    3    0    0  0.53073896239E+01  0.10452540980E+01  0.60340090870E+01  0.81037156091E+01  0.51100000000E-03 0.  1.
         12    1    3    3    0    0  0.24037785925E+01 -0.19444986845E+01  0.20623750974E+01  0.37165330213E+01  0.00000000000E+00 0. -1.
</event>
<event>
 7    1  0.4452647E-009  0.4614232E+02  0.7816164E-02  0.1320468E+00
        -11   -1    0    0    0    0  0.00000000000E+00  0.00000000000E+00  0.45593999997E+02  0.45594000000E+02  0.51100000000E-03 0. -1.
         11   -1    0    0    0    0 -0.00000000000E+00 -0.00000000000E+00 -0.45593999997E+02  0.45594000000E+02  0.51100000000E-03 0.  1.
    9900012    2    1    2    0    0 -0.35682553827E+02 -0.69884154567E+01  0.26590054998E+02  0.46142316267E+02  0.99999863742E+01 0.  0.
        -12    1    1    2    0    0  0.35682553827E+02  0.69884154567E+01 -0.26590054998E+02  0.45045683733E+02  0.00000000000E+00 0.  1.
         11    1    3    3    0    0 -0.27536957293E+02 -0.57413295253E+01  0.22569064096E+02  0.36063964509E+02  0.51100000000E-03 0. -1.
        -11    1    3    3    0    0 -0.15635959518E+01  0.12362305882E+01  0.36826995359E-01  0.19936034852E+01  0.51100000000E-03 0.  1.
         12    1    3    3    0    0 -0.65820005816E+01 -0.24833165196E+01  0.39841639064E+01  0.80847482722E+01  0.00000000000E+00 0. -1.
</event>
<event>
 7    1  0.4452647E-009  0.4614232E+02  0.7816164E-02  0.1320468E+00
        -11   -1    0    0    0    0  0.00000000000E+00  0.00000000000E+00  0.45593999997E+02  0.45594000000E+02  0.51100000000E-03 0. -1.
         11   -1    0    0    0    0 -0.00000000000E+00 -0.00000000000E+00 -0.45593999997E+02  0.45594000000E+02  0.51100000000E-03 0.  1.
    9900012    2    1    2    0    0 -0.27409867909E+02 -0.18857918847E+02 -0.30367607422E+02  0.46142317159E+02  0.99999945130E+01 0.  0.
         12    1    1    2    0    0  0.27409867909E+02  0.18857918847E+02  0.30367607422E+02  0.45045682841E+02  0.00000000000E+00 0. -1.
         11    1    3    3    0    0 -0.59701972759E+01 -0.35760391839E+01 -0.59169115063E+01  0.91346129525E+01  0.51100000000E-03 0. -1.
        -11    1    3    3    0    0 -0.16566320830E+01 -0.48259509613E+01 -0.68353226901E+01  0.85297050991E+01  0.51100000000E-03 0.  1.
        -12    1    3    3    0    0 -0.19783038550E+02 -0.10455928702E+02 -0.17615373226E+02  0.28477999108E+02  0.00000000000E+00 0.  1.
</event>
<event>
 7    1  0.4452647E-009  0.4614232E+02  0.7816164E-02  0.1320468E+00
        -11   -1    0    0    0    0  0.00000000000E+00  0.00000000000E+00  0.45593999997E+02  0.45594000000E+02  0.51100000000E-03 0. -1.
         11   -1    0    0    0    0 -0.00000000000E+00 -0.00000000000E+00 -0.45593999997E+02  0.45594000000E+02  0.51100000000E-03 0.  1.
    9900012    2    1    2    0    0  0.30565799065E+02  0.30017979881E+02  0.13919994895E+02  0.46142318226E+02  0.10000004239E+02 0.  0.
        -12    1    1    2    0    0 -0.30565799065E+02 -0.30017979881E+02 -0.13919994895E+02  0.45045681774E+02  0.00000000000E+00 0.  1.
         11    1    3    3    0    0  0.14704709235E+02  0.12737533060E+02  0.10539205270E+02  0.22125733211E+02  0.51100000000E-03 0. -1.
        -11    1    3    3    0    0  0.24733542609E+01  0.10522770482E+01 -0.11530783434E+00  0.26903651135E+01  0.51100000000E-03 0.  1.
         12    1    3    3    0    0  0.13387735570E+02  0.16228169772E+02  0.34960974590E+01  0.21326219902E+02  0.00000000000E+00 0. -1.
</event>
<event>
 7    1  0.4452647E-009  0.4614232E+02  0.7816164E-02  0.1320468E+00
        -11   -1    0    0    0    0  0.00000000000E+00  0.00000000000E+00  0.45593999997E+02  0.45594000000E+02  0.51100000000E-03 0. -1.
         11   -1    0    0    0    0 -0.00000000000E+00 -0.00000000000E+00 -0.45593999997E+02  0.45594000000E+02  0.51100000000E-03 0.  1.
    9900012    2    1    2    0    0  0.39538995905E+01 -0.43032677227E+02  0.12714907206E+02  0.46142317670E+02  0.99999991687E+01 0.  0.
        -12    1    1    2    0    0 -0.39538995905E+01  0.43032677227E+02 -0.12714907206E+02  0.45045682330E+02  0.00000000000E+00 0.  1.
         11    1    3    3    0    0  0.42069747891E+01 -0.21279222706E+02  0.49738207961E+01  0.22254052426E+02  0.51100000000E-03 0. -1.
        -11    1    3    3    0    0 -0.20890438222E+01 -0.88189331458E+01  0.80941615261E+00  0.90990571319E+01  0.51100000000E-03 0.  1.
         12    1    3    3    0    0  0.18359686236E+01 -0.12934521376E+02  0.69316702568E+01  0.14789208112E+02  0.00000000000E+00 0. -1.
</event>
<event>
 7    1  0.4452647E-009  0.4614231E+02  0.7816164E-02  0.1320468E+00
        -11   -1    0    0    0    0  0.00000000000E+00  0.00000000000E+00  0.45593999997E+02  0.45594000000E+02  0.51100000000E-03 0. -1.
         11   -1    0    0    0    0 -0.00000000000E+00 -0.00000000000E+00 -0.45593999997E+02  0.45594000000E+02  0.51100000000E-03 0.  1.
    9900012    2    1    2    0    0 -0.43801084174E+02  0.90454904740E+01  0.53626421348E+01  0.46142314265E+02  0.99999681154E+01 0.  0.
         12    1    1    2    0    0  0.43801084174E+02 -0.90454904740E+01 -0.53626421348E+01  0.45045685735E+02  0.00000000000E+00 0. -1.
         11    1    3    3    0    0 -0.86981633042E+01  0.19861481542E+01 -0.17397181228E+00  0.89237377712E+01  0.51100000000E-03 0.  1.
        -11    1    3    3    0    0 -0.44565341107E+01  0.18596729216E+00 -0.20478885276E+01  0.49080676234E+01  0.51100000000E-03 0. -1.
        -12    1    3    3    0    0 -0.30646386759E+02  0.68733750277E+01  0.75845024746E+01  0.32310508870E+02  0.00000000000E+00 0.  1.
</event>
<event>
 7    1  0.4452647E-009  0.4614232E+02  0.7816164E-02  0.1320468E+00
        -11   -1    0    0    0    0  0.00000000000E+00  0.00000000000E+00  0.45593999997E+02  0.45594000000E+02  0.51100000000E-03 0. -1.
         11   -1    0    0    0    0 -0.00000000000E+00 -0.00000000000E+00 -0.45593999997E+02  0.45594000000E+02  0.51100000000E-03 0.  1.
    9900012    2    1    2    0    0  0.18125199984E+02  0.14842179299E+02 -0.38474671249E+02  0.46142317760E+02  0.99999999875E+01 0.  0.
         12    1    1    2    0    0 -0.18125199984E+02 -0.14842179299E+02  0.38474671249E+02  0.45045682240E+02  0.00000000000E+00 0. -1.
         11    1    3    3    0    0  0.63220825796E+01  0.21699096668E+01 -0.17582006447E+02  0.18809683332E+02  0.51100000000E-03 0. -1.
        -11    1    3    3    0    0  0.90101936951E+01  0.11209632875E+02 -0.16016009135E+02  0.21525612848E+02  0.51100000000E-03 0.  1.
        -12    1    3    3    0    0  0.27929237089E+01  0.14626367570E+01 -0.48766556668E+01  0.58070215790E+01  0.00000000000E+00 0.  1.
</event>
<event>
 7    1  0.4452647E-009  0.4614232E+02  0.7816164E-02  0.1320468E+00
        -11   -1    0    0    0    0  0.00000000000E+00  0.00000000000E+00  0.45593999997E+02  0.45594000000E+02  0.51100000000E-03 0. -1.
         11   -1    0    0    0    0 -0.00000000000E+00 -0.00000000000E+00 -0.45593999997E+02  0.45594000000E+02  0.51100000000E-03 0.  1.
    9900012    2    1    2    0    0 -0.96273959112E+01 -0.14221291465E+02  0.41643508174E+02  0.46142315900E+02  0.99999830299E+01 0.  0.
        -12    1    1    2    0    0  0.96273959112E+01  0.14221291465E+02 -0.41643508174E+02  0.45045684100E+02  0.00000000000E+00 0.  1.
         11    1    3    3    0    0 -0.55859771015E+00 -0.96422491440E+00  0.56649881718E+00  0.12500729012E+01  0.51100000000E-03 0.  1.
        -11    1    3    3    0    0 -0.38170435502E+01 -0.96469486751E+01  0.16403327532E+02  0.19408827749E+02  0.51100000000E-03 0. -1.
        -12    1    3    3    0    0 -0.52517546508E+01 -0.36101178750E+01  0.24673681826E+02  0.25483415250E+02  0.00000000000E+00 0.  1.
</event>
<event>
 7    1  0.4452647E-009  0.4614232E+02  0.7816164E-02  0.1320468E+00
        -11   -1    0    0    0    0  0.00000000000E+00  0.00000000000E+00  0.45593999997E+02  0.45594000000E+02  0.51100000000E-03 0. -1.
         11   -1    0    0    0    0 -0.00000000000E+00 -0.00000000000E+00 -0.45593999997E+02  0.45594000000E+02  0.51100000000E-03 0.  1.
    9900012    2    1    2    0    0  0.12078959231E+02  0.21190857431E+02 -0.37870303475E+02  0.46142316743E+02  0.99999907172E+01 0.  0.
         12    1    1    2    0    0 -0.12078959231E+02 -0.21190857431E+02  0.37870303475E+02  0.45045683257E+02  0.00000000000E+00 0. -1.
         11    1    3    3    0    0  0.43142406581E+01  0.39170432855E+01 -0.35260391977E+01  0.68109362970E+01  0.51100000000E-03 0. -1.
        -11    1    3    3    0    0  0.32377014822E+01  0.82249558576E+01 -0.13135149108E+02  0.15832395652E+02  0.51100000000E-03 0.  1.
         12    1    3    3    0    0  0.45270170906E+01  0.90488582881E+01 -0.21209115170E+02  0.23498984794E+02  0.00000000000E+00 0. -1.
</event>
<event>
 7    1  0.4452647E-009  0.4614232E+02  0.7816164E-02  0.1320468E+00
        -11   -1    0    0    0    0  0.00000000000E+00  0.00000000000E+00  0.45593999997E+02  0.45594000000E+02  0.51100000000E-03 0. -1.
         11   -1    0    0    0    0 -0.00000000000E+00 -0.00000000000E+00 -0.45593999997E+02  0.45594000000E+02  0.51100000000E-03 0.  1.
    9900012    2    1    2    0    0 -0.20180247935E+02 -0.15673198720E+02 -0.37097465219E+02  0.46142317737E+02  0.99999997802E+01 0.  0.
         12    1    1    2    0    0  0.20180247935E+02  0.15673198720E+02  0.37097465219E+02  0.45045682263E+02  0.00000000000E+00 0. -1.
         11    1    3    3    0    0 -0.47691364168E+01 -0.58016538353E+00 -0.54980909223E+01  0.73013874083E+01  0.51100000000E-03 0. -1.
        -11    1    3    3    0    0 -0.66873593089E+01 -0.38990172852E+01 -0.15858421948E+02  0.17646888033E+02  0.51100000000E-03 0.  1.
        -12    1    3    3    0    0 -0.87237522089E+01 -0.11194016051E+02 -0.15740952349E+02  0.21194042296E+02  0.00000000000E+00 0.  1.
</event>
<event>
 7    1  0.4452647E-009  0.4614232E+02  0.7816164E-02  0.1320468E+00
        -11   -1    0    0    0    0  0.00000000000E+00  0.00000000000E+00  0.45593999997E+02  0.45594000000E+02  0.51100000000E-03 0. -1.
         11   -1    0    0    0    0 -0.00000000000E+00 -0.00000000000E+00 -0.45593999997E+02  0.45594000000E+02  0.51100000000E-03 0.  1.
    9900012    2    1    2    0    0  0.72719075569E+00 -0.24820582961E+02 -0.37583551165E+02  0.46142318042E+02  0.10000002558E+02 0.  0.
         12    1    1    2    0    0 -0.72719075569E+00  0.24820582961E+02  0.37583551165E+02  0.45045681958E+02  0.00000000000E+00 0. -1.
         11    1    3    3    0    0  0.50289947802E+01 -0.13325081397E+02 -0.22857144745E+02  0.26931350670E+02  0.51100000000E-03 0. -1.
        -11    1    3    3    0    0 -0.25584542231E+01 -0.82879103614E+01 -0.10747433772E+02  0.13810955040E+02  0.51100000000E-03 0.  1.
         12    1    3    3    0    0 -0.17433498014E+01 -0.32075912026E+01 -0.39789726483E+01  0.54000123323E+01  0.00000000000E+00 0. -1.
</event>
<event>
 7    1  0.4452647E-009  0.4614232E+02  0.7816164E-02  0.1320468E+00
        -11   -1    0    0    0    0  0.00000000000E+00  0.00000000000E+00  0.45593999997E+02  0.45594000000E+02  0.51100000000E-03 0. -1.
         11   -1    0    0    0    0 -0.00000000000E+00 -0.00000000000E+00 -0.45593999997E+02  0.45594000000E+02  0.51100000000E-03 0.  1.
    9900012    2    1    2    0    0 -0.33272004868E+02 -0.28483092499E+02 -0.10526179669E+02  0.46142319579E+02  0.10000016573E+02 0.  0.
         12    1    1    2    0    0  0.33272004868E+02  0.28483092499E+02  0.10526179669E+02  0.45045680421E+02  0.00000000000E+00 0. -1.
         11    1    3    3    0    0 -0.35862683701E+01 -0.18025791217E+01 -0.25538690302E-01  0.40138840040E+01  0.51100000000E-03 0. -1.
        -11    1    3    3    0    0 -0.26518532489E+02 -0.26354640738E+02 -0.10838842000E+02  0.38926599517E+02  0.51100000000E-03 0.  1.
        -12    1    3    3    0    0 -0.31672040082E+01 -0.32587263947E+00  0.33820102166E+00  0.32018360573E+01  0.00000000000E+00 0.  1.
</event>
<event>
 7    1  0.4452647E-009  0.4614232E+02  0.7816164E-02  0.1320468E+00
        -11   -1    0    0    0    0  0.00000000000E+00  0.00000000000E+00  0.45593999997E+02  0.45594000000E+02  0.51100000000E-03 0. -1.
         11   -1    0    0    0    0 -0.00000000000E+00 -0.00000000000E+00 -0.45593999997E+02  0.45594000000E+02  0.51100000000E-03 0.  1.
    9900012    2    1    2    0    0 -0.19754905365E+02 -0.23214962148E+01  0.40416182934E+02  0.46142317925E+02  0.10000001497E+02 0.  0.
        -12    1    1    2    0    0  0.19754905365E+02  0.23214962148E+01 -0.40416182934E+02  0.45045682075E+02  0.00000000000E+00 0.  1.
         11    1    3    3    0    0 -0.32954687130E+01 -0.33104690461E+01  0.96256811314E+01  0.10699208235E+02  0.51100000000E-03 0. -1.
        -11    1    3    3    0    0 -0.16548129165E+02  0.11857926206E+01  0.30988512362E+02  0.35150171859E+02  0.51100000000E-03 0.  1.
        -12    1    3    3    0    0  0.88692513341E-01 -0.19681978932E+00 -0.19801056011E+00  0.29293783181E+00  0.00000000000E+00 0.  1.
</event>
<event>
 7    1  0.4452647E-009  0.4614232E+02  0.7816164E-02  0.1320468E+00
        -11   -1    0    0    0    0  0.00000000000E+00  0.00000000000E+00  0.45593999997E+02  0.45594000000E+02  0.51100000000E-03 0. -1.
         11   -1    0    0    0    0 -0.00000000000E+00 -0.00000000000E+00 -0.45593999997E+02  0.45594000000E+02  0.51100000000E-03 0.  1.
    9900012    2    1    2    0    0 -0.13040988940E+02 -0.12231369795E+02  0.41345370993E+02  0.46142317609E+02  0.99999986117E+01 0.  0.
        -12    1    1    2    0    0  0.13040988940E+02  0.12231369795E+02 -0.41345370993E+02  0.45045682391E+02  0.00000000000E+00 0.  1.
         11    1    3    3    0    0 -0.67093822544E+01 -0.70274881885E+01  0.12965104097E+02  0.16201707471E+02  0.51100000000E-03 0. -1.
        -11    1    3    3    0    0  0.37246468064E-01 -0.25283741005E+01  0.96927533433E+01  0.10017161800E+02  0.51100000000E-03 0.  1.
         12    1    3    3    0    0 -0.63688531534E+01 -0.26755075056E+01  0.18687513552E+02  0.19923448338E+02  0.00000000000E+00 0. -1.
</event>
<event>
 7    1  0.4452647E-009  0.4614232E+02  0.7816164E-02  0.1320468E+00
        -11   -1    0    0    0    0  0.00000000000E+00  0.00000000000E+00  0.45593999997E+02  0.45594000000E+02  0.51100000000E-03 0. -1.
         11   -1    0    0    0    0 -0.00000000000E+00 -0.00000000000E+00 -0.45593999997E+02  0.45594000000E+02  0.51100000000E-03 0.  1.
    9900012    2    1    2    0    0  0.24659871764E+02 -0.28164058281E+02 -0.25055737837E+02  0.46142318156E+02  0.10000003599E+02 0.  0.
         12    1    1    2    0    0 -0.24659871764E+02  0.28164058281E+02  0.25055737837E+02  0.45045681844E+02  0.00000000000E+00 0. -1.
         11    1    3    3    0    0  0.11537489406E+02 -0.69263221078E+01 -0.81050610422E+01  0.15709220684E+02  0.51100000000E-03 0. -1.
        -11    1    3    3    0    0  0.96671118096E+01 -0.14379461154E+02 -0.13722425831E+02  0.22102645198E+02  0.51100000000E-03 0.  1.
        -12    1    3    3    0    0  0.34552705480E+01 -0.68582750189E+01 -0.32282509642E+01  0.83304522735E+01  0.00000000000E+00 0.  1.
</event>
<event>
 7    1  0.4452647E-009  0.4614232E+02  0.7816164E-02  0.1320468E+00
        -11   -1    0    0    0    0  0.00000000000E+00  0.00000000000E+00  0.45593999997E+02  0.45594000000E+02  0.51100000000E-03 0. -1.
         11   -1    0    0    0    0 -0.00000000000E+00 -0.00000000000E+00 -0.45593999997E+02  0.45594000000E+02  0.51100000000E-03 0.  1.
    9900012    2    1    2    0    0 -0.26646470262E+02 -0.20584441053E+02 -0.29922565435E+02  0.46142317486E+02  0.99999974931E+01 0.  0.
         12    1    1    2    0    0  0.26646470262E+02  0.20584441053E+02  0.29922565435E+02  0.45045682514E+02  0.00000000000E+00 0. -1.
         11    1    3    3    0    0 -0.15371090215E+01 -0.27334647791E+00 -0.34501192984E+00  0.15988920957E+01  0.51100000000E-03 0. -1.
        -11    1    3    3    0    0 -0.17588298137E+02 -0.98454557843E+01 -0.20710132433E+02  0.28899668106E+02  0.51100000000E-03 0.  1.
        -12    1    3    3    0    0 -0.75210631041E+01 -0.10465638791E+02 -0.88674210721E+01  0.15643757285E+02  0.00000000000E+00 0.  1.
</event>
<event>
 7    1  0.4452647E-009  0.4614232E+02  0.7816164E-02  0.1320468E+00
        -11   -1    0    0    0    0  0.00000000000E+00  0.00000000000E+00  0.45593999997E+02  0.45594000000E+02  0.51100000000E-03 0. -1.
         11   -1    0    0    0    0 -0.00000000000E+00 -0.00000000000E+00 -0.45593999997E+02  0.45594000000E+02  0.51100000000E-03 0.  1.
    9900012    2    1    2    0    0  0.98490604577E+01 -0.11992209438E+02  0.42288254345E+02  0.46142317247E+02  0.99999953160E+01 0.  0.
        -12    1    1    2    0    0 -0.98490604577E+01  0.11992209438E+02 -0.42288254345E+02  0.45045682753E+02  0.00000000000E+00 0.  1.
         11    1    3    3    0    0  0.13617609409E+01  0.10906193214E+01  0.16859217625E+01  0.24261442280E+01  0.51100000000E-03 0. -1.
        -11    1    3    3    0    0  0.47944405205E+01 -0.56228802108E+01  0.13838964357E+02  0.15688224135E+02  0.51100000000E-03 0.  1.
         12    1    3    3    0    0  0.36928589962E+01 -0.74599485487E+01  0.26763368225E+02  0.28027948884E+02  0.00000000000E+00 0. -1.
</event>
<event>
 7    1  0.4613590E-009  0.4614232E+02  0.7816164E-02  0.1320468E+00
        -11   -1    0    0    0    0  0.00000000000E+00  0.00000000000E+00  0.45593999997E+02  0.45594000000E+02  0.51100000000E-03 0. -1.
         11   -1    0    0    0    0 -0.00000000000E+00 -0.00000000000E+00 -0.45593999997E+02  0.45594000000E+02  0.51100000000E-03 0.  1.
    9900012    2    1    2    0    0 -0.34652588111E+01 -0.19679493667E+02  0.40371061099E+02  0.46142322473E+02  0.10000042971E+02 0.  0.
        -12    1    1    2    0    0  0.34652588111E+01  0.19679493667E+02 -0.40371061099E+02  0.45045677527E+02  0.00000000000E+00 0.  1.
         11    1    3    3    0    0  0.58967197617E+00  0.47356611859E+00  0.51438120966E+00  0.91463992813E+00  0.51100000000E-03 0. -1.
        -11    1    3    3    0    0  0.12707195731E+01 -0.53509039265E+01  0.12776436261E+02  0.13909860706E+02  0.51100000000E-03 0.  1.
         12    1    3    3    0    0 -0.53256503604E+01 -0.14802155859E+02  0.27080243628E+02  0.31317821840E+02  0.00000000000E+00 0. -1.
</event>
<event>
 7    1  0.4452647E-009  0.4614232E+02  0.7816164E-02  0.1320468E+00
        -11   -1    0    0    0    0  0.00000000000E+00  0.00000000000E+00  0.45593999997E+02  0.45594000000E+02  0.51100000000E-03 0. -1.
         11   -1    0    0    0    0 -0.00000000000E+00 -0.00000000000E+00 -0.45593999997E+02  0.45594000000E+02  0.51100000000E-03 0.  1.
    9900012    2    1    2    0    0 -0.57646054152E+01 -0.25193947720E+01 -0.44604209434E+02  0.46142317356E+02  0.99999963073E+01 0.  0.
         12    1    1    2    0    0  0.57646054152E+01  0.25193947720E+01  0.44604209434E+02  0.45045682644E+02  0.00000000000E+00 0. -1.
         11    1    3    3    0    0 -0.29963558625E+00 -0.37946180056E+01 -0.83479615390E+01  0.91748225820E+01  0.51100000000E-03 0. -1.
        -11    1    3    3    0    0 -0.46371260026E+01  0.26643005146E+01 -0.31314698592E+02  0.31768093789E+02  0.51100000000E-03 0.  1.
        -12    1    3    3    0    0 -0.82784382629E+00 -0.13890772809E+01 -0.49415493029E+01  0.51994009853E+01  0.00000000000E+00 0.  1.
</event>
<event>
 7    1  0.4452647E-009  0.4614232E+02  0.7816164E-02  0.1320468E+00
        -11   -1    0    0    0    0  0.00000000000E+00  0.00000000000E+00  0.45593999997E+02  0.45594000000E+02  0.51100000000E-03 0.  1.
         11   -1    0    0    0    0 -0.00000000000E+00 -0.00000000000E+00 -0.45593999997E+02  0.45594000000E+02  0.51100000000E-03 0. -1.
    9900012    2    1    2    0    0  0.29947931007E+02 -0.22711032495E+02  0.24828288222E+02  0.46142318025E+02  0.10000002402E+02 0.  0.
        -12    1    1    2    0    0 -0.29947931007E+02  0.22711032495E+02 -0.24828288222E+02  0.45045681975E+02  0.00000000000E+00 0.  1.
         11    1    3    3    0    0  0.25927830600E+02 -0.15496726279E+02  0.18553243552E+02  0.35448889567E+02  0.51100000000E-03 0. -1.
        -11    1    3    3    0    0  0.40880650245E+01 -0.73636485385E+01  0.58976837423E+01  0.10281938982E+02  0.51100000000E-03 0.  1.
         12    1    3    3    0    0 -0.67964618175E-01  0.14934232186E+00  0.37736092766E+00  0.41148947514E+00  0.00000000000E+00 0. -1.
</event>
<event>
 7    1  0.4452647E-009  0.4614232E+02  0.7816164E-02  0.1320468E+00
        -11   -1    0    0    0    0  0.00000000000E+00  0.00000000000E+00  0.45593999997E+02  0.45594000000E+02  0.51100000000E-03 0. -1.
         11   -1    0    0    0    0 -0.00000000000E+00 -0.00000000000E+00 -0.45593999997E+02  0.45594000000E+02  0.51100000000E-03 0.  1.
    9900012    2    1    2    0    0 -0.30974329298E+02 -0.14142811728E+02 -0.29490426352E+02  0.46142318237E+02  0.10000004339E+02 0.  0.
         12    1    1    2    0    0  0.30974329298E+02  0.14142811728E+02  0.29490426352E+02  0.45045681763E+02  0.00000000000E+00 0. -1.
         11    1    3    3    0    0 -0.49048922533E+01 -0.64024099075E+01 -0.53909690350E+01  0.97011013827E+01  0.51100000000E-03 0. -1.
        -11    1    3    3    0    0 -0.18640308398E+02 -0.49412689515E+01 -0.18526209204E+02  0.26741310060E+02  0.51100000000E-03 0.  1.
         12    1    3    3    0    0 -0.74291286469E+01 -0.27991328691E+01 -0.55732481138E+01  0.96999067938E+01  0.00000000000E+00 0. -1.
</event>
<event>
 7    1  0.4452647E-009  0.4614232E+02  0.7816164E-02  0.1320468E+00
        -11   -1    0    0    0    0  0.00000000000E+00  0.00000000000E+00  0.45593999997E+02  0.45594000000E+02  0.51100000000E-03 0. -1.
         11   -1    0    0    0    0 -0.00000000000E+00 -0.00000000000E+00 -0.45593999997E+02  0.45594000000E+02  0.51100000000E-03 0.  1.
    9900012    2    1    2    0    0  0.41945730028E+01 -0.17519954355E+02 -0.41286433897E+02  0.46142324656E+02  0.10000062873E+02 0.  0.
         12    1    1    2    0    0 -0.41945730028E+01  0.17519954355E+02  0.41286433897E+02  0.45045675344E+02  0.00000000000E+00 0. -1.
         11    1    3    3    0    0  0.50247252490E+01 -0.10276793362E+02 -0.24534023093E+02  0.27069884282E+02  0.51100000000E-03 0. -1.
        -11    1    3    3    0    0  0.12371630380E+00 -0.67883793259E+01 -0.16685050855E+02  0.18013559390E+02  0.51100000000E-03 0.  1.
         12    1    3    3    0    0 -0.95386854998E+00 -0.45478166784E+00 -0.67359948258E-01  0.10588809842E+01  0.00000000000E+00 0. -1.
</event>
<event>
 7    1  0.4452647E-009  0.4614232E+02  0.7816164E-02  0.1320468E+00
        -11   -1    0    0    0    0  0.00000000000E+00  0.00000000000E+00  0.45593999997E+02  0.45594000000E+02  0.51100000000E-03 0. -1.
         11   -1    0    0    0    0 -0.00000000000E+00 -0.00000000000E+00 -0.45593999997E+02  0.45594000000E+02  0.51100000000E-03 0.  1.
    9900012    2    1    2    0    0  0.87921817305E+01 -0.42699726024E+02  0.11337746672E+02  0.46142316947E+02  0.99999925773E+01 0.  0.
        -12    1    1    2    0    0 -0.87921817305E+01  0.42699726024E+02 -0.11337746672E+02  0.45045683053E+02  0.00000000000E+00 0.  1.
         11    1    3    3    0    0 -0.14357480145E+01 -0.65451395390E+01  0.26313024062E+01  0.71988871751E+01  0.51100000000E-03 0. -1.
        -11    1    3    3    0    0  0.84743645788E+01 -0.23039579588E+02  0.38505612435E+01  0.24848820993E+02  0.51100000000E-03 0.  1.
        -12    1    3    3    0    0  0.17535651661E+01 -0.13115006897E+02  0.48558830220E+01  0.14094608779E+02  0.00000000000E+00 0.  1.
</event>
<event>
 7    1  0.4452647E-009  0.4614232E+02  0.7816164E-02  0.1320468E+00
        -11   -1    0    0    0    0  0.00000000000E+00  0.00000000000E+00  0.45593999997E+02  0.45594000000E+02  0.51100000000E-03 0.  1.
         11   -1    0    0    0    0 -0.00000000000E+00 -0.00000000000E+00 -0.45593999997E+02  0.45594000000E+02  0.51100000000E-03 0. -1.
    9900012    2    1    2    0    0 -0.14642573964E+02  0.41956885472E+02  0.73707728583E+01  0.46142317595E+02  0.99999984817E+01 0.  0.
         12    1    1    2    0    0  0.14642573964E+02 -0.41956885472E+02 -0.73707728583E+01  0.45045682405E+02  0.00000000000E+00 0. -1.
         11    1    3    3    0    0 -0.46542774248E+01  0.87339089691E+01 -0.17802463797E+01  0.10055483164E+02  0.51100000000E-03 0. -1.
        -11    1    3    3    0    0 -0.12801519726E+01  0.10381257559E+02  0.29206626718E+01  0.10859998539E+02  0.51100000000E-03 0.  1.
        -12    1    3    3    0    0 -0.87081445665E+01  0.22841718945E+02  0.62303565662E+01  0.25226835891E+02  0.00000000000E+00 0.  1.
</event>
<event>
 7    1  0.4452647E-009  0.4614232E+02  0.7816164E-02  0.1320468E+00
        -11   -1    0    0    0    0  0.00000000000E+00  0.00000000000E+00  0.45593999997E+02  0.45594000000E+02  0.51100000000E-03 0. -1.
         11   -1    0    0    0    0 -0.00000000000E+00 -0.00000000000E+00 -0.45593999997E+02  0.45594000000E+02  0.51100000000E-03 0.  1.
    9900012    2    1    2    0    0  0.87222205804E+01 -0.42505392651E+02  0.12096613018E+02  0.46142316714E+02  0.99999904480E+01 0.  0.
        -12    1    1    2    0    0 -0.87222205804E+01  0.42505392651E+02 -0.12096613018E+02  0.45045683286E+02  0.00000000000E+00 0.  1.
         11    1    3    3    0    0 -0.71693380491E+00 -0.18955267294E+02  0.40815869384E+01  0.19402976691E+02  0.51100000000E-03 0. -1.
        -11    1    3    3    0    0  0.12264837552E+01 -0.17626530821E+01  0.11037235467E+00  0.21502071081E+01  0.51100000000E-03 0.  1.
         12    1    3    3    0    0  0.82126706301E+01 -0.21787472274E+02  0.79046537244E+01  0.24589132914E+02  0.00000000000E+00 0. -1.
</event>
<event>
 7    1  0.4452647E-009  0.4614232E+02  0.7816164E-02  0.1320468E+00
        -11   -1    0    0    0    0  0.00000000000E+00  0.00000000000E+00  0.45593999997E+02  0.45594000000E+02  0.51100000000E-03 0. -1.
         11   -1    0    0    0    0 -0.00000000000E+00 -0.00000000000E+00 -0.45593999997E+02  0.45594000000E+02  0.51100000000E-03 0.  1.
    9900012    2    1    2    0    0  0.66608532792E+01  0.42039965185E+02  0.14744078985E+02  0.46142317585E+02  0.99999983925E+01 0.  0.
        -12    1    1    2    0    0 -0.66608532792E+01 -0.42039965185E+02 -0.14744078985E+02  0.45045682415E+02  0.00000000000E+00 0.  1.
         11    1    3    3    0    0  0.74122449821E+01  0.27358435228E+02  0.13424208207E+02  0.31362951392E+02  0.51100000000E-03 0. -1.
        -11    1    3    3    0    0 -0.39699519965E+00  0.11489304913E+02  0.12808219567E+01  0.11567291719E+02  0.51100000000E-03 0.  1.
         12    1    3    3    0    0 -0.35439650320E+00  0.31922250442E+01  0.39048821576E-01  0.32120744737E+01  0.00000000000E+00 0. -1.
</event>
<event>
 7    1  0.4452647E-009  0.4614232E+02  0.7816164E-02  0.1320468E+00
        -11   -1    0    0    0    0  0.00000000000E+00  0.00000000000E+00  0.45593999997E+02  0.45594000000E+02  0.51100000000E-03 0. -1.
         11   -1    0    0    0    0 -0.00000000000E+00 -0.00000000000E+00 -0.45593999997E+02  0.45594000000E+02  0.51100000000E-03 0.  1.
    9900012    2    1    2    0    0 -0.58443259951E+01 -0.14140521689E+02  0.42367475741E+02  0.46142317625E+02  0.99999987618E+01 0.  0.
        -12    1    1    2    0    0  0.58443259951E+01  0.14140521689E+02 -0.42367475741E+02  0.45045682375E+02  0.00000000000E+00 0.  1.
         11    1    3    3    0    0 -0.58067560086E+01 -0.51636124190E+01  0.14090739576E+02  0.16091309786E+02  0.51100000000E-03 0. -1.
        -11    1    3    3    0    0  0.89259464675E-01 -0.17821445938E+01  0.15214917983E+01  0.23449827630E+01  0.51100000000E-03 0.  1.
         12    1    3    3    0    0 -0.12682945118E+00 -0.71947646759E+01  0.26755244366E+02  0.27706025077E+02  0.00000000000E+00 0. -1.
</event>
<event>
 7    1  0.4452647E-009  0.4614232E+02  0.7816164E-02  0.1320468E+00
        -11   -1    0    0    0    0  0.00000000000E+00  0.00000000000E+00  0.45593999997E+02  0.45594000000E+02  0.51100000000E-03 0. -1.
         11   -1    0    0    0    0 -0.00000000000E+00 -0.00000000000E+00 -0.45593999997E+02  0.45594000000E+02  0.51100000000E-03 0.  1.
    9900012    2    1    2    0    0  0.82913925591E+01  0.26754968808E+02  0.35278009851E+02  0.46142317349E+02  0.99999962417E+01 0.  0.
        -12    1    1    2    0    0 -0.82913925591E+01 -0.26754968808E+02 -0.35278009851E+02  0.45045682651E+02  0.00000000000E+00 0.  1.
         11    1    3    3    0    0  0.77351967892E+00  0.13692435282E+01  0.68231226772E+01  0.70020114155E+01  0.51100000000E-03 0. -1.
        -11    1    3    3    0    0  0.52555614268E+01  0.22683456091E+02  0.23727934386E+02  0.33244172070E+02  0.51100000000E-03 0.  1.
         12    1    3    3    0    0  0.22623114533E+01  0.27022691886E+01  0.47269527877E+01  0.58961338635E+01  0.00000000000E+00 0. -1.
</event>
<event>
 7    1  0.4452647E-009  0.4614232E+02  0.7816164E-02  0.1320468E+00
        -11   -1    0    0    0    0  0.00000000000E+00  0.00000000000E+00  0.45593999997E+02  0.45594000000E+02  0.51100000000E-03 0. -1.
         11   -1    0    0    0    0 -0.00000000000E+00 -0.00000000000E+00 -0.45593999997E+02  0.45594000000E+02  0.51100000000E-03 0.  1.
    9900012    2    1    2    0    0 -0.40641838050E+01 -0.11493167434E+02 -0.43364766733E+02  0.46142317837E+02  0.10000000696E+02 0.  0.
         12    1    1    2    0    0  0.40641838050E+01  0.11493167434E+02  0.43364766733E+02  0.45045682163E+02  0.00000000000E+00 0. -1.
         11    1    3    3    0    0 -0.16561077120E+01  0.90501048775E+00 -0.36844276253E+01  0.41396550489E+01  0.51100000000E-03 0. -1.
        -11    1    3    3    0    0 -0.28283258539E+01 -0.10704068204E+02 -0.26684317920E+02  0.28889951997E+02  0.51100000000E-03 0.  1.
        -12    1    3    3    0    0  0.42024976091E+00 -0.16941097181E+01 -0.12996021187E+02  0.13112710792E+02  0.00000000000E+00 0.  1.
</event>
<event>
 7    1  0.4452647E-009  0.4614232E+02  0.7816164E-02  0.1320468E+00
        -11   -1    0    0    0    0  0.00000000000E+00  0.00000000000E+00  0.45593999997E+02  0.45594000000E+02  0.51100000000E-03 0. -1.
         11   -1    0    0    0    0 -0.00000000000E+00 -0.00000000000E+00 -0.45593999997E+02  0.45594000000E+02  0.51100000000E-03 0.  1.
    9900012    2    1    2    0    0 -0.24906428147E+02 -0.25853638416E+01  0.37444613600E+02  0.46142319220E+02  0.10000013307E+02 0.  0.
        -12    1    1    2    0    0  0.24906428147E+02  0.25853638416E+01 -0.37444613600E+02  0.45045680780E+02  0.00000000000E+00 0.  1.
         11    1    3    3    0    0 -0.48133634241E+01  0.32162480521E+01  0.80213340394E+01  0.98921443084E+01  0.51100000000E-03 0. -1.
        -11    1    3    3    0    0 -0.47687417722E+00 -0.67723384077E+00  0.18347099030E+01  0.20130115114E+01  0.51100000000E-03 0.  1.
         12    1    3    3    0    0 -0.19616190546E+02 -0.51243780529E+01  0.27588569658E+02  0.34237163401E+02  0.00000000000E+00 0. -1.
</event>
<event>
 7    1  0.4452647E-009  0.4614232E+02  0.7816164E-02  0.1320468E+00
        -11   -1    0    0    0    0  0.00000000000E+00  0.00000000000E+00  0.45593999997E+02  0.45594000000E+02  0.51100000000E-03 0. -1.
         11   -1    0    0    0    0 -0.00000000000E+00 -0.00000000000E+00 -0.45593999997E+02  0.45594000000E+02  0.51100000000E-03 0.  1.
    9900012    2    1    2    0    0  0.18686060305E+02 -0.33082459549E+02  0.24197012801E+02  0.46142318653E+02  0.10000008133E+02 0.  0.
        -12    1    1    2    0    0 -0.18686060305E+02  0.33082459549E+02 -0.24197012801E+02  0.45045681347E+02  0.00000000000E+00 0.  1.
         11    1    3    3    0    0  0.25236611446E+01 -0.80337100217E+01  0.42180513341E+01  0.94181377992E+01  0.51100000000E-03 0. -1.
        -11    1    3    3    0    0  0.17810663914E+01 -0.70471993480E-01  0.25892816684E+00  0.18011684678E+01  0.51100000000E-03 0.  1.
         12    1    3    3    0    0  0.14381332769E+02 -0.24978277534E+02  0.19720033300E+02  0.34923012386E+02  0.00000000000E+00 0. -1.
</event>
<event>
 7    1  0.4452647E-009  0.4614232E+02  0.7816164E-02  0.1320468E+00
        -11   -1    0    0    0    0  0.00000000000E+00  0.00000000000E+00  0.45593999997E+02  0.45594000000E+02  0.51100000000E-03 0. -1.
         11   -1    0    0    0    0 -0.00000000000E+00 -0.00000000000E+00 -0.45593999997E+02  0.45594000000E+02  0.51100000000E-03 0.  1.
    9900012    2    1    2    0    0  0.10060076215E+01  0.17445424744E+02 -0.41518172038E+02  0.46142317574E+02  0.99999982921E+01 0.  0.
         12    1    1    2    0    0 -0.10060076215E+01 -0.17445424744E+02  0.41518172038E+02  0.45045682426E+02  0.00000000000E+00 0. -1.
         11    1    3    3    0    0 -0.32829995925E+00  0.25707714646E+01 -0.14277836645E+01  0.29589209588E+01  0.51100000000E-03 0. -1.
        -11    1    3    3    0    0 -0.11757062254E+01  0.11209776155E+02 -0.32371563439E+02  0.34277682044E+02  0.51100000000E-03 0.  1.
         12    1    3    3    0    0  0.25100138061E+01  0.36648771238E+01 -0.77188249348E+01  0.89057145706E+01  0.00000000000E+00 0. -1.
</event>
<event>
 7    1  0.4452647E-009  0.4614232E+02  0.7816164E-02  0.1320468E+00
        -11   -1    0    0    0    0  0.00000000000E+00  0.00000000000E+00  0.45593999997E+02  0.45594000000E+02  0.51100000000E-03 0. -1.
         11   -1    0    0    0    0 -0.00000000000E+00 -0.00000000000E+00 -0.45593999997E+02  0.45594000000E+02  0.51100000000E-03 0.  1.
    9900012    2    1    2    0    0  0.14836288302E+02  0.26131816461E+02  0.33557796763E+02  0.46142323119E+02  0.10000048856E+02 0.  0.
        -12    1    1    2    0    0 -0.14836288302E+02 -0.26131816461E+02 -0.33557796763E+02  0.45045676881E+02  0.00000000000E+00 0.  1.
         11    1    3    3    0    0 -0.67681024577E+00  0.11651350165E+01  0.15149661149E+01  0.20274945884E+01  0.51100000000E-03 0.  1.
        -11    1    3    3    0    0  0.59034021338E+01  0.16168095311E+02  0.16641681955E+02  0.23941659118E+02  0.51100000000E-03 0. -1.
        -12    1    3    3    0    0  0.96096964135E+01  0.87985861329E+01  0.15401148693E+02  0.20173169413E+02  0.00000000000E+00 0.  1.
</event>
<event>
 7    1  0.4452647E-009  0.4614232E+02  0.7816164E-02  0.1320468E+00
        -11   -1    0    0    0    0  0.00000000000E+00  0.00000000000E+00  0.45593999997E+02  0.45594000000E+02  0.51100000000E-03 0. -1.
         11   -1    0    0    0    0 -0.00000000000E+00 -0.00000000000E+00 -0.45593999997E+02  0.45594000000E+02  0.51100000000E-03 0.  1.
    9900012    2    1    2    0    0 -0.40484038745E+02  0.12395736852E+02 -0.15378616973E+02  0.46142317131E+02  0.99999942498E+01 0.  0.
         12    1    1    2    0    0  0.40484038745E+02 -0.12395736852E+02  0.15378616973E+02  0.45045682869E+02  0.00000000000E+00 0. -1.
         11    1    3    3    0    0 -0.16751210664E+01 -0.11213774663E+01 -0.31962809356E+00  0.20409998502E+01  0.51100000000E-03 0. -1.
        -11    1    3    3    0    0 -0.13819337612E+02  0.27464303208E+01 -0.33817973726E+01  0.14489773127E+02  0.51100000000E-03 0.  1.
         12    1    3    3    0    0 -0.24989580066E+02  0.10770683998E+02 -0.11677191507E+02  0.29611544153E+02  0.00000000000E+00 0. -1.
</event>
<event>
 7    1  0.4452647E-009  0.4614232E+02  0.7816164E-02  0.1320468E+00
        -11   -1    0    0    0    0  0.00000000000E+00  0.00000000000E+00  0.45593999997E+02  0.45594000000E+02  0.51100000000E-03 0. -1.
         11   -1    0    0    0    0 -0.00000000000E+00 -0.00000000000E+00 -0.45593999997E+02  0.45594000000E+02  0.51100000000E-03 0.  1.
    9900012    2    1    2    0    0  0.14458086526E+02 -0.18179563215E+02 -0.38595086323E+02  0.46142317932E+02  0.10000001562E+02 0.  0.
         12    1    1    2    0    0 -0.14458086526E+02  0.18179563215E+02  0.38595086323E+02  0.45045682068E+02  0.00000000000E+00 0. -1.
         11    1    3    3    0    0  0.74767144031E+01 -0.98299159060E+01 -0.12810752670E+02  0.17794490418E+02  0.51100000000E-03 0. -1.
        -11    1    3    3    0    0  0.54399556183E+01 -0.44596602546E+01 -0.11667710835E+02  0.13624138986E+02  0.51100000000E-03 0.  1.
         12    1    3    3    0    0  0.15414165049E+01 -0.38899870539E+01 -0.14116622818E+02  0.14723688529E+02  0.00000000000E+00 0. -1.
</event>
<event>
 7    1  0.4452647E-009  0.4614232E+02  0.7816164E-02  0.1320468E+00
        -11   -1    0    0    0    0  0.00000000000E+00  0.00000000000E+00  0.45593999997E+02  0.45594000000E+02  0.51100000000E-03 0. -1.
         11   -1    0    0    0    0 -0.00000000000E+00 -0.00000000000E+00 -0.45593999997E+02  0.45594000000E+02  0.51100000000E-03 0.  1.
    9900012    2    1    2    0    0 -0.14441811934E+02  0.35949726098E+02 -0.22981836882E+02  0.46142316911E+02  0.99999922475E+01 0.  0.
         12    1    1    2    0    0  0.14441811934E+02 -0.35949726098E+02  0.22981836882E+02  0.45045683089E+02  0.00000000000E+00 0. -1.
         11    1    3    3    0    0 -0.76525186504E+00  0.37491868462E+01 -0.50300238863E+01  0.63200595711E+01  0.51100000000E-03 0. -1.
        -11    1    3    3    0    0 -0.78212155768E+01  0.16992458835E+02 -0.13037248211E+02  0.22800984881E+02  0.51100000000E-03 0.  1.
         12    1    3    3    0    0 -0.58553444926E+01  0.15208080417E+02 -0.49145647842E+01  0.17021272459E+02  0.00000000000E+00 0. -1.
</event>
<event>
 7    1  0.4452647E-009  0.4614232E+02  0.7816164E-02  0.1320468E+00
        -11   -1    0    0    0    0  0.00000000000E+00  0.00000000000E+00  0.45593999997E+02  0.45594000000E+02  0.51100000000E-03 0. -1.
         11   -1    0    0    0    0 -0.00000000000E+00 -0.00000000000E+00 -0.45593999997E+02  0.45594000000E+02  0.51100000000E-03 0.  1.
    9900012    2    1    2    0    0  0.33552381618E+02  0.12264937747E+01 -0.30030765809E+02  0.46142317696E+02  0.99999994018E+01 0.  0.
         12    1    1    2    0    0 -0.33552381618E+02 -0.12264937747E+01  0.30030765809E+02  0.45045682304E+02  0.00000000000E+00 0. -1.
         11    1    3    3    0    0  0.15016167728E+02  0.44340807169E+00 -0.13114990723E+02  0.19942038158E+02  0.51100000000E-03 0.  1.
        -11    1    3    3    0    0  0.13473108864E+02 -0.15605492134E+01 -0.81924809829E+01  0.15845400633E+02  0.51100000000E-03 0. -1.
        -12    1    3    3    0    0  0.50631050255E+01  0.23436349164E+01 -0.87232941026E+01  0.10354878904E+02  0.00000000000E+00 0.  1.
</event>
<event>
 7    1  0.4452647E-009  0.4614232E+02  0.7816164E-02  0.1320468E+00
        -11   -1    0    0    0    0  0.00000000000E+00  0.00000000000E+00  0.45593999997E+02  0.45594000000E+02  0.51100000000E-03 0. -1.
         11   -1    0    0    0    0 -0.00000000000E+00 -0.00000000000E+00 -0.45593999997E+02  0.45594000000E+02  0.51100000000E-03 0.  1.
    9900012    2    1    2    0    0 -0.44549654420E+02 -0.31275176822E+01 -0.58873060668E+01  0.46142318203E+02  0.10000004034E+02 0.  0.
         12    1    1    2    0    0  0.44549654420E+02  0.31275176822E+01  0.58873060668E+01  0.45045681797E+02  0.00000000000E+00 0. -1.
         11    1    3    3    0    0 -0.84373857081E+01 -0.13287513700E+01 -0.51253182644E+01  0.99611216920E+01  0.51100000000E-03 0. -1.
        -11    1    3    3    0    0 -0.14817113397E+02 -0.11755259244E+01 -0.10540610609E-01  0.14863674578E+02  0.51100000000E-03 0.  1.
         12    1    3    3    0    0 -0.21295155315E+02 -0.62324038777E+00 -0.75144719177E+00  0.21317521933E+02  0.00000000000E+00 0. -1.
</event>
<event>
 7    1  0.4452647E-009  0.4614232E+02  0.7816164E-02  0.1320468E+00
        -11   -1    0    0    0    0  0.00000000000E+00  0.00000000000E+00  0.45593999997E+02  0.45594000000E+02  0.51100000000E-03 0. -1.
         11   -1    0    0    0    0 -0.00000000000E+00 -0.00000000000E+00 -0.45593999997E+02  0.45594000000E+02  0.51100000000E-03 0.  1.
    9900012    2    1    2    0    0  0.12330971068E+02 -0.42212021042E+02 -0.97573561051E+01  0.46142316899E+02  0.99999921358E+01 0.  0.
         12    1    1    2    0    0 -0.12330971068E+02  0.42212021042E+02  0.97573561051E+01  0.45045683101E+02  0.00000000000E+00 0. -1.
         11    1    3    3    0    0  0.96000425206E+01 -0.27416041084E+02 -0.52883161080E+01  0.29525690723E+02  0.51100000000E-03 0. -1.
        -11    1    3    3    0    0  0.23631076142E+01 -0.84192237948E+01  0.13047532688E+00  0.87455492095E+01  0.51100000000E-03 0.  1.
         12    1    3    3    0    0  0.36782093280E+00 -0.63767561625E+01 -0.45995153240E+01  0.78710769664E+01  0.00000000000E+00 0. -1.
</event>
<event>
 7    1  0.4452647E-009  0.4614232E+02  0.7816164E-02  0.1320468E+00
        -11   -1    0    0    0    0  0.00000000000E+00  0.00000000000E+00  0.45593999997E+02  0.45594000000E+02  0.51100000000E-03 0. -1.
         11   -1    0    0    0    0 -0.00000000000E+00 -0.00000000000E+00 -0.45593999997E+02  0.45594000000E+02  0.51100000000E-03 0.  1.
    9900012    2    1    2    0    0 -0.27072459886E+02 -0.35598514244E+01  0.35826287474E+02  0.46142317625E+02  0.99999987564E+01 0.  0.
        -12    1    1    2    0    0  0.27072459886E+02  0.35598514244E+01 -0.35826287474E+02  0.45045682375E+02  0.00000000000E+00 0.  1.
         11    1    3    3    0    0 -0.13107274353E+02  0.20120833376E+01  0.14054247355E+02  0.19322810078E+02  0.51100000000E-03 0. -1.
        -11    1    3    3    0    0 -0.11867842924E+02 -0.58714656604E+01  0.16624955105E+02  0.21253445302E+02  0.51100000000E-03 0.  1.
         12    1    3    3    0    0 -0.20973426095E+01  0.29953089841E+00  0.51470850139E+01  0.55660622455E+01  0.00000000000E+00 0. -1.
</event>
<event>
 7    1  0.4452647E-009  0.4614232E+02  0.7816164E-02  0.1320468E+00
        -11   -1    0    0    0    0  0.00000000000E+00  0.00000000000E+00  0.45593999997E+02  0.45594000000E+02  0.51100000000E-03 0. -1.
         11   -1    0    0    0    0 -0.00000000000E+00 -0.00000000000E+00 -0.45593999997E+02  0.45594000000E+02  0.51100000000E-03 0.  1.
    9900012    2    1    2    0    0 -0.18673587471E+02  0.86403595752E+01  0.40071870215E+02  0.46142318018E+02  0.10000002346E+02 0.  0.
        -12    1    1    2    0    0  0.18673587471E+02 -0.86403595752E+01 -0.40071870215E+02  0.45045681982E+02  0.00000000000E+00 0.  1.
         11    1    3    3    0    0 -0.13040660245E+02  0.44396030746E+01  0.22708875079E+02  0.26560532802E+02  0.51100000000E-03 0. -1.
        -11    1    3    3    0    0 -0.57723725516E+01  0.50841212704E+01  0.16914304913E+02  0.18581234752E+02  0.51100000000E-03 0.  1.
        -12    1    3    3    0    0  0.13944532572E+00 -0.88336476975E+00  0.44869022321E+00  0.10005504643E+01  0.00000000000E+00 0.  1.
</event>
<event>
 7    1  0.5765233E-009  0.4614232E+02  0.7816164E-02  0.1320468E+00
        -11   -1    0    0    0    0  0.00000000000E+00  0.00000000000E+00  0.45593999997E+02  0.45594000000E+02  0.51100000000E-03 0. -1.
         11   -1    0    0    0    0 -0.00000000000E+00 -0.00000000000E+00 -0.45593999997E+02  0.45594000000E+02  0.51100000000E-03 0.  1.
    9900012    2    1    2    0    0 -0.84046741087E+01 -0.18806256297E+02  0.40059951655E+02  0.46142317084E+02  0.99999938219E+01 0.  0.
        -12    1    1    2    0    0  0.84046741087E+01  0.18806256297E+02 -0.40059951655E+02  0.45045682916E+02  0.00000000000E+00 0.  1.
         11    1    3    3    0    0 -0.59801192725E+01 -0.83016842622E+01  0.28573656116E+02  0.30350183067E+02  0.51100000000E-03 0. -1.
        -11    1    3    3    0    0 -0.94866506752E+00 -0.56347583753E+01  0.54393792747E+01  0.78890629681E+01  0.51100000000E-03 0.  1.
         12    1    3    3    0    0 -0.14758897687E+01 -0.48698136597E+01  0.60469162645E+01  0.79030710486E+01  0.00000000000E+00 0. -1.
</event>
<event>
 7    1  0.4452647E-009  0.4614232E+02  0.7816164E-02  0.1320468E+00
        -11   -1    0    0    0    0  0.00000000000E+00  0.00000000000E+00  0.45593999997E+02  0.45594000000E+02  0.51100000000E-03 0. -1.
         11   -1    0    0    0    0 -0.00000000000E+00 -0.00000000000E+00 -0.45593999997E+02  0.45594000000E+02  0.51100000000E-03 0.  1.
    9900012    2    1    2    0    0  0.40168833029E+02  0.20311209510E+02 -0.17415763363E+01  0.46142318000E+02  0.10000002181E+02 0.  0.
        -12    1    1    2    0    0 -0.40168833029E+02 -0.20311209510E+02  0.17415763363E+01  0.45045682000E+02  0.00000000000E+00 0.  1.
         11    1    3    3    0    0  0.94196094870E+01  0.45362775044E+01 -0.22969253596E+01  0.10704331967E+02  0.51100000000E-03 0. -1.
        -11    1    3    3    0    0  0.29412716410E+02  0.12816445122E+02  0.12893298034E+01  0.32109679597E+02  0.51100000000E-03 0.  1.
        -12    1    3    3    0    0  0.13365071320E+01  0.29584868833E+01 -0.73398078006E+00  0.33283064369E+01  0.00000000000E+00 0.  1.
</event>
<event>
 7    1  0.4452647E-009  0.4614232E+02  0.7816164E-02  0.1320468E+00
        -11   -1    0    0    0    0  0.00000000000E+00  0.00000000000E+00  0.45593999997E+02  0.45594000000E+02  0.51100000000E-03 0. -1.
         11   -1    0    0    0    0 -0.00000000000E+00 -0.00000000000E+00 -0.45593999997E+02  0.45594000000E+02  0.51100000000E-03 0.  1.
    9900012    2    1    2    0    0  0.87882684488E+01  0.16561639674E+02 -0.40958416371E+02  0.46142318268E+02  0.10000004626E+02 0.  0.
         12    1    1    2    0    0 -0.87882684488E+01 -0.16561639674E+02  0.40958416371E+02  0.45045681732E+02  0.00000000000E+00 0. -1.
         11    1    3    3    0    0  0.21313029336E+01  0.56990179242E+01 -0.14833756640E+02  0.16033140485E+02  0.51100000000E-03 0.  1.
        -11    1    3    3    0    0  0.70773767305E+01  0.48931110764E+01 -0.18610417625E+02  0.20503156874E+02  0.51100000000E-03 0. -1.
         12    1    3    3    0    0 -0.42041121537E+00  0.59695106732E+01 -0.75142421070E+01  0.96060209093E+01  0.00000000000E+00 0. -1.
</event>
<event>
 7    1  0.4452647E-009  0.4614232E+02  0.7816164E-02  0.1320468E+00
        -11   -1    0    0    0    0  0.00000000000E+00  0.00000000000E+00  0.45593999997E+02  0.45594000000E+02  0.51100000000E-03 0.  1.
         11   -1    0    0    0    0 -0.00000000000E+00 -0.00000000000E+00 -0.45593999997E+02  0.45594000000E+02  0.51100000000E-03 0. -1.
    9900012    2    1    2    0    0 -0.27968624221E+02  0.34543452973E+02  0.73225361413E+01  0.46142316304E+02  0.99999867102E+01 0.  0.
        -12    1    1    2    0    0  0.27968624221E+02 -0.34543452973E+02 -0.73225361413E+01  0.45045683696E+02  0.00000000000E+00 0.  1.
         11    1    3    3    0    0 -0.57732814099E+01  0.68400762490E+01 -0.97607695773E+00  0.90038962576E+01  0.51100000000E-03 0. -1.
        -11    1    3    3    0    0 -0.20076478561E+02  0.24309388322E+02  0.95561366755E+01  0.32944363712E+02  0.51100000000E-03 0.  1.
        -12    1    3    3    0    0 -0.21188642508E+01  0.33939884017E+01 -0.12575235765E+01  0.41940563336E+01  0.00000000000E+00 0.  1.
</event>
<event>
 7    1  0.4452647E-009  0.4614232E+02  0.7816164E-02  0.1320468E+00
        -11   -1    0    0    0    0  0.00000000000E+00  0.00000000000E+00  0.45593999997E+02  0.45594000000E+02  0.51100000000E-03 0. -1.
         11   -1    0    0    0    0 -0.00000000000E+00 -0.00000000000E+00 -0.45593999997E+02  0.45594000000E+02  0.51100000000E-03 0.  1.
    9900012    2    1    2    0    0  0.35317406211E+02 -0.22815353266E+02 -0.16163341533E+02  0.46142321676E+02  0.10000035703E+02 0.  0.
         12    1    1    2    0    0 -0.35317406211E+02  0.22815353266E+02  0.16163341533E+02  0.45045678324E+02  0.00000000000E+00 0. -1.
         11    1    3    3    0    0  0.12220285951E+02 -0.66583280481E+01 -0.20822956960E+01  0.14071413459E+02  0.51100000000E-03 0. -1.
        -11    1    3    3    0    0  0.19316731792E+02 -0.10447719459E+02 -0.10458993944E+02  0.24324504591E+02  0.51100000000E-03 0.  1.
         12    1    3    3    0    0  0.37803884677E+01 -0.57093057593E+01 -0.36220518932E+01  0.77464036260E+01  0.00000000000E+00 0. -1.
</event>
<event>
 7    1  0.4452647E-009  0.4614232E+02  0.7816164E-02  0.1320468E+00
        -11   -1    0    0    0    0  0.00000000000E+00  0.00000000000E+00  0.45593999997E+02  0.45594000000E+02  0.51100000000E-03 0. -1.
         11   -1    0    0    0    0 -0.00000000000E+00 -0.00000000000E+00 -0.45593999997E+02  0.45594000000E+02  0.51100000000E-03 0.  1.
    9900012    2    1    2    0    0 -0.39658295139E+01 -0.15908544887E+02  0.41955974588E+02  0.46142318656E+02  0.10000008162E+02 0.  0.
        -12    1    1    2    0    0  0.39658295139E+01  0.15908544887E+02 -0.41955974588E+02  0.45045681344E+02  0.00000000000E+00 0.  1.
         11    1    3    3    0    0 -0.33015462498E+01 -0.35591160159E+01  0.58933325366E+01  0.76353705282E+01  0.51100000000E-03 0. -1.
        -11    1    3    3    0    0  0.75561333289E+00 -0.60133804277E+00  0.79048531286E+01  0.79636211736E+01  0.51100000000E-03 0.  1.
        -12    1    3    3    0    0 -0.14198965969E+01 -0.11748090828E+02  0.28157788922E+02  0.30543326954E+02  0.00000000000E+00 0.  1.
</event>
<event>
 7    1  0.4452647E-009  0.4614232E+02  0.7816164E-02  0.1320468E+00
        -11   -1    0    0    0    0  0.00000000000E+00  0.00000000000E+00  0.45593999997E+02  0.45594000000E+02  0.51100000000E-03 0. -1.
         11   -1    0    0    0    0 -0.00000000000E+00 -0.00000000000E+00 -0.45593999997E+02  0.45594000000E+02  0.51100000000E-03 0.  1.
    9900012    2    1    2    0    0  0.32794248225E+02 -0.27201774764E+02 -0.14618967288E+02  0.46142317948E+02  0.10000001709E+02 0.  0.
         12    1    1    2    0    0 -0.32794248225E+02  0.27201774764E+02  0.14618967288E+02  0.45045682052E+02  0.00000000000E+00 0. -1.
         11    1    3    3    0    0  0.16019813254E+02 -0.15410095093E+02 -0.29235994498E+01  0.22419921531E+02  0.51100000000E-03 0. -1.
        -11    1    3    3    0    0  0.95051913158E+01 -0.66228898549E+01 -0.52571334877E+01  0.12721980378E+02  0.51100000000E-03 0.  1.
         12    1    3    3    0    0  0.72692436546E+01 -0.51687898161E+01 -0.64382343504E+01  0.11000416039E+02  0.00000000000E+00 0. -1.
</event>
<event>
 7    1  0.4452647E-009  0.4614232E+02  0.7816164E-02  0.1320468E+00
        -11   -1    0    0    0    0  0.00000000000E+00  0.00000000000E+00  0.45593999997E+02  0.45594000000E+02  0.51100000000E-03 0. -1.
         11   -1    0    0    0    0 -0.00000000000E+00 -0.00000000000E+00 -0.45593999997E+02  0.45594000000E+02  0.51100000000E-03 0.  1.
    9900012    2    1    2    0    0 -0.25014510287E+02  0.52497497180E+01 -0.37092153759E+02  0.46142317993E+02  0.10000002111E+02 0.  0.
         12    1    1    2    0    0  0.25014510287E+02 -0.52497497180E+01  0.37092153759E+02  0.45045682007E+02  0.00000000000E+00 0. -1.
         11    1    3    3    0    0 -0.11957413248E+02 -0.21991197451E+01 -0.14158513072E+02  0.18662244021E+02  0.51100000000E-03 0. -1.
        -11    1    3    3    0    0 -0.97100925934E+01  0.62549886145E+01 -0.16710778987E+02  0.20314057088E+02  0.51100000000E-03 0.  1.
         12    1    3    3    0    0 -0.33470044460E+01  0.11938808486E+01 -0.62228616997E+01  0.71660168836E+01  0.00000000000E+00 0. -1.
</event>
<event>
 7    1  0.4452647E-009  0.4614232E+02  0.7816164E-02  0.1320468E+00
        -11   -1    0    0    0    0  0.00000000000E+00  0.00000000000E+00  0.45593999997E+02  0.45594000000E+02  0.51100000000E-03 0. -1.
         11   -1    0    0    0    0 -0.00000000000E+00 -0.00000000000E+00 -0.45593999997E+02  0.45594000000E+02  0.51100000000E-03 0.  1.
    9900012    2    1    2    0    0  0.17885016639E+02 -0.13466031413E+01 -0.41321015433E+02  0.46142317892E+02  0.10000001193E+02 0.  0.
         12    1    1    2    0    0 -0.17885016639E+02  0.13466031413E+01  0.41321015433E+02  0.45045682108E+02  0.00000000000E+00 0. -1.
         11    1    3    3    0    0  0.26267170340E+01 -0.25301624608E+01 -0.59579242175E+01  0.69855726822E+01  0.51100000000E-03 0. -1.
        -11    1    3    3    0    0  0.58872558690E+01  0.29325327299E+01 -0.20220968679E+02  0.21263750950E+02  0.51100000000E-03 0.  1.
         12    1    3    3    0    0  0.93710437356E+01 -0.17489734103E+01 -0.15142122536E+02  0.17892994260E+02  0.00000000000E+00 0. -1.
</event>
<event>
 7    1  0.4452647E-009  0.4614232E+02  0.7816164E-02  0.1320468E+00
        -11   -1    0    0    0    0  0.00000000000E+00  0.00000000000E+00  0.45593999997E+02  0.45594000000E+02  0.51100000000E-03 0. -1.
         11   -1    0    0    0    0 -0.00000000000E+00 -0.00000000000E+00 -0.45593999997E+02  0.45594000000E+02  0.51100000000E-03 0.  1.
    9900012    2    1    2    0    0 -0.36368356775E+02 -0.22892811242E+02 -0.13504641552E+02  0.46142317360E+02  0.99999963431E+01 0.  0.
         12    1    1    2    0    0  0.36368356775E+02  0.22892811242E+02  0.13504641552E+02  0.45045682640E+02  0.00000000000E+00 0. -1.
         11    1    3    3    0    0 -0.64585382397E+00 -0.14503914190E+01 -0.14604404431E+01  0.21572317861E+01  0.51100000000E-03 0. -1.
        -11    1    3    3    0    0 -0.13600582667E+02 -0.71952896525E+01 -0.80681742789E+01  0.17373643214E+02  0.51100000000E-03 0.  1.
        -12    1    3    3    0    0 -0.22121920283E+02 -0.14247130171E+02 -0.39760268298E+01  0.26611442360E+02  0.00000000000E+00 0.  1.
</event>
<event>
 7    1  0.4452647E-009  0.4614232E+02  0.7816164E-02  0.1320468E+00
        -11   -1    0    0    0    0  0.00000000000E+00  0.00000000000E+00  0.45593999997E+02  0.45594000000E+02  0.51100000000E-03 0.  1.
         11   -1    0    0    0    0 -0.00000000000E+00 -0.00000000000E+00 -0.45593999997E+02  0.45594000000E+02  0.51100000000E-03 0. -1.
    9900012    2    1    2    0    0 -0.38472221716E+02 -0.55177300991E+01 -0.22771832277E+02  0.46142317250E+02  0.99999953357E+01 0.  0.
        -12    1    1    2    0    0  0.38472221716E+02  0.55177300991E+01  0.22771832277E+02  0.45045682750E+02  0.00000000000E+00 0.  1.
         11    1    3    3    0    0 -0.26471110133E+02 -0.43474126082E+01 -0.12264159090E+02  0.29496258517E+02  0.51100000000E-03 0. -1.
        -11    1    3    3    0    0 -0.10733763064E+01  0.13212237760E+01 -0.13907850159E+01  0.21981929358E+01  0.51100000000E-03 0.  1.
         12    1    3    3    0    0 -0.10927735277E+02 -0.24915412669E+01 -0.91168881715E+01  0.14447865797E+02  0.00000000000E+00 0. -1.
</event>
<event>
 7    1  0.4452647E-009  0.4614232E+02  0.7816164E-02  0.1320468E+00
        -11   -1    0    0    0    0  0.00000000000E+00  0.00000000000E+00  0.45593999997E+02  0.45594000000E+02  0.51100000000E-03 0.  1.
         11   -1    0    0    0    0 -0.00000000000E+00 -0.00000000000E+00 -0.45593999997E+02  0.45594000000E+02  0.51100000000E-03 0. -1.
    9900012    2    1    2    0    0 -0.34994370533E+01 -0.43050084874E+02  0.12788962911E+02  0.46142318302E+02  0.10000004931E+02 0.  0.
        -12    1    1    2    0    0  0.34994370533E+01  0.43050084874E+02 -0.12788962911E+02  0.45045681698E+02  0.00000000000E+00 0.  1.
         11    1    3    3    0    0  0.56816290337E+00 -0.22004962067E+02  0.55642601250E+01  0.22704672551E+02  0.51100000000E-03 0. -1.
        -11    1    3    3    0    0 -0.56077361367E+01 -0.14331510878E+02  0.54329765763E+01  0.16320421054E+02  0.51100000000E-03 0.  1.
         12    1    3    3    0    0  0.15401361801E+01 -0.67136119290E+01  0.17917262095E+01  0.71172246976E+01  0.00000000000E+00 0. -1.
</event>
<event>
 7    1  0.4452647E-009  0.4614232E+02  0.7816164E-02  0.1320468E+00
        -11   -1    0    0    0    0  0.00000000000E+00  0.00000000000E+00  0.45593999997E+02  0.45594000000E+02  0.51100000000E-03 0.  1.
         11   -1    0    0    0    0 -0.00000000000E+00 -0.00000000000E+00 -0.45593999997E+02  0.45594000000E+02  0.51100000000E-03 0. -1.
    9900012    2    1    2    0    0 -0.37464837950E+01  0.40889644329E+02  0.18523344917E+02  0.46142318064E+02  0.10000002759E+02 0.  0.
         12    1    1    2    0    0  0.37464837950E+01 -0.40889644329E+02 -0.18523344917E+02  0.45045681936E+02  0.00000000000E+00 0. -1.
         11    1    3    3    0    0 -0.21114115344E+00  0.19666200403E-01  0.73791809143E+00  0.76778298815E+00  0.51100000000E-03 0. -1.
        -11    1    3    3    0    0  0.21538593753E+01  0.10792545468E+02  0.62928625608E+01  0.12677470858E+02  0.51100000000E-03 0.  1.
        -12    1    3    3    0    0 -0.56892020169E+01  0.30077432661E+02  0.11492564265E+02  0.32697064217E+02  0.00000000000E+00 0.  1.
</event>
<event>
 7    1  0.4452647E-009  0.4614232E+02  0.7816164E-02  0.1320468E+00
        -11   -1    0    0    0    0  0.00000000000E+00  0.00000000000E+00  0.45593999997E+02  0.45594000000E+02  0.51100000000E-03 0. -1.
         11   -1    0    0    0    0 -0.00000000000E+00 -0.00000000000E+00 -0.45593999997E+02  0.45594000000E+02  0.51100000000E-03 0.  1.
    9900012    2    1    2    0    0  0.22387474093E+02  0.85503950718E+01 -0.38141909243E+02  0.46142317712E+02  0.99999995484E+01 0.  0.
         12    1    1    2    0    0 -0.22387474093E+02 -0.85503950718E+01  0.38141909243E+02  0.45045682288E+02  0.00000000000E+00 0. -1.
         11    1    3    3    0    0  0.78096606306E+01  0.83003872092E+00 -0.20594653591E+02  0.22041313941E+02  0.51100000000E-03 0. -1.
        -11    1    3    3    0    0  0.64149721728E+01  0.35481623336E+01 -0.84332195548E+01  0.11174100243E+02  0.51100000000E-03 0.  1.
        -12    1    3    3    0    0  0.81628412894E+01  0.41721940173E+01 -0.91140360970E+01  0.12926903528E+02  0.00000000000E+00 0.  1.
</event>
<event>
 7    1  0.4452647E-009  0.4614232E+02  0.7816164E-02  0.1320468E+00
        -11   -1    0    0    0    0  0.00000000000E+00  0.00000000000E+00  0.45593999997E+02  0.45594000000E+02  0.51100000000E-03 0. -1.
         11   -1    0    0    0    0 -0.00000000000E+00 -0.00000000000E+00 -0.45593999997E+02  0.45594000000E+02  0.51100000000E-03 0.  1.
    9900012    2    1    2    0    0  0.16614327516E+02  0.24628458880E+02 -0.33860250382E+02  0.46142318503E+02  0.10000006763E+02 0.  0.
         12    1    1    2    0    0 -0.16614327516E+02 -0.24628458880E+02  0.33860250382E+02  0.45045681497E+02  0.00000000000E+00 0. -1.
         11    1    3    3    0    0  0.82673319705E+01  0.67921374124E+01 -0.92001745208E+01  0.14111170044E+02  0.51100000000E-03 0. -1.
        -11    1    3    3    0    0  0.12042963583E+01  0.71441455914E+01 -0.11791344581E+02  0.13839254071E+02  0.51100000000E-03 0.  1.
        -12    1    3    3    0    0  0.71426991869E+01  0.10692175876E+02 -0.12868731280E+02  0.18191894387E+02  0.00000000000E+00 0.  1.
</event>
<event>
 7    1  0.4452647E-009  0.4614232E+02  0.7816164E-02  0.1320468E+00
        -11   -1    0    0    0    0  0.00000000000E+00  0.00000000000E+00  0.45593999997E+02  0.45594000000E+02  0.51100000000E-03 0.  1.
         11   -1    0    0    0    0 -0.00000000000E+00 -0.00000000000E+00 -0.45593999997E+02  0.45594000000E+02  0.51100000000E-03 0. -1.
    9900012    2    1    2    0    0  0.34803203446E+02  0.78899773040E+01 -0.27488159630E+02  0.46142316169E+02  0.99999854836E+01 0.  0.
         12    1    1    2    0    0 -0.34803203446E+02 -0.78899773040E+01  0.27488159630E+02  0.45045683831E+02  0.00000000000E+00 0. -1.
         11    1    3    3    0    0  0.12997432890E+02 -0.17874140525E+01 -0.87357507589E+01  0.15762025641E+02  0.51100000000E-03 0. -1.
        -11    1    3    3    0    0  0.39170818758E+01  0.11435320185E+01 -0.30743582010E+01  0.51090972303E+01  0.51100000000E-03 0.  1.
         12    1    3    3    0    0  0.17888688680E+02  0.85338593380E+01 -0.15678050670E+02  0.25271193298E+02  0.00000000000E+00 0. -1.
</event>
<event>
 7    1  0.4452647E-009  0.4614232E+02  0.7816164E-02  0.1320468E+00
        -11   -1    0    0    0    0  0.00000000000E+00  0.00000000000E+00  0.45593999997E+02  0.45594000000E+02  0.51100000000E-03 0. -1.
         11   -1    0    0    0    0 -0.00000000000E+00 -0.00000000000E+00 -0.45593999997E+02  0.45594000000E+02  0.51100000000E-03 0.  1.
    9900012    2    1    2    0    0 -0.34049029061E+02 -0.98952350678E+01 -0.27782393757E+02  0.46142318077E+02  0.10000002880E+02 0.  0.
         12    1    1    2    0    0  0.34049029061E+02  0.98952350678E+01  0.27782393757E+02  0.45045681923E+02  0.00000000000E+00 0. -1.
         11    1    3    3    0    0 -0.59120866037E+00 -0.39062546403E+00  0.73210254588E+00  0.10188671808E+01  0.51100000000E-03 0. -1.
        -11    1    3    3    0    0 -0.25517531924E+02 -0.77264797085E+01 -0.23675846326E+02  0.35656536900E+02  0.51100000000E-03 0.  1.
         12    1    3    3    0    0 -0.79402884767E+01 -0.17781298952E+01 -0.48386499772E+01  0.94669139966E+01  0.00000000000E+00 0. -1.
</event>
<event>
 7    1  0.4452647E-009  0.4614232E+02  0.7816164E-02  0.1320468E+00
        -11   -1    0    0    0    0  0.00000000000E+00  0.00000000000E+00  0.45593999997E+02  0.45594000000E+02  0.51100000000E-03 0. -1.
         11   -1    0    0    0    0 -0.00000000000E+00 -0.00000000000E+00 -0.45593999997E+02  0.45594000000E+02  0.51100000000E-03 0.  1.
    9900012    2    1    2    0    0  0.31181633442E+02 -0.21986347786E+02  0.23946181133E+02  0.46142319364E+02  0.10000014615E+02 0.  0.
        -12    1    1    2    0    0 -0.31181633442E+02  0.21986347786E+02 -0.23946181133E+02  0.45045680636E+02  0.00000000000E+00 0.  1.
         11    1    3    3    0    0  0.78093449141E+01 -0.29566258309E+01  0.44410060834E+01  0.94578031056E+01  0.51100000000E-03 0. -1.
        -11    1    3    3    0    0  0.21335196485E+02 -0.19517709804E+02  0.18724367620E+02  0.34448999232E+02  0.51100000000E-03 0.  1.
        -12    1    3    3    0    0  0.20370920431E+01  0.48798784869E+00  0.78080743004E+00  0.22355170264E+01  0.00000000000E+00 0.  1.
</event>
<event>
 7    1  0.4452647E-009  0.4614232E+02  0.7816164E-02  0.1320468E+00
        -11   -1    0    0    0    0  0.00000000000E+00  0.00000000000E+00  0.45593999997E+02  0.45594000000E+02  0.51100000000E-03 0. -1.
         11   -1    0    0    0    0 -0.00000000000E+00 -0.00000000000E+00 -0.45593999997E+02  0.45594000000E+02  0.51100000000E-03 0.  1.
    9900012    2    1    2    0    0 -0.30927963520E+02  0.85349904998E+01 -0.31618483087E+02  0.46142318042E+02  0.10000002562E+02 0.  0.
         12    1    1    2    0    0  0.30927963520E+02 -0.85349904998E+01  0.31618483087E+02  0.45045681958E+02  0.00000000000E+00 0. -1.
         11    1    3    3    0    0 -0.97620341459E+01  0.63383323482E+01 -0.15355695519E+02  0.19268345875E+02  0.51100000000E-03 0. -1.
        -11    1    3    3    0    0 -0.12705930733E+02  0.32537581953E+00 -0.10239296146E+02  0.16321450028E+02  0.51100000000E-03 0.  1.
         12    1    3    3    0    0 -0.84599986411E+01  0.18712823321E+01 -0.60234914231E+01  0.10552522139E+02  0.00000000000E+00 0. -1.
</event>
<event>
 7    1  0.4452647E-009  0.4614232E+02  0.7816164E-02  0.1320468E+00
        -11   -1    0    0    0    0  0.00000000000E+00  0.00000000000E+00  0.45593999997E+02  0.45594000000E+02  0.51100000000E-03 0. -1.
         11   -1    0    0    0    0 -0.00000000000E+00 -0.00000000000E+00 -0.45593999997E+02  0.45594000000E+02  0.51100000000E-03 0.  1.
    9900012    2    1    2    0    0  0.25730493141E+02  0.36791979196E+02 -0.36613496520E+01  0.46142317724E+02  0.99999996607E+01 0.  0.
         12    1    1    2    0    0 -0.25730493141E+02 -0.36791979196E+02  0.36613496520E+01  0.45045682276E+02  0.00000000000E+00 0. -1.
         11    1    3    3    0    0  0.16012075248E+01  0.24268359412E+01  0.20430756266E+01  0.35535273321E+01  0.51100000000E-03 0. -1.
        -11    1    3    3    0    0  0.18558279694E+02  0.28233212593E+02 -0.59204423208E+01  0.34301248899E+02  0.51100000000E-03 0.  1.
        -12    1    3    3    0    0  0.55710059217E+01  0.61319306624E+01  0.21601704225E+00  0.82875414925E+01  0.00000000000E+00 0.  1.
</event>
<event>
 7    1  0.4452647E-009  0.4614232E+02  0.7816164E-02  0.1320468E+00
        -11   -1    0    0    0    0  0.00000000000E+00  0.00000000000E+00  0.45593999997E+02  0.45594000000E+02  0.51100000000E-03 0. -1.
         11   -1    0    0    0    0 -0.00000000000E+00 -0.00000000000E+00 -0.45593999997E+02  0.45594000000E+02  0.51100000000E-03 0.  1.
    9900012    2    1    2    0    0  0.80666083829E+01  0.29543273876E+02 -0.33033896650E+02  0.46142317299E+02  0.99999957827E+01 0.  0.
         12    1    1    2    0    0 -0.80666083829E+01 -0.29543273876E+02  0.33033896650E+02  0.45045682701E+02  0.00000000000E+00 0. -1.
         11    1    3    3    0    0  0.24439204095E+01  0.11093488137E+02 -0.84466539789E+01  0.14155712265E+02  0.51100000000E-03 0. -1.
        -11    1    3    3    0    0  0.50020405020E+00  0.98676636453E+01 -0.16023963949E+02  0.18825206793E+02  0.51100000000E-03 0.  1.
        -12    1    3    3    0    0  0.51224839232E+01  0.85821220936E+01 -0.85632787227E+01  0.13161398241E+02  0.00000000000E+00 0.  1.
</event>
<event>
 7    1  0.4452647E-009  0.4614232E+02  0.7816164E-02  0.1320468E+00
        -11   -1    0    0    0    0  0.00000000000E+00  0.00000000000E+00  0.45593999997E+02  0.45594000000E+02  0.51100000000E-03 0. -1.
         11   -1    0    0    0    0 -0.00000000000E+00 -0.00000000000E+00 -0.45593999997E+02  0.45594000000E+02  0.51100000000E-03 0.  1.
    9900012    2    1    2    0    0 -0.25146614837E+02 -0.31489626628E+02 -0.20128705156E+02  0.46142316587E+02  0.99999892947E+01 0.  0.
         12    1    1    2    0    0  0.25146614837E+02  0.31489626628E+02  0.20128705156E+02  0.45045683413E+02  0.00000000000E+00 0. -1.
         11    1    3    3    0    0 -0.38409505468E+01 -0.20580487657E+01 -0.28668066965E+01  0.52160374540E+01  0.51100000000E-03 0. -1.
        -11    1    3    3    0    0 -0.21218212807E+02 -0.26003312664E+02 -0.16563995248E+02  0.37426605016E+02  0.51100000000E-03 0.  1.
        -12    1    3    3    0    0 -0.87451482595E-01 -0.34282651983E+01 -0.69790321120E+00  0.34996741168E+01  0.00000000000E+00 0.  1.
</event>
<event>
 7    1  0.4452647E-009  0.4614232E+02  0.7816164E-02  0.1320468E+00
        -11   -1    0    0    0    0  0.00000000000E+00  0.00000000000E+00  0.45593999997E+02  0.45594000000E+02  0.51100000000E-03 0. -1.
         11   -1    0    0    0    0 -0.00000000000E+00 -0.00000000000E+00 -0.45593999997E+02  0.45594000000E+02  0.51100000000E-03 0.  1.
    9900012    2    1    2    0    0  0.13365959491E+02 -0.16717578356E+02  0.39635672620E+02  0.46142324922E+02  0.10000065301E+02 0.  0.
        -12    1    1    2    0    0 -0.13365959491E+02  0.16717578356E+02 -0.39635672620E+02  0.45045675078E+02  0.00000000000E+00 0.  1.
         11    1    3    3    0    0  0.78880959629E+01 -0.12645390980E+02  0.28586690275E+02  0.32238592278E+02  0.51100000000E-03 0. -1.
        -11    1    3    3    0    0  0.87908393732E+00 -0.33833349949E+01  0.29926707673E+01  0.46017195524E+01  0.51100000000E-03 0.  1.
         12    1    3    3    0    0  0.45987795903E+01 -0.68885238169E+00  0.80563115776E+01  0.93020130918E+01  0.00000000000E+00 0. -1.
</event>
<event>
 7    1  0.4452647E-009  0.4614232E+02  0.7816164E-02  0.1320468E+00
        -11   -1    0    0    0    0  0.00000000000E+00  0.00000000000E+00  0.45593999997E+02  0.45594000000E+02  0.51100000000E-03 0. -1.
         11   -1    0    0    0    0 -0.00000000000E+00 -0.00000000000E+00 -0.45593999997E+02  0.45594000000E+02  0.51100000000E-03 0.  1.
    9900012    2    1    2    0    0 -0.17189752128E+02  0.15945691019E+02 -0.38462459522E+02  0.46142318378E+02  0.10000005625E+02 0.  0.
         12    1    1    2    0    0  0.17189752128E+02 -0.15945691019E+02  0.38462459522E+02  0.45045681622E+02  0.00000000000E+00 0. -1.
         11    1    3    3    0    0 -0.32197263134E+01  0.43790322317E+01 -0.14915850341E+02  0.15875300076E+02  0.51100000000E-03 0. -1.
        -11    1    3    3    0    0 -0.77301600277E+01  0.98041406892E+01 -0.16499010446E+02  0.20690430026E+02  0.51100000000E-03 0.  1.
         12    1    3    3    0    0 -0.62398657872E+01  0.17625180977E+01 -0.70475987345E+01  0.95765882761E+01  0.00000000000E+00 0. -1.
</event>
<event>
 7    1  0.4452647E-009  0.4614232E+02  0.7816164E-02  0.1320468E+00
        -11   -1    0    0    0    0  0.00000000000E+00  0.00000000000E+00  0.45593999997E+02  0.45594000000E+02  0.51100000000E-03 0. -1.
         11   -1    0    0    0    0 -0.00000000000E+00 -0.00000000000E+00 -0.45593999997E+02  0.45594000000E+02  0.51100000000E-03 0.  1.
    9900012    2    1    2    0    0  0.16328670720E+02  0.31946942480E+02  0.27237489323E+02  0.46142318232E+02  0.10000004298E+02 0.  0.
        -12    1    1    2    0    0 -0.16328670720E+02 -0.31946942480E+02 -0.27237489323E+02  0.45045681768E+02  0.00000000000E+00 0.  1.
         11    1    3    3    0    0  0.56314607034E+01  0.10616867732E+02  0.48565970898E+01  0.12962166704E+02  0.51100000000E-03 0. -1.
        -11    1    3    3    0    0  0.87603684828E+00  0.26634863639E+01  0.54650802445E+01  0.61423694540E+01  0.51100000000E-03 0.  1.
         12    1    3    3    0    0  0.98211731682E+01  0.18666588384E+02  0.16915811989E+02  0.27037782075E+02  0.00000000000E+00 0. -1.
</event>
<event>
 7    1  0.4452647E-009  0.4614232E+02  0.7816164E-02  0.1320468E+00
        -11   -1    0    0    0    0  0.00000000000E+00  0.00000000000E+00  0.45593999997E+02  0.45594000000E+02  0.51100000000E-03 0. -1.
         11   -1    0    0    0    0 -0.00000000000E+00 -0.00000000000E+00 -0.45593999997E+02  0.45594000000E+02  0.51100000000E-03 0.  1.
    9900012    2    1    2    0    0 -0.13128716695E+02 -0.12724356451E+02  0.41168445805E+02  0.46142318973E+02  0.10000011054E+02 0.  0.
        -12    1    1    2    0    0  0.13128716695E+02  0.12724356451E+02 -0.41168445805E+02  0.45045681027E+02  0.00000000000E+00 0.  1.
         11    1    3    3    0    0 -0.38704433531E+01 -0.78889834867E+01  0.17163595105E+02  0.19282255817E+02  0.51100000000E-03 0. -1.
        -11    1    3    3    0    0 -0.10073684132E+01  0.12807098065E+01  0.20260284667E+01  0.25999616030E+01  0.51100000000E-03 0.  1.
        -12    1    3    3    0    0 -0.82509049290E+01 -0.61160827708E+01  0.21978822234E+02  0.24260101554E+02  0.00000000000E+00 0.  1.
</event>
<event>
 7    1  0.4452647E-009  0.4614232E+02  0.7816164E-02  0.1320468E+00
        -11   -1    0    0    0    0  0.00000000000E+00  0.00000000000E+00  0.45593999997E+02  0.45594000000E+02  0.51100000000E-03 0. -1.
         11   -1    0    0    0    0 -0.00000000000E+00 -0.00000000000E+00 -0.45593999997E+02  0.45594000000E+02  0.51100000000E-03 0.  1.
    9900012    2    1    2    0    0  0.15283028259E+00 -0.34873212359E+02  0.28512268173E+02  0.46142315038E+02  0.99999751690E+01 0.  0.
        -12    1    1    2    0    0 -0.15283028259E+00  0.34873212359E+02 -0.28512268173E+02  0.45045684962E+02  0.00000000000E+00 0.  1.
         11    1    3    3    0    0 -0.21929622256E+01 -0.22457789056E+02  0.13533387597E+02  0.26311859545E+02  0.51100000000E-03 0. -1.
        -11    1    3    3    0    0  0.12874116797E+01 -0.54560292644E+01  0.44134410638E+01  0.71347141815E+01  0.51100000000E-03 0.  1.
         12    1    3    3    0    0  0.10583808284E+01 -0.69593940381E+01  0.10565439512E+02  0.12695741311E+02  0.00000000000E+00 0. -1.
</event>
<event>
 7    1  0.4452647E-009  0.4614232E+02  0.7816164E-02  0.1320468E+00
        -11   -1    0    0    0    0  0.00000000000E+00  0.00000000000E+00  0.45593999997E+02  0.45594000000E+02  0.51100000000E-03 0.  1.
         11   -1    0    0    0    0 -0.00000000000E+00 -0.00000000000E+00 -0.45593999997E+02  0.45594000000E+02  0.51100000000E-03 0. -1.
    9900012    2    1    2    0    0  0.36670676307E+02  0.26135368564E+02 -0.11478114691E+01  0.46142318054E+02  0.10000002674E+02 0.  0.
         12    1    1    2    0    0 -0.36670676307E+02 -0.26135368564E+02  0.11478114691E+01  0.45045681946E+02  0.00000000000E+00 0. -1.
         11    1    3    3    0    0  0.97340167804E+01  0.50328394290E+01 -0.37758600877E+01  0.11590413067E+02  0.51100000000E-03 0. -1.
        -11    1    3    3    0    0  0.54109145203E+01  0.37134212405E+01 -0.10168789697E+01  0.66408987611E+01  0.51100000000E-03 0.  1.
         12    1    3    3    0    0  0.21525745006E+02  0.17389107894E+02  0.36449275883E+01  0.27911006226E+02  0.00000000000E+00 0. -1.
</event>
<event>
 7    1  0.4452647E-009  0.4614232E+02  0.7816164E-02  0.1320468E+00
        -11   -1    0    0    0    0  0.00000000000E+00  0.00000000000E+00  0.45593999997E+02  0.45594000000E+02  0.51100000000E-03 0. -1.
         11   -1    0    0    0    0 -0.00000000000E+00 -0.00000000000E+00 -0.45593999997E+02  0.45594000000E+02  0.51100000000E-03 0.  1.
    9900012    2    1    2    0    0  0.42913744897E+01  0.18332235693E+02 -0.40922200089E+02  0.46142320733E+02  0.10000027101E+02 0.  0.
         12    1    1    2    0    0 -0.42913744897E+01 -0.18332235693E+02  0.40922200089E+02  0.45045679267E+02  0.00000000000E+00 0. -1.
         11    1    3    3    0    0 -0.48292967411E+00  0.52543107506E+01 -0.13098874935E+02  0.14121668718E+02  0.51100000000E-03 0.  1.
        -11    1    3    3    0    0 -0.15893069765E+01  0.43573686311E+01 -0.52941257705E+01  0.70384888995E+01  0.51100000000E-03 0. -1.
        -12    1    3    3    0    0  0.63636111403E+01  0.87205563116E+01 -0.22529199383E+02  0.24982163116E+02  0.00000000000E+00 0.  1.
</event>
<event>
 7    1  0.4452647E-009  0.4614232E+02  0.7816164E-02  0.1320468E+00
        -11   -1    0    0    0    0  0.00000000000E+00  0.00000000000E+00  0.45593999997E+02  0.45594000000E+02  0.51100000000E-03 0. -1.
         11   -1    0    0    0    0 -0.00000000000E+00 -0.00000000000E+00 -0.45593999997E+02  0.45594000000E+02  0.51100000000E-03 0.  1.
    9900012    2    1    2    0    0 -0.21260083405E+02 -0.15367039668E+00  0.39712704226E+02  0.46142316101E+02  0.99999848638E+01 0.  0.
        -12    1    1    2    0    0  0.21260083405E+02  0.15367039668E+00 -0.39712704226E+02  0.45045683899E+02  0.00000000000E+00 0.  1.
         11    1    3    3    0    0 -0.92394213684E+01  0.34227493139E+01  0.17141966910E+02  0.19771928331E+02  0.51100000000E-03 0. -1.
        -11    1    3    3    0    0 -0.36745013892E+01 -0.23737662587E+01  0.38075898240E+01  0.57995230182E+01  0.51100000000E-03 0.  1.
        -12    1    3    3    0    0 -0.83461606473E+01 -0.12026534519E+01  0.18763147492E+02  0.20570864753E+02  0.00000000000E+00 0.  1.
</event>
<event>
 7    1  0.4452647E-009  0.4614232E+02  0.7816164E-02  0.1320468E+00
        -11   -1    0    0    0    0  0.00000000000E+00  0.00000000000E+00  0.45593999997E+02  0.45594000000E+02  0.51100000000E-03 0. -1.
         11   -1    0    0    0    0 -0.00000000000E+00 -0.00000000000E+00 -0.45593999997E+02  0.45594000000E+02  0.51100000000E-03 0.  1.
    9900012    2    1    2    0    0  0.79667226598E+01 -0.34343698068E+02  0.28038460190E+02  0.46142317446E+02  0.99999971285E+01 0.  0.
        -12    1    1    2    0    0 -0.79667226598E+01  0.34343698068E+02 -0.28038460190E+02  0.45045682554E+02  0.00000000000E+00 0.  1.
         11    1    3    3    0    0  0.63636018759E-01 -0.47982784490E+01  0.32872991293E+01  0.58166881852E+01  0.51100000000E-03 0. -1.
        -11    1    3    3    0    0  0.11985291299E+01  0.10376812489E+00  0.13481436305E+00  0.12105432964E+01  0.51100000000E-03 0.  1.
        -12    1    3    3    0    0  0.67045575112E+01 -0.29649187744E+02  0.24616346698E+02  0.39115085965E+02  0.00000000000E+00 0.  1.
</event>
<event>
 7    1  0.4452647E-009  0.4614232E+02  0.7816164E-02  0.1320468E+00
        -11   -1    0    0    0    0  0.00000000000E+00  0.00000000000E+00  0.45593999997E+02  0.45594000000E+02  0.51100000000E-03 0. -1.
         11   -1    0    0    0    0 -0.00000000000E+00 -0.00000000000E+00 -0.45593999997E+02  0.45594000000E+02  0.51100000000E-03 0.  1.
    9900012    2    1    2    0    0  0.34792054867E+02 -0.14311998277E+00  0.28611288059E+02  0.46142319079E+02  0.10000012018E+02 0.  0.
        -12    1    1    2    0    0 -0.34792054867E+02  0.14311998277E+00 -0.28611288059E+02  0.45045680921E+02  0.00000000000E+00 0.  1.
         11    1    3    3    0    0  0.19807956238E+02 -0.16416881189E+01  0.19039911768E+02  0.27523962480E+02  0.51100000000E-03 0. -1.
        -11    1    3    3    0    0  0.67860852606E+01  0.33231434738E+01  0.41299980256E+01  0.86111044392E+01  0.51100000000E-03 0.  1.
         12    1    3    3    0    0  0.81980133689E+01 -0.18245753376E+01  0.54413782652E+01  0.10007252160E+02  0.00000000000E+00 0. -1.
</event>
<event>
 7    1  0.4452647E-009  0.4614232E+02  0.7816164E-02  0.1320468E+00
        -11   -1    0    0    0    0  0.00000000000E+00  0.00000000000E+00  0.45593999997E+02  0.45594000000E+02  0.51100000000E-03 0.  1.
         11   -1    0    0    0    0 -0.00000000000E+00 -0.00000000000E+00 -0.45593999997E+02  0.45594000000E+02  0.51100000000E-03 0. -1.
    9900012    2    1    2    0    0 -0.41995969719E+02 -0.10851337976E+02 -0.12153206217E+02  0.46142318411E+02  0.10000005924E+02 0.  0.
         12    1    1    2    0    0  0.41995969719E+02  0.10851337976E+02  0.12153206217E+02  0.45045681589E+02  0.00000000000E+00 0. -1.
         11    1    3    3    0    0 -0.18032758588E+02 -0.12215052775E+01 -0.41514854048E+01  0.18544737495E+02  0.51100000000E-03 0. -1.
        -11    1    3    3    0    0 -0.16368061069E+02 -0.47528221000E+01 -0.30913768929E+01  0.17322221348E+02  0.51100000000E-03 0.  1.
        -12    1    3    3    0    0 -0.75951500621E+01 -0.48770105982E+01 -0.49103439197E+01  0.10275359568E+02  0.00000000000E+00 0.  1.
</event>
<event>
 7    1  0.4452647E-009  0.4614232E+02  0.7816164E-02  0.1320468E+00
        -11   -1    0    0    0    0  0.00000000000E+00  0.00000000000E+00  0.45593999997E+02  0.45594000000E+02  0.51100000000E-03 0. -1.
         11   -1    0    0    0    0 -0.00000000000E+00 -0.00000000000E+00 -0.45593999997E+02  0.45594000000E+02  0.51100000000E-03 0.  1.
    9900012    2    1    2    0    0  0.24364369276E+02  0.48440157563E+01  0.37576941086E+02  0.46142317851E+02  0.10000000819E+02 0.  0.
        -12    1    1    2    0    0 -0.24364369276E+02 -0.48440157563E+01 -0.37576941086E+02  0.45045682149E+02  0.00000000000E+00 0.  1.
         11    1    3    3    0    0  0.19976977349E+01  0.18486446270E+01  0.24116619547E+01  0.36365363799E+01  0.51100000000E-03 0. -1.
        -11    1    3    3    0    0  0.17596677007E+02  0.60106002560E+00  0.31312705556E+02  0.35923388542E+02  0.51100000000E-03 0.  1.
        -12    1    3    3    0    0  0.47699945336E+01  0.23943111036E+01  0.38525735756E+01  0.65823929287E+01  0.00000000000E+00 0.  1.
</event>
<event>
 7    1  0.4452647E-009  0.4614232E+02  0.7816164E-02  0.1320468E+00
        -11   -1    0    0    0    0  0.00000000000E+00  0.00000000000E+00  0.45593999997E+02  0.45594000000E+02  0.51100000000E-03 0. -1.
         11   -1    0    0    0    0 -0.00000000000E+00 -0.00000000000E+00 -0.45593999997E+02  0.45594000000E+02  0.51100000000E-03 0.  1.
    9900012    2    1    2    0    0  0.42892447870E+02 -0.13747891295E+02 -0.58895205783E+00  0.46142318033E+02  0.10000002481E+02 0.  0.
         12    1    1    2    0    0 -0.42892447870E+02  0.13747891295E+02  0.58895205783E+00  0.45045681967E+02  0.00000000000E+00 0. -1.
         11    1    3    3    0    0  0.33155616812E+02 -0.97223046527E+01  0.30013744103E+01  0.34681787476E+02  0.51100000000E-03 0.  1.
        -11    1    3    3    0    0  0.80763075967E+01 -0.41187914770E+01 -0.22934677655E+01  0.93515336860E+01  0.51100000000E-03 0. -1.
        -12    1    3    3    0    0  0.16605234615E+01  0.93204835143E-01 -0.12968587026E+01  0.21089968710E+01  0.00000000000E+00 0.  1.
</event>
<event>
 7    1  0.4452647E-009  0.4614232E+02  0.7816164E-02  0.1320468E+00
        -11   -1    0    0    0    0  0.00000000000E+00  0.00000000000E+00  0.45593999997E+02  0.45594000000E+02  0.51100000000E-03 0. -1.
         11   -1    0    0    0    0 -0.00000000000E+00 -0.00000000000E+00 -0.45593999997E+02  0.45594000000E+02  0.51100000000E-03 0.  1.
    9900012    2    1    2    0    0 -0.12231450565E+02 -0.38264491118E+02 -0.20379740691E+02  0.46142317698E+02  0.99999994264E+01 0.  0.
         12    1    1    2    0    0  0.12231450565E+02  0.38264491118E+02  0.20379740691E+02  0.45045682302E+02  0.00000000000E+00 0. -1.
         11    1    3    3    0    0 -0.46260779486E+01 -0.25150630413E+02 -0.13719263022E+02  0.29020216840E+02  0.51100000000E-03 0. -1.
        -11    1    3    3    0    0 -0.75908208344E+01 -0.98877694148E+01 -0.59770281114E+01  0.13824377391E+02  0.51100000000E-03 0.  1.
         12    1    3    3    0    0 -0.14551781816E-01 -0.32260912902E+01 -0.68344955770E+00  0.32977234670E+01  0.00000000000E+00 0. -1.
</event>
<event>
 7    1  0.4452647E-009  0.4614232E+02  0.7816164E-02  0.1320468E+00
        -11   -1    0    0    0    0  0.00000000000E+00  0.00000000000E+00  0.45593999997E+02  0.45594000000E+02  0.51100000000E-03 0.  1.
         11   -1    0    0    0    0 -0.00000000000E+00 -0.00000000000E+00 -0.45593999997E+02  0.45594000000E+02  0.51100000000E-03 0. -1.
    9900012    2    1    2    0    0  0.29934037439E+02 -0.32806224561E+02  0.75378113855E+01  0.46142316878E+02  0.99999919512E+01 0.  0.
        -12    1    1    2    0    0 -0.29934037439E+02  0.32806224561E+02 -0.75378113855E+01  0.45045683122E+02  0.00000000000E+00 0.  1.
         11    1    3    3    0    0  0.18957746963E+01 -0.70363716224E+00  0.90675607431E+00  0.22161393897E+01  0.51100000000E-03 0. -1.
        -11    1    3    3    0    0  0.23526767375E+02 -0.27296385155E+02  0.85969260210E+01  0.37047382673E+02  0.51100000000E-03 0.  1.
        -12    1    3    3    0    0  0.45114953683E+01 -0.48062022440E+01 -0.19658707098E+01  0.68787948157E+01  0.00000000000E+00 0.  1.
</event>
<event>
 7    1  0.4452647E-009  0.4614232E+02  0.7816164E-02  0.1320468E+00
        -11   -1    0    0    0    0  0.00000000000E+00  0.00000000000E+00  0.45593999997E+02  0.45594000000E+02  0.51100000000E-03 0. -1.
         11   -1    0    0    0    0 -0.00000000000E+00 -0.00000000000E+00 -0.45593999997E+02  0.45594000000E+02  0.51100000000E-03 0.  1.
    9900012    2    1    2    0    0  0.14809192185E+02  0.10877576969E+02 -0.41127602091E+02  0.46142317547E+02  0.99999980499E+01 0.  0.
         12    1    1    2    0    0 -0.14809192185E+02 -0.10877576969E+02  0.41127602091E+02  0.45045682453E+02  0.00000000000E+00 0. -1.
         11    1    3    3    0    0  0.97258200647E+01  0.31614242504E+01 -0.25921940039E+02  0.27866344483E+02  0.51100000000E-03 0. -1.
        -11    1    3    3    0    0  0.52486378560E+01  0.51483829573E+01 -0.94647653895E+01  0.11984816668E+02  0.51100000000E-03 0.  1.
         12    1    3    3    0    0 -0.16526573616E+00  0.25677697615E+01 -0.57408966627E+01  0.62911563963E+01  0.00000000000E+00 0. -1.
</event>
<event>
 7    1  0.4452647E-009  0.4614231E+02  0.7816164E-02  0.1320468E+00
        -11   -1    0    0    0    0  0.00000000000E+00  0.00000000000E+00  0.45593999997E+02  0.45594000000E+02  0.51100000000E-03 0. -1.
         11   -1    0    0    0    0 -0.00000000000E+00 -0.00000000000E+00 -0.45593999997E+02  0.45594000000E+02  0.51100000000E-03 0.  1.
    9900012    2    1    2    0    0  0.28389202055E+02 -0.20159632905E+02 -0.28578955447E+02  0.46142308900E+02  0.99999191993E+01 0.  0.
         12    1    1    2    0    0 -0.28389202055E+02  0.20159632905E+02  0.28578955447E+02  0.45045691100E+02  0.00000000000E+00 0. -1.
         11    1    3    3    0    0  0.82723693643E+01 -0.10684347247E+01 -0.60861919096E+01  0.10325472381E+02  0.51100000000E-03 0. -1.
        -11    1    3    3    0    0  0.18414945286E+02 -0.17274397527E+02 -0.19369411567E+02  0.31822776820E+02  0.51100000000E-03 0.  1.
         12    1    3    3    0    0  0.17018874046E+01 -0.18168006528E+01 -0.31233519708E+01  0.39940596995E+01  0.00000000000E+00 0. -1.
</event>
<event>
 7    1  0.4452647E-009  0.4614232E+02  0.7816164E-02  0.1320468E+00
        -11   -1    0    0    0    0  0.00000000000E+00  0.00000000000E+00  0.45593999997E+02  0.45594000000E+02  0.51100000000E-03 0. -1.
         11   -1    0    0    0    0 -0.00000000000E+00 -0.00000000000E+00 -0.45593999997E+02  0.45594000000E+02  0.51100000000E-03 0.  1.
    9900012    2    1    2    0    0 -0.23097251626E+02  0.63681412045E+01  0.38145474923E+02  0.46142317497E+02  0.99999975935E+01 0.  0.
        -12    1    1    2    0    0  0.23097251626E+02 -0.63681412045E+01 -0.38145474923E+02  0.45045682503E+02  0.00000000000E+00 0.  1.
         11    1    3    3    0    0 -0.69685887317E+01 -0.21947030112E+01  0.11925132129E+02  0.13985232453E+02  0.51100000000E-03 0. -1.
        -11    1    3    3    0    0 -0.10067541608E+02  0.57380856437E+01  0.13541113657E+02  0.17822535740E+02  0.51100000000E-03 0.  1.
         12    1    3    3    0    0 -0.60611212864E+01  0.28247585720E+01  0.12679229137E+02  0.14334549304E+02  0.00000000000E+00 0. -1.
</event>
<event>
 7    1  0.4452647E-009  0.4614232E+02  0.7816164E-02  0.1320468E+00
        -11   -1    0    0    0    0  0.00000000000E+00  0.00000000000E+00  0.45593999997E+02  0.45594000000E+02  0.51100000000E-03 0. -1.
         11   -1    0    0    0    0 -0.00000000000E+00 -0.00000000000E+00 -0.45593999997E+02  0.45594000000E+02  0.51100000000E-03 0.  1.
    9900012    2    1    2    0    0  0.45388515353E+01 -0.17208217535E+02  0.41381028316E+02  0.46142318426E+02  0.10000006062E+02 0.  0.
        -12    1    1    2    0    0 -0.45388515353E+01  0.17208217535E+02 -0.41381028316E+02  0.45045681574E+02  0.00000000000E+00 0.  1.
         11    1    3    3    0    0  0.58313976425E+01 -0.77174564101E+01  0.14042158138E+02  0.17051291368E+02  0.51100000000E-03 0. -1.
        -11    1    3    3    0    0 -0.13275492703E+01 -0.60850829188E+01  0.13976037468E+02  0.15300988359E+02  0.51100000000E-03 0.  1.
        -12    1    3    3    0    0  0.35003162996E-01 -0.34056782063E+01  0.13362832710E+02  0.13790038698E+02  0.00000000000E+00 0.  1.
</event>
<event>
 7    1  0.4452647E-009  0.4614232E+02  0.7816164E-02  0.1320468E+00
        -11   -1    0    0    0    0  0.00000000000E+00  0.00000000000E+00  0.45593999997E+02  0.45594000000E+02  0.51100000000E-03 0. -1.
         11   -1    0    0    0    0 -0.00000000000E+00 -0.00000000000E+00 -0.45593999997E+02  0.45594000000E+02  0.51100000000E-03 0.  1.
    9900012    2    1    2    0    0  0.24390849608E+02 -0.27511885585E+02  0.26024912122E+02  0.46142318254E+02  0.10000004494E+02 0.  0.
        -12    1    1    2    0    0 -0.24390849608E+02  0.27511885585E+02 -0.26024912122E+02  0.45045681746E+02  0.00000000000E+00 0.  1.
         11    1    3    3    0    0  0.23880778104E+01 -0.80963644896E+00  0.40308072976E+01  0.47545593423E+01  0.51100000000E-03 0. -1.
        -11    1    3    3    0    0  0.50791491477E+01 -0.10338690680E+02  0.72844640624E+01  0.13629002090E+02  0.51100000000E-03 0.  1.
        -12    1    3    3    0    0  0.16923622650E+02 -0.16363558457E+02  0.14709640762E+02  0.27758756822E+02  0.00000000000E+00 0.  1.
</event>
<event>
 7    1  0.4452647E-009  0.4614232E+02  0.7816164E-02  0.1320468E+00
        -11   -1    0    0    0    0  0.00000000000E+00  0.00000000000E+00  0.45593999997E+02  0.45594000000E+02  0.51100000000E-03 0. -1.
         11   -1    0    0    0    0 -0.00000000000E+00 -0.00000000000E+00 -0.45593999997E+02  0.45594000000E+02  0.51100000000E-03 0.  1.
    9900012    2    1    2    0    0  0.21764845892E+02  0.31391370997E+02  0.23874395251E+02  0.46142318316E+02  0.10000005059E+02 0.  0.
        -12    1    1    2    0    0 -0.21764845892E+02 -0.31391370997E+02 -0.23874395251E+02  0.45045681684E+02  0.00000000000E+00 0.  1.
         11    1    3    3    0    0  0.15025768594E+02  0.19442953359E+02  0.15542527952E+02  0.29075287317E+02  0.51100000000E-03 0. -1.
        -11    1    3    3    0    0  0.19544555169E+01  0.60096789340E+01  0.68097721849E+01  0.92902709718E+01  0.51100000000E-03 0.  1.
         12    1    3    3    0    0  0.47846217814E+01  0.59387387042E+01  0.15220951143E+01  0.77767600275E+01  0.00000000000E+00 0. -1.
</event>
<event>
 7    1  0.4452647E-009  0.4614232E+02  0.7816164E-02  0.1320468E+00
        -11   -1    0    0    0    0  0.00000000000E+00  0.00000000000E+00  0.45593999997E+02  0.45594000000E+02  0.51100000000E-03 0. -1.
         11   -1    0    0    0    0 -0.00000000000E+00 -0.00000000000E+00 -0.45593999997E+02  0.45594000000E+02  0.51100000000E-03 0.  1.
    9900012    2    1    2    0    0 -0.26365075930E+02  0.18151511971E+02 -0.31694145440E+02  0.46142317957E+02  0.10000001782E+02 0.  0.
         12    1    1    2    0    0  0.26365075930E+02 -0.18151511971E+02  0.31694145440E+02  0.45045682043E+02  0.00000000000E+00 0. -1.
         11    1    3    3    0    0 -0.63851429480E+01  0.92078317790E+01 -0.12061170966E+02  0.16462869187E+02  0.51100000000E-03 0.  1.
        -11    1    3    3    0    0 -0.11008064948E+02  0.35245608236E+01 -0.82177974330E+01  0.14182109075E+02  0.51100000000E-03 0. -1.
        -12    1    3    3    0    0 -0.89718680331E+01  0.54191193686E+01 -0.11415177041E+02  0.15497339694E+02  0.00000000000E+00 0.  1.
</event>
<event>
 7    1  0.4452647E-009  0.4614232E+02  0.7816164E-02  0.1320468E+00
        -11   -1    0    0    0    0  0.00000000000E+00  0.00000000000E+00  0.45593999997E+02  0.45594000000E+02  0.51100000000E-03 0. -1.
         11   -1    0    0    0    0 -0.00000000000E+00 -0.00000000000E+00 -0.45593999997E+02  0.45594000000E+02  0.51100000000E-03 0.  1.
    9900012    2    1    2    0    0 -0.21210680799E+02  0.27747602236E+02  0.28448040458E+02  0.46142318568E+02  0.10000007356E+02 0.  0.
        -12    1    1    2    0    0  0.21210680799E+02 -0.27747602236E+02 -0.28448040458E+02  0.45045681432E+02  0.00000000000E+00 0.  1.
         11    1    3    3    0    0 -0.19204150964E+02  0.20777212154E+02  0.24024461466E+02  0.37116932903E+02  0.51100000000E-03 0. -1.
        -11    1    3    3    0    0  0.35511794321E+00  0.23122179157E+01  0.27476960056E+00  0.23554105880E+01  0.51100000000E-03 0.  1.
        -12    1    3    3    0    0 -0.23616477780E+01  0.46581721661E+01  0.41488093913E+01  0.66699750765E+01  0.00000000000E+00 0.  1.
</event>
<event>
 7    1  0.6138638E-009  0.4614232E+02  0.7816164E-02  0.1320468E+00
        -11   -1    0    0    0    0  0.00000000000E+00  0.00000000000E+00  0.45593999997E+02  0.45594000000E+02  0.51100000000E-03 0. -1.
         11   -1    0    0    0    0 -0.00000000000E+00 -0.00000000000E+00 -0.45593999997E+02  0.45594000000E+02  0.51100000000E-03 0.  1.
    9900012    2    1    2    0    0  0.22151964585E+02  0.11158820839E+00  0.39222334206E+02  0.46142317771E+02  0.10000000091E+02 0.  0.
        -12    1    1    2    0    0 -0.22151964585E+02 -0.11158820839E+00 -0.39222334206E+02  0.45045682229E+02  0.00000000000E+00 0.  1.
         11    1    3    3    0    0  0.61251346124E+01  0.29534818808E+01  0.73673330726E+01  0.10025862861E+02  0.51100000000E-03 0. -1.
        -11    1    3    3    0    0  0.46635275387E+01 -0.16525824126E+01  0.55374836832E+01  0.74258496846E+01  0.51100000000E-03 0.  1.
         12    1    3    3    0    0  0.11363302434E+02 -0.11893112599E+01  0.26317517450E+02  0.28690605226E+02  0.00000000000E+00 0. -1.
</event>
<event>
 7    1  0.4452647E-009  0.4614232E+02  0.7816164E-02  0.1320468E+00
        -11   -1    0    0    0    0  0.00000000000E+00  0.00000000000E+00  0.45593999997E+02  0.45594000000E+02  0.51100000000E-03 0. -1.
         11   -1    0    0    0    0 -0.00000000000E+00 -0.00000000000E+00 -0.45593999997E+02  0.45594000000E+02  0.51100000000E-03 0.  1.
    9900012    2    1    2    0    0 -0.80139243695E+01 -0.20558651710E+02  0.39271259035E+02  0.46142323957E+02  0.10000056501E+02 0.  0.
        -12    1    1    2    0    0  0.80139243695E+01  0.20558651710E+02 -0.39271259035E+02  0.45045676043E+02  0.00000000000E+00 0.  1.
         11    1    3    3    0    0 -0.18125920589E+01 -0.99578690828E+01  0.21056281747E+02  0.23362612181E+02  0.51100000000E-03 0.  1.
        -11    1    3    3    0    0 -0.44848179213E+01 -0.20341433763E+01  0.71345745946E+01  0.86691110254E+01  0.51100000000E-03 0. -1.
         12    1    3    3    0    0 -0.17165143894E+01 -0.85666392507E+01  0.11080402694E+02  0.14110600751E+02  0.00000000000E+00 0. -1.
</event>
<event>
 7    1  0.4452647E-009  0.4614232E+02  0.7816164E-02  0.1320468E+00
        -11   -1    0    0    0    0  0.00000000000E+00  0.00000000000E+00  0.45593999997E+02  0.45594000000E+02  0.51100000000E-03 0.  1.
         11   -1    0    0    0    0 -0.00000000000E+00 -0.00000000000E+00 -0.45593999997E+02  0.45594000000E+02  0.51100000000E-03 0. -1.
    9900012    2    1    2    0    0 -0.36351435452E+02  0.26400222149E+02 -0.32733693177E+01  0.46142317237E+02  0.99999952195E+01 0.  0.
        -12    1    1    2    0    0  0.36351435452E+02 -0.26400222149E+02  0.32733693177E+01  0.45045682763E+02  0.00000000000E+00 0.  1.
         11    1    3    3    0    0 -0.32186049500E+02  0.24166156589E+02 -0.38420777932E+01  0.40431503419E+02  0.51100000000E-03 0. -1.
        -11    1    3    3    0    0 -0.48106558165E+00 -0.67239155028E+00 -0.40109966578E+00  0.91892093988E+00  0.51100000000E-03 0.  1.
        -12    1    3    3    0    0 -0.36843203705E+01  0.29064571106E+01  0.96980814127E+00  0.47918928785E+01  0.00000000000E+00 0.  1.
</event>
<event>
 7    1  0.4452647E-009  0.4614232E+02  0.7816164E-02  0.1320468E+00
        -11   -1    0    0    0    0  0.00000000000E+00  0.00000000000E+00  0.45593999997E+02  0.45594000000E+02  0.51100000000E-03 0. -1.
         11   -1    0    0    0    0 -0.00000000000E+00 -0.00000000000E+00 -0.45593999997E+02  0.45594000000E+02  0.51100000000E-03 0.  1.
    9900012    2    1    2    0    0  0.29996115356E+02 -0.14758977158E+02  0.30191376017E+02  0.46142317310E+02  0.99999958884E+01 0.  0.
        -12    1    1    2    0    0 -0.29996115356E+02  0.14758977158E+02 -0.30191376017E+02  0.45045682690E+02  0.00000000000E+00 0.  1.
         11    1    3    3    0    0  0.25614797946E+02 -0.11917830800E+02  0.24277546466E+02  0.37249856745E+02  0.51100000000E-03 0. -1.
        -11    1    3    3    0    0  0.27487983768E+01 -0.84821423843E-02  0.46208841858E+01  0.53766658240E+01  0.51100000000E-03 0.  1.
         12    1    3    3    0    0  0.16325190331E+01 -0.28326642152E+01  0.12929453648E+01  0.35157947418E+01  0.00000000000E+00 0. -1.
</event>
<event>
 7    1  0.4452647E-009  0.4614232E+02  0.7816164E-02  0.1320468E+00
        -11   -1    0    0    0    0  0.00000000000E+00  0.00000000000E+00  0.45593999997E+02  0.45594000000E+02  0.51100000000E-03 0. -1.
         11   -1    0    0    0    0 -0.00000000000E+00 -0.00000000000E+00 -0.45593999997E+02  0.45594000000E+02  0.51100000000E-03 0.  1.
    9900012    2    1    2    0    0 -0.18738008854E+02  0.19300230467E+02 -0.36131725361E+02  0.46142318194E+02  0.10000003945E+02 0.  0.
         12    1    1    2    0    0  0.18738008854E+02 -0.19300230467E+02  0.36131725361E+02  0.45045681806E+02  0.00000000000E+00 0. -1.
         11    1    3    3    0    0 -0.10006659640E+02  0.44306890620E+01 -0.12819785656E+02  0.16855596911E+02  0.51100000000E-03 0. -1.
        -11    1    3    3    0    0 -0.15179320889E+01  0.66042464435E+00 -0.34156643755E+01  0.37956609339E+01  0.51100000000E-03 0.  1.
         12    1    3    3    0    0 -0.72134171250E+01  0.14209116760E+02 -0.19896275329E+02  0.25491060348E+02  0.00000000000E+00 0. -1.
</event>
<event>
 7    1  0.4452647E-009  0.4614232E+02  0.7816164E-02  0.1320468E+00
        -11   -1    0    0    0    0  0.00000000000E+00  0.00000000000E+00  0.45593999997E+02  0.45594000000E+02  0.51100000000E-03 0. -1.
         11   -1    0    0    0    0 -0.00000000000E+00 -0.00000000000E+00 -0.45593999997E+02  0.45594000000E+02  0.51100000000E-03 0.  1.
    9900012    2    1    2    0    0 -0.67387746784E+01  0.10080200579E+02 -0.43383084896E+02  0.46142316711E+02  0.99999904274E+01 0.  0.
         12    1    1    2    0    0  0.67387746784E+01 -0.10080200579E+02  0.43383084896E+02  0.45045683289E+02  0.00000000000E+00 0. -1.
         11    1    3    3    0    0 -0.42116284660E+01  0.60081205684E+00 -0.11294893974E+02  0.12069524415E+02  0.51100000000E-03 0. -1.
        -11    1    3    3    0    0 -0.32721247163E+00  0.27636837756E+01 -0.18962280888E+02  0.19165414494E+02  0.51100000000E-03 0.  1.
         12    1    3    3    0    0 -0.21999337408E+01  0.67157047468E+01 -0.13125910034E+02  0.14907377802E+02  0.00000000000E+00 0. -1.
</event>
<event>
 7    1  0.4452647E-009  0.4614231E+02  0.7816164E-02  0.1320468E+00
        -11   -1    0    0    0    0  0.00000000000E+00  0.00000000000E+00  0.45593999997E+02  0.45594000000E+02  0.51100000000E-03 0. -1.
         11   -1    0    0    0    0 -0.00000000000E+00 -0.00000000000E+00 -0.45593999997E+02  0.45594000000E+02  0.51100000000E-03 0.  1.
    9900012    2    1    2    0    0  0.18626230247E+00  0.30791190608E+02 -0.32878290776E+02  0.46142310782E+02  0.99999363598E+01 0.  0.
         12    1    1    2    0    0 -0.18626230247E+00 -0.30791190608E+02  0.32878290776E+02  0.45045689218E+02  0.00000000000E+00 0. -1.
         11    1    3    3    0    0  0.25288979780E+01  0.20746446400E+01 -0.21494062245E+01  0.39140034165E+01  0.51100000000E-03 0. -1.
        -11    1    3    3    0    0 -0.22188067391E+01  0.25790270737E+02 -0.28789194922E+02  0.38715357580E+02  0.51100000000E-03 0.  1.
        -12    1    3    3    0    0 -0.12382893646E+00  0.29262752311E+01 -0.19396896301E+01  0.35129497854E+01  0.00000000000E+00 0.  1.
</event>
<event>
 7    1  0.4452647E-009  0.4614232E+02  0.7816164E-02  0.1320468E+00
        -11   -1    0    0    0    0  0.00000000000E+00  0.00000000000E+00  0.45593999997E+02  0.45594000000E+02  0.51100000000E-03 0. -1.
         11   -1    0    0    0    0 -0.00000000000E+00 -0.00000000000E+00 -0.45593999997E+02  0.45594000000E+02  0.51100000000E-03 0.  1.
    9900012    2    1    2    0    0 -0.14272274352E+02  0.10957597679E+02  0.41295843917E+02  0.46142317778E+02  0.10000000150E+02 0.  0.
        -12    1    1    2    0    0  0.14272274352E+02 -0.10957597679E+02 -0.41295843917E+02  0.45045682222E+02  0.00000000000E+00 0.  1.
         11    1    3    3    0    0 -0.45783245268E+01  0.11318146259E+01  0.16281464164E+02  0.16950756190E+02  0.51100000000E-03 0. -1.
        -11    1    3    3    0    0 -0.45952519129E+01  0.89869960194E+00  0.93155088342E+01  0.10426058997E+02  0.51100000000E-03 0.  1.
         12    1    3    3    0    0 -0.50986979127E+01  0.89270834508E+01  0.15698870919E+02  0.18765502590E+02  0.00000000000E+00 0. -1.
</event>
<event>
 7    1  0.5850317E-009  0.4614232E+02  0.7816164E-02  0.1320468E+00
        -11   -1    0    0    0    0  0.00000000000E+00  0.00000000000E+00  0.45593999997E+02  0.45594000000E+02  0.51100000000E-03 0.  1.
         11   -1    0    0    0    0 -0.00000000000E+00 -0.00000000000E+00 -0.45593999997E+02  0.45594000000E+02  0.51100000000E-03 0. -1.
    9900012    2    1    2    0    0 -0.33471621480E+02  0.18028542166E+02  0.24160624238E+02  0.46142317180E+02  0.99999947011E+01 0.  0.
        -12    1    1    2    0    0  0.33471621480E+02 -0.18028542166E+02 -0.24160624238E+02  0.45045682820E+02  0.00000000000E+00 0.  1.
         11    1    3    3    0    0 -0.68044204153E+01  0.81003591516E+00  0.16475635161E+01  0.70477486598E+01  0.51100000000E-03 0. -1.
        -11    1    3    3    0    0 -0.82990042208E+01  0.71977290622E+01  0.88249285762E+01  0.14091136907E+02  0.51100000000E-03 0.  1.
         12    1    3    3    0    0 -0.18368196844E+02  0.10020777189E+02  0.13688132146E+02  0.25003431613E+02  0.00000000000E+00 0. -1.
</event>
<event>
 7    1  0.4452647E-009  0.4614231E+02  0.7816164E-02  0.1320468E+00
        -11   -1    0    0    0    0  0.00000000000E+00  0.00000000000E+00  0.45593999997E+02  0.45594000000E+02  0.51100000000E-03 0. -1.
         11   -1    0    0    0    0 -0.00000000000E+00 -0.00000000000E+00 -0.45593999997E+02  0.45594000000E+02  0.51100000000E-03 0.  1.
    9900012    2    1    2    0    0  0.22568722532E+02  0.79684085025E+01 -0.38161122860E+02  0.46142311319E+02  0.99999412532E+01 0.  0.
         12    1    1    2    0    0 -0.22568722532E+02 -0.79684085025E+01  0.38161122860E+02  0.45045688681E+02  0.00000000000E+00 0. -1.
         11    1    3    3    0    0  0.50986314021E+01  0.44775909596E+01 -0.13922561245E+02  0.15488143041E+02  0.51100000000E-03 0. -1.
        -11    1    3    3    0    0  0.10073394522E+02  0.27368926042E+00 -0.94808600116E+01  0.13835999777E+02  0.51100000000E-03 0.  1.
        -12    1    3    3    0    0  0.73966966088E+01  0.32171282825E+01 -0.14757701603E+02  0.16818168501E+02  0.00000000000E+00 0.  1.
</event>
<event>
 7    1  0.4452647E-009  0.4614232E+02  0.7816164E-02  0.1320468E+00
        -11   -1    0    0    0    0  0.00000000000E+00  0.00000000000E+00  0.45593999997E+02  0.45594000000E+02  0.51100000000E-03 0. -1.
         11   -1    0    0    0    0 -0.00000000000E+00 -0.00000000000E+00 -0.45593999997E+02  0.45594000000E+02  0.51100000000E-03 0.  1.
    9900012    2    1    2    0    0  0.34159560431E+02 -0.28961534093E+02 -0.48443124351E+01  0.46142318866E+02  0.10000010079E+02 0.  0.
         12    1    1    2    0    0 -0.34159560431E+02  0.28961534093E+02  0.48443124351E+01  0.45045681134E+02  0.00000000000E+00 0. -1.
         11    1    3    3    0    0  0.16470906667E+01 -0.65053454854E+00  0.98744960505E+00  0.20275995282E+01  0.51100000000E-03 0.  1.
        -11    1    3    3    0    0  0.66379470819E-01  0.37834102982E+00  0.10673084667E+00  0.39867267745E+00  0.51100000000E-03 0. -1.
        -12    1    3    3    0    0  0.32446090293E+02 -0.28689340574E+02 -0.59384928868E+01  0.43716046661E+02  0.00000000000E+00 0.  1.
</event>
<event>
 7    1  0.4452647E-009  0.4614232E+02  0.7816164E-02  0.1320468E+00
        -11   -1    0    0    0    0  0.00000000000E+00  0.00000000000E+00  0.45593999997E+02  0.45594000000E+02  0.51100000000E-03 0. -1.
         11   -1    0    0    0    0 -0.00000000000E+00 -0.00000000000E+00 -0.45593999997E+02  0.45594000000E+02  0.51100000000E-03 0.  1.
    9900012    2    1    2    0    0 -0.13651012987E+02  0.11947870466E+02 -0.41231199553E+02  0.46142316735E+02  0.99999906418E+01 0.  0.
         12    1    1    2    0    0  0.13651012987E+02 -0.11947870466E+02  0.41231199553E+02  0.45045683265E+02  0.00000000000E+00 0. -1.
         11    1    3    3    0    0  0.25723934026E+00 -0.69088961492E+00 -0.25335975599E+01  0.26386772055E+01  0.51100000000E-03 0. -1.
        -11    1    3    3    0    0 -0.39203241432E+01  0.76203400764E+01 -0.14375911479E+02  0.16736348329E+02  0.51100000000E-03 0.  1.
        -12    1    3    3    0    0 -0.99879281843E+01  0.50184200041E+01 -0.24321690514E+02  0.26767291200E+02  0.00000000000E+00 0.  1.
</event>
<event>
 7    1  0.4452647E-009  0.4614232E+02  0.7816164E-02  0.1320468E+00
        -11   -1    0    0    0    0  0.00000000000E+00  0.00000000000E+00  0.45593999997E+02  0.45594000000E+02  0.51100000000E-03 0.  1.
         11   -1    0    0    0    0 -0.00000000000E+00 -0.00000000000E+00 -0.45593999997E+02  0.45594000000E+02  0.51100000000E-03 0. -1.
    9900012    2    1    2    0    0 -0.35703511391E+02  0.21493321406E+02  0.17099996878E+02  0.46142317810E+02  0.10000000444E+02 0.  0.
         12    1    1    2    0    0  0.35703511391E+02 -0.21493321406E+02 -0.17099996878E+02  0.45045682190E+02  0.00000000000E+00 0. -1.
         11    1    3    3    0    0 -0.16236262148E+02  0.11872747726E+02  0.92482193298E+01  0.22138380884E+02  0.51100000000E-03 0. -1.
        -11    1    3    3    0    0 -0.12976792323E+02  0.91870105274E+01  0.72396281322E+01  0.17470275246E+02  0.51100000000E-03 0.  1.
        -12    1    3    3    0    0 -0.64904569204E+01  0.43356315268E+00  0.61214941620E+00  0.65336616801E+01  0.00000000000E+00 0.  1.
</event>
<event>
 7    1  0.4452647E-009  0.4614231E+02  0.7816164E-02  0.1320468E+00
        -11   -1    0    0    0    0  0.00000000000E+00  0.00000000000E+00  0.45593999997E+02  0.45594000000E+02  0.51100000000E-03 0.  1.
         11   -1    0    0    0    0 -0.00000000000E+00 -0.00000000000E+00 -0.45593999997E+02  0.45594000000E+02  0.51100000000E-03 0. -1.
    9900012    2    1    2    0    0  0.43209971727E+02  0.11796737862E+01  0.12673621289E+02  0.46142312488E+02  0.99999519136E+01 0.  0.
         12    1    1    2    0    0 -0.43209971727E+02 -0.11796737862E+01 -0.12673621289E+02  0.45045687512E+02  0.00000000000E+00 0. -1.
         11    1    3    3    0    0  0.59935854403E+01  0.23542109123E+01 -0.74944157908E+00  0.64828264199E+01  0.51100000000E-03 0. -1.
        -11    1    3    3    0    0  0.15879302292E+02  0.56432779119E-01  0.45516747383E+01  0.16518873119E+02  0.51100000000E-03 0.  1.
         12    1    3    3    0    0  0.21337083994E+02 -0.12309699053E+01  0.88713881297E+01  0.23140612949E+02  0.00000000000E+00 0. -1.
</event>
<event>
 7    1  0.6676083E-009  0.4614232E+02  0.7816164E-02  0.1320468E+00
        -11   -1    0    0    0    0  0.00000000000E+00  0.00000000000E+00  0.45593999997E+02  0.45594000000E+02  0.51100000000E-03 0. -1.
         11   -1    0    0    0    0 -0.00000000000E+00 -0.00000000000E+00 -0.45593999997E+02  0.45594000000E+02  0.51100000000E-03 0.  1.
    9900012    2    1    2    0    0  0.30194411099E+02 -0.51908587390E+01  0.33022204832E+02  0.46142317765E+02  0.10000000032E+02 0.  0.
        -12    1    1    2    0    0 -0.30194411099E+02  0.51908587390E+01 -0.33022204832E+02  0.45045682235E+02  0.00000000000E+00 0.  1.
         11    1    3    3    0    0  0.20856406533E+02 -0.59195924849E+01  0.19131738759E+02  0.28914610440E+02  0.51100000000E-03 0. -1.
        -11    1    3    3    0    0  0.97055847894E-01  0.23893668564E+00 -0.22969124779E+00  0.34535330864E+00  0.51100000000E-03 0.  1.
         12    1    3    3    0    0  0.92409487178E+01  0.48979706024E+00  0.14120157321E+02  0.16882354016E+02  0.00000000000E+00 0. -1.
</event>
<event>
 7    1  0.4452647E-009  0.4614232E+02  0.7816164E-02  0.1320468E+00
        -11   -1    0    0    0    0  0.00000000000E+00  0.00000000000E+00  0.45593999997E+02  0.45594000000E+02  0.51100000000E-03 0. -1.
         11   -1    0    0    0    0 -0.00000000000E+00 -0.00000000000E+00 -0.45593999997E+02  0.45594000000E+02  0.51100000000E-03 0.  1.
    9900012    2    1    2    0    0 -0.20177673749E+02  0.36542226717E+02 -0.16930464247E+02  0.46142317954E+02  0.10000001758E+02 0.  0.
         12    1    1    2    0    0  0.20177673749E+02 -0.36542226717E+02  0.16930464247E+02  0.45045682046E+02  0.00000000000E+00 0. -1.
         11    1    3    3    0    0 -0.45542164835E+01  0.11574056892E+02 -0.30441687886E+01  0.12804946098E+02  0.51100000000E-03 0. -1.
        -11    1    3    3    0    0 -0.55520628478E+01  0.48263169865E+01 -0.59459061832E+01  0.94589924474E+01  0.51100000000E-03 0.  1.
        -12    1    3    3    0    0 -0.10071394418E+02  0.20141852839E+02 -0.79403892750E+01  0.23878379408E+02  0.00000000000E+00 0.  1.
</event>
<event>
 7    1  0.4452647E-009  0.4614232E+02  0.7816164E-02  0.1320468E+00
        -11   -1    0    0    0    0  0.00000000000E+00  0.00000000000E+00  0.45593999997E+02  0.45594000000E+02  0.51100000000E-03 0. -1.
         11   -1    0    0    0    0 -0.00000000000E+00 -0.00000000000E+00 -0.45593999997E+02  0.45594000000E+02  0.51100000000E-03 0.  1.
    9900012    2    1    2    0    0 -0.41823339119E+01 -0.10599311509E+02 -0.43580685309E+02  0.46142318149E+02  0.10000003535E+02 0.  0.
         12    1    1    2    0    0  0.41823339119E+01  0.10599311509E+02  0.43580685309E+02  0.45045681851E+02  0.00000000000E+00 0. -1.
         11    1    3    3    0    0 -0.30673234803E-02  0.38823997791E+00 -0.13052858765E+02  0.13058631701E+02  0.51100000000E-03 0. -1.
        -11    1    3    3    0    0 -0.32404368835E+01 -0.65303460612E+01 -0.12325178444E+02  0.14319772163E+02  0.51100000000E-03 0.  1.
         12    1    3    3    0    0 -0.93882970498E+00 -0.44572054262E+01 -0.18202648100E+02  0.18763914285E+02  0.00000000000E+00 0. -1.
</event>
<event>
 7    1  0.4452647E-009  0.4614232E+02  0.7816164E-02  0.1320468E+00
        -11   -1    0    0    0    0  0.00000000000E+00  0.00000000000E+00  0.45593999997E+02  0.45594000000E+02  0.51100000000E-03 0. -1.
         11   -1    0    0    0    0 -0.00000000000E+00 -0.00000000000E+00 -0.45593999997E+02  0.45594000000E+02  0.51100000000E-03 0.  1.
    9900012    2    1    2    0    0  0.27969256234E+02 -0.27477307120E+02 -0.22177280552E+02  0.46142317925E+02  0.10000001498E+02 0.  0.
         12    1    1    2    0    0 -0.27969256234E+02  0.27477307120E+02  0.22177280552E+02  0.45045682075E+02  0.00000000000E+00 0. -1.
         11    1    3    3    0    0  0.18263746694E+02 -0.17423496859E+02 -0.16231016713E+02  0.30009808228E+02  0.51100000000E-03 0. -1.
        -11    1    3    3    0    0  0.64363991689E+01 -0.80074379594E+01 -0.66138244946E+01  0.12218386622E+02  0.51100000000E-03 0.  1.
         12    1    3    3    0    0  0.32691103719E+01 -0.20463723024E+01  0.66756065562E+00  0.39141230759E+01  0.00000000000E+00 0. -1.
</event>
<event>
 7    1  0.5036580E-009  0.4614232E+02  0.7816164E-02  0.1320468E+00
        -11   -1    0    0    0    0  0.00000000000E+00  0.00000000000E+00  0.45593999997E+02  0.45594000000E+02  0.51100000000E-03 0. -1.
         11   -1    0    0    0    0 -0.00000000000E+00 -0.00000000000E+00 -0.45593999997E+02  0.45594000000E+02  0.51100000000E-03 0.  1.
    9900012    2    1    2    0    0  0.21697102988E+02 -0.13642943612E+02  0.37043480104E+02  0.46142316448E+02  0.99999880262E+01 0.  0.
        -12    1    1    2    0    0 -0.21697102988E+02  0.13642943612E+02 -0.37043480104E+02  0.45045683552E+02  0.00000000000E+00 0.  1.
         11    1    3    3    0    0  0.98781927258E+01 -0.52801652054E+01  0.20741306629E+02  0.23572455049E+02  0.51100000000E-03 0. -1.
        -11    1    3    3    0    0  0.66186777747E+00  0.86652828400E+00  0.15857084983E+01  0.19244250893E+01  0.51100000000E-03 0.  1.
         12    1    3    3    0    0  0.11157042484E+02 -0.92293066906E+01  0.14716464977E+02  0.20645436309E+02  0.00000000000E+00 0. -1.
</event>
<event>
 7    1  0.4452647E-009  0.4614232E+02  0.7816164E-02  0.1320468E+00
        -11   -1    0    0    0    0  0.00000000000E+00  0.00000000000E+00  0.45593999997E+02  0.45594000000E+02  0.51100000000E-03 0. -1.
         11   -1    0    0    0    0 -0.00000000000E+00 -0.00000000000E+00 -0.45593999997E+02  0.45594000000E+02  0.51100000000E-03 0.  1.
    9900012    2    1    2    0    0  0.31086378010E+02  0.28842107218E+02  0.15194847322E+02  0.46142318390E+02  0.10000005734E+02 0.  0.
        -12    1    1    2    0    0 -0.31086378010E+02 -0.28842107218E+02 -0.15194847322E+02  0.45045681610E+02  0.00000000000E+00 0.  1.
         11    1    3    3    0    0  0.17531313147E+02  0.11414811746E+02  0.47395319296E+01  0.21450128928E+02  0.51100000000E-03 0. -1.
        -11    1    3    3    0    0  0.12489465772E+02  0.16748567690E+02  0.89552875172E+01  0.22731001951E+02  0.51100000000E-03 0.  1.
         12    1    3    3    0    0  0.10655990906E+01  0.67872778266E+00  0.15000278754E+01  0.19611875106E+01  0.00000000000E+00 0. -1.
</event>
<event>
 7    1  0.4452647E-009  0.4614232E+02  0.7816164E-02  0.1320468E+00
        -11   -1    0    0    0    0  0.00000000000E+00  0.00000000000E+00  0.45593999997E+02  0.45594000000E+02  0.51100000000E-03 0. -1.
         11   -1    0    0    0    0 -0.00000000000E+00 -0.00000000000E+00 -0.45593999997E+02  0.45594000000E+02  0.51100000000E-03 0.  1.
    9900012    2    1    2    0    0  0.12505509857E+01 -0.34474281304E+02  0.28966767321E+02  0.46142316986E+02  0.99999929277E+01 0.  0.
        -12    1    1    2    0    0 -0.12505509857E+01  0.34474281304E+02 -0.28966767321E+02  0.45045683014E+02  0.00000000000E+00 0.  1.
         11    1    3    3    0    0 -0.23736739930E+01 -0.21684486635E+02  0.17056615363E+02  0.27690782162E+02  0.51100000000E-03 0. -1.
        -11    1    3    3    0    0  0.33547324040E+01 -0.40400371305E+01  0.54790961578E+01  0.75892439996E+01  0.51100000000E-03 0.  1.
        -12    1    3    3    0    0  0.26949257462E+00 -0.87497575390E+01  0.64310557997E+01  0.10862290824E+02  0.00000000000E+00 0.  1.
</event>
<event>
 7    1  0.4452647E-009  0.4614232E+02  0.7816164E-02  0.1320468E+00
        -11   -1    0    0    0    0  0.00000000000E+00  0.00000000000E+00  0.45593999997E+02  0.45594000000E+02  0.51100000000E-03 0. -1.
         11   -1    0    0    0    0 -0.00000000000E+00 -0.00000000000E+00 -0.45593999997E+02  0.45594000000E+02  0.51100000000E-03 0.  1.
    9900012    2    1    2    0    0  0.31722368084E+01  0.44712107550E+02 -0.44584665414E+01  0.46142316835E+02  0.99999915548E+01 0.  0.
        -12    1    1    2    0    0 -0.31722368084E+01 -0.44712107550E+02  0.44584665414E+01  0.45045683165E+02  0.00000000000E+00 0.  1.
         11    1    3    3    0    0 -0.15826469290E+01  0.12037655648E+02 -0.27482757971E+01  0.12448411341E+02  0.51100000000E-03 0. -1.
        -11    1    3    3    0    0  0.50344526437E+01  0.12549008175E+02 -0.86151803496E+00  0.13548635842E+02  0.51100000000E-03 0.  1.
        -12    1    3    3    0    0 -0.27956890625E+00  0.20125443727E+02 -0.84867270935E+00  0.20145269652E+02  0.00000000000E+00 0.  1.
</event>
<event>
 7    1  0.4452647E-009  0.4614232E+02  0.7816164E-02  0.1320468E+00
        -11   -1    0    0    0    0  0.00000000000E+00  0.00000000000E+00  0.45593999997E+02  0.45594000000E+02  0.51100000000E-03 0. -1.
         11   -1    0    0    0    0 -0.00000000000E+00 -0.00000000000E+00 -0.45593999997E+02  0.45594000000E+02  0.51100000000E-03 0.  1.
    9900012    2    1    2    0    0  0.58724586228E+01  0.30708927437E+02  0.32428220601E+02  0.46142317788E+02  0.10000000243E+02 0.  0.
        -12    1    1    2    0    0 -0.58724586228E+01 -0.30708927437E+02 -0.32428220601E+02  0.45045682212E+02  0.00000000000E+00 0.  1.
         11    1    3    3    0    0  0.26085787131E+01  0.16929319932E+02  0.12421900803E+02  0.21159162934E+02  0.51100000000E-03 0. -1.
        -11    1    3    3    0    0 -0.45473385479E+00  0.55668774321E+01  0.51050512357E+01  0.75669317166E+01  0.51100000000E-03 0.  1.
         12    1    3    3    0    0  0.37186137645E+01  0.82127300732E+01  0.14901268563E+02  0.17416223137E+02  0.00000000000E+00 0. -1.
</event>
<event>
 7    1  0.4452647E-009  0.4614232E+02  0.7816164E-02  0.1320468E+00
        -11   -1    0    0    0    0  0.00000000000E+00  0.00000000000E+00  0.45593999997E+02  0.45594000000E+02  0.51100000000E-03 0. -1.
         11   -1    0    0    0    0 -0.00000000000E+00 -0.00000000000E+00 -0.45593999997E+02  0.45594000000E+02  0.51100000000E-03 0.  1.
    9900012    2    1    2    0    0  0.11336340426E+02  0.91985560574E+01 -0.42614404568E+02  0.46142317360E+02  0.99999963409E+01 0.  0.
         12    1    1    2    0    0 -0.11336340426E+02 -0.91985560574E+01  0.42614404568E+02  0.45045682640E+02  0.00000000000E+00 0. -1.
         11    1    3    3    0    0  0.10808146569E+02  0.65301046574E+01 -0.34380884376E+02  0.36626541058E+02  0.51100000000E-03 0. -1.
        -11    1    3    3    0    0  0.15396871804E+01  0.24295431034E+01 -0.79262101313E+01  0.84319703279E+01  0.51100000000E-03 0.  1.
         12    1    3    3    0    0 -0.10114933228E+01  0.23890829664E+00 -0.30731006064E+00  0.10838059742E+01  0.00000000000E+00 0. -1.
</event>
<event>
 7    1  0.4452647E-009  0.4614232E+02  0.7816164E-02  0.1320468E+00
        -11   -1    0    0    0    0  0.00000000000E+00  0.00000000000E+00  0.45593999997E+02  0.45594000000E+02  0.51100000000E-03 0. -1.
         11   -1    0    0    0    0 -0.00000000000E+00 -0.00000000000E+00 -0.45593999997E+02  0.45594000000E+02  0.51100000000E-03 0.  1.
    9900012    2    1    2    0    0 -0.20250296335E+02  0.23120779854E+02 -0.32931268894E+02  0.46142318368E+02  0.10000005531E+02 0.  0.
         12    1    1    2    0    0  0.20250296335E+02 -0.23120779854E+02  0.32931268894E+02  0.45045681632E+02  0.00000000000E+00 0. -1.
         11    1    3    3    0    0 -0.43580332711E+01  0.20896296843E+01 -0.93133140323E+01  0.10492703404E+02  0.51100000000E-03 0. -1.
        -11    1    3    3    0    0 -0.65366560715E+01  0.11085715972E+02 -0.13529711188E+02  0.18672815971E+02  0.51100000000E-03 0.  1.
         12    1    3    3    0    0 -0.93556069927E+01  0.99454341979E+01 -0.10088243675E+02  0.16976798992E+02  0.00000000000E+00 0. -1.
</event>
<event>
 7    1  0.4452647E-009  0.4614232E+02  0.7816164E-02  0.1320468E+00
        -11   -1    0    0    0    0  0.00000000000E+00  0.00000000000E+00  0.45593999997E+02  0.45594000000E+02  0.51100000000E-03 0. -1.
         11   -1    0    0    0    0 -0.00000000000E+00 -0.00000000000E+00 -0.45593999997E+02  0.45594000000E+02  0.51100000000E-03 0.  1.
    9900012    2    1    2    0    0 -0.32175982711E+02  0.16117891997E+02  0.27093047106E+02  0.46142317550E+02  0.99999980793E+01 0.  0.
        -12    1    1    2    0    0  0.32175982711E+02 -0.16117891997E+02 -0.27093047106E+02  0.45045682450E+02  0.00000000000E+00 0.  1.
         11    1    3    3    0    0 -0.80224176018E+01  0.66689397221E+01  0.11141103904E+02  0.15262966214E+02  0.51100000000E-03 0. -1.
        -11    1    3    3    0    0 -0.53964095775E+01  0.20813725527E+01  0.62422818197E+01  0.85099606702E+01  0.51100000000E-03 0.  1.
         12    1    3    3    0    0 -0.18757155532E+02  0.73675797222E+01  0.97096613821E+01  0.22369390666E+02  0.00000000000E+00 0. -1.
</event>
<event>
 7    1  0.4452647E-009  0.4614232E+02  0.7816164E-02  0.1320468E+00
        -11   -1    0    0    0    0  0.00000000000E+00  0.00000000000E+00  0.45593999997E+02  0.45594000000E+02  0.51100000000E-03 0. -1.
         11   -1    0    0    0    0 -0.00000000000E+00 -0.00000000000E+00 -0.45593999997E+02  0.45594000000E+02  0.51100000000E-03 0.  1.
    9900012    2    1    2    0    0  0.54069206538E+01 -0.30997100722E+02  0.32234430883E+02  0.46142316761E+02  0.99999908823E+01 0.  0.
        -12    1    1    2    0    0 -0.54069206538E+01  0.30997100722E+02 -0.32234430883E+02  0.45045683239E+02  0.00000000000E+00 0.  1.
         11    1    3    3    0    0  0.52606785812E+01 -0.18102750717E+02  0.23262359697E+02  0.29941972239E+02  0.51100000000E-03 0. -1.
        -11    1    3    3    0    0  0.42609225492E+00 -0.40111588740E+01  0.51091172220E+01  0.65095337138E+01  0.51100000000E-03 0.  1.
         12    1    3    3    0    0 -0.27985018228E+00 -0.88831911310E+01  0.38629539642E+01  0.96908108084E+01  0.00000000000E+00 0. -1.
</event>
<event>
 7    1  0.4452647E-009  0.4614232E+02  0.7816164E-02  0.1320468E+00
        -11   -1    0    0    0    0  0.00000000000E+00  0.00000000000E+00  0.45593999997E+02  0.45594000000E+02  0.51100000000E-03 0. -1.
         11   -1    0    0    0    0 -0.00000000000E+00 -0.00000000000E+00 -0.45593999997E+02  0.45594000000E+02  0.51100000000E-03 0.  1.
    9900012    2    1    2    0    0 -0.34437642661E+02 -0.61825632837E+01  0.28371432781E+02  0.46142317423E+02  0.99999969133E+01 0.  0.
        -12    1    1    2    0    0  0.34437642661E+02  0.61825632837E+01 -0.28371432781E+02  0.45045682577E+02  0.00000000000E+00 0.  1.
         11    1    3    3    0    0 -0.60150573868E+01  0.13543002396E+01  0.26523365113E+01  0.67119247415E+01  0.51100000000E-03 0. -1.
        -11    1    3    3    0    0 -0.17439386774E+02 -0.24968480663E+01  0.17384833524E+02  0.24750735307E+02  0.51100000000E-03 0.  1.
        -12    1    3    3    0    0 -0.10983198501E+02 -0.50400154569E+01  0.83342627450E+01  0.14679657374E+02  0.00000000000E+00 0.  1.
</event>
<event>
 7    1  0.4452647E-009  0.4614232E+02  0.7816164E-02  0.1320468E+00
        -11   -1    0    0    0    0  0.00000000000E+00  0.00000000000E+00  0.45593999997E+02  0.45594000000E+02  0.51100000000E-03 0. -1.
         11   -1    0    0    0    0 -0.00000000000E+00 -0.00000000000E+00 -0.45593999997E+02  0.45594000000E+02  0.51100000000E-03 0.  1.
    9900012    2    1    2    0    0  0.11950178726E+02  0.21176879588E+02 -0.37918944837E+02  0.46142318983E+02  0.10000011145E+02 0.  0.
         12    1    1    2    0    0 -0.11950178726E+02 -0.21176879588E+02  0.37918944837E+02  0.45045681017E+02  0.00000000000E+00 0. -1.
         11    1    3    3    0    0  0.71856288888E+01  0.85388011071E+01 -0.23287518734E+02  0.25823495424E+02  0.51100000000E-03 0. -1.
        -11    1    3    3    0    0  0.36269876850E+01  0.48236858749E+01 -0.79060714479E+01  0.99463033881E+01  0.51100000000E-03 0.  1.
         12    1    3    3    0    0  0.11375621520E+01  0.78143926063E+01 -0.67253546553E+01  0.10372520171E+02  0.00000000000E+00 0. -1.
</event>
<event>
 7    1  0.4452647E-009  0.4614232E+02  0.7816164E-02  0.1320468E+00
        -11   -1    0    0    0    0  0.00000000000E+00  0.00000000000E+00  0.45593999997E+02  0.45594000000E+02  0.51100000000E-03 0. -1.
         11   -1    0    0    0    0 -0.00000000000E+00 -0.00000000000E+00 -0.45593999997E+02  0.45594000000E+02  0.51100000000E-03 0.  1.
    9900012    2    1    2    0    0  0.28174632944E+02 -0.26605692855E+02 -0.22966071622E+02  0.46142320078E+02  0.10000021131E+02 0.  0.
         12    1    1    2    0    0 -0.28174632944E+02  0.26605692855E+02  0.22966071622E+02  0.45045679922E+02  0.00000000000E+00 0. -1.
         11    1    3    3    0    0  0.64585087061E+01 -0.59786649205E+01 -0.16088537436E+01  0.89467971681E+01  0.51100000000E-03 0. -1.
        -11    1    3    3    0    0  0.13339902371E+02 -0.12607750193E+02 -0.97316804148E+01  0.20775321036E+02  0.51100000000E-03 0.  1.
         12    1    3    3    0    0  0.83762218665E+01 -0.80192777419E+01 -0.11625537464E+02  0.16420201874E+02  0.00000000000E+00 0. -1.
</event>
<event>
 7    1  0.4452647E-009  0.4614232E+02  0.7816164E-02  0.1320468E+00
        -11   -1    0    0    0    0  0.00000000000E+00  0.00000000000E+00  0.45593999997E+02  0.45594000000E+02  0.51100000000E-03 0.  1.
         11   -1    0    0    0    0 -0.00000000000E+00 -0.00000000000E+00 -0.45593999997E+02  0.45594000000E+02  0.51100000000E-03 0. -1.
    9900012    2    1    2    0    0  0.77065698556E+01 -0.37400998038E+02  0.23893254954E+02  0.46142317571E+02  0.99999982657E+01 0.  0.
        -12    1    1    2    0    0 -0.77065698556E+01  0.37400998038E+02 -0.23893254954E+02  0.45045682429E+02  0.00000000000E+00 0.  1.
         11    1    3    3    0    0 -0.48508502266E+00 -0.11627837167E+02  0.88522260831E+01  0.14622031718E+02  0.51100000000E-03 0. -1.
        -11    1    3    3    0    0  0.56450593943E+01 -0.10722064222E+02  0.90406820561E+01  0.15118309728E+02  0.51100000000E-03 0.  1.
        -12    1    3    3    0    0  0.25465954840E+01 -0.15051096649E+02  0.60003468153E+01  0.16401976125E+02  0.00000000000E+00 0.  1.
</event>
<event>
 7    1  0.4452647E-009  0.4614232E+02  0.7816164E-02  0.1320468E+00
        -11   -1    0    0    0    0  0.00000000000E+00  0.00000000000E+00  0.45593999997E+02  0.45594000000E+02  0.51100000000E-03 0. -1.
         11   -1    0    0    0    0 -0.00000000000E+00 -0.00000000000E+00 -0.45593999997E+02  0.45594000000E+02  0.51100000000E-03 0.  1.
    9900012    2    1    2    0    0  0.19166130885E+02  0.21058367456E+02  0.34904412614E+02  0.46142318376E+02  0.10000005610E+02 0.  0.
        -12    1    1    2    0    0 -0.19166130885E+02 -0.21058367456E+02 -0.34904412614E+02  0.45045681624E+02  0.00000000000E+00 0.  1.
         11    1    3    3    0    0  0.18467367530E+02  0.18204037949E+02  0.29330677272E+02  0.39149959012E+02  0.51100000000E-03 0. -1.
        -11    1    3    3    0    0  0.99284504896E+00  0.96970117173E-01  0.31676482433E+01  0.33210149276E+01  0.51100000000E-03 0.  1.
         12    1    3    3    0    0 -0.29408169422E+00  0.27573593897E+01  0.24060870988E+01  0.36713444368E+01  0.00000000000E+00 0. -1.
</event>
<event>
 7    1  0.4452647E-009  0.4614232E+02  0.7816164E-02  0.1320468E+00
        -11   -1    0    0    0    0  0.00000000000E+00  0.00000000000E+00  0.45593999997E+02  0.45594000000E+02  0.51100000000E-03 0. -1.
         11   -1    0    0    0    0 -0.00000000000E+00 -0.00000000000E+00 -0.45593999997E+02  0.45594000000E+02  0.51100000000E-03 0.  1.
    9900012    2    1    2    0    0  0.17524828174E+01 -0.30995332311E+02 -0.32639418996E+02  0.46142317705E+02  0.99999994841E+01 0.  0.
         12    1    1    2    0    0 -0.17524828174E+01  0.30995332311E+02  0.32639418996E+02  0.45045682295E+02  0.00000000000E+00 0. -1.
         11    1    3    3    0    0  0.30359314168E+01 -0.84767286285E+01 -0.70820473490E+01  0.11455444239E+02  0.51100000000E-03 0. -1.
        -11    1    3    3    0    0 -0.18254091015E+01 -0.20878586626E+02 -0.20397597911E+02  0.29245674871E+02  0.51100000000E-03 0.  1.
        -12    1    3    3    0    0  0.54196050210E+00 -0.16400170565E+01 -0.51597737361E+01  0.54411985940E+01  0.00000000000E+00 0.  1.
</event>
<event>
 7    1  0.4452647E-009  0.4614232E+02  0.7816164E-02  0.1320468E+00
        -11   -1    0    0    0    0  0.00000000000E+00  0.00000000000E+00  0.45593999997E+02  0.45594000000E+02  0.51100000000E-03 0. -1.
         11   -1    0    0    0    0 -0.00000000000E+00 -0.00000000000E+00 -0.45593999997E+02  0.45594000000E+02  0.51100000000E-03 0.  1.
    9900012    2    1    2    0    0 -0.13625515323E+02 -0.26593500804E+02  0.33708224528E+02  0.46142319256E+02  0.10000013634E+02 0.  0.
        -12    1    1    2    0    0  0.13625515323E+02  0.26593500804E+02 -0.33708224528E+02  0.45045680744E+02  0.00000000000E+00 0.  1.
         11    1    3    3    0    0 -0.30810043358E+01 -0.18258934268E+01  0.78448716084E+01  0.86237164458E+01  0.51100000000E-03 0. -1.
        -11    1    3    3    0    0 -0.89428393363E+01 -0.20666839065E+02  0.23393144583E+02  0.32470476222E+02  0.51100000000E-03 0.  1.
        -12    1    3    3    0    0 -0.16016716512E+01 -0.41007683125E+01  0.24702083364E+01  0.50481265887E+01  0.00000000000E+00 0.  1.
</event>
<event>
 7    1  0.4452647E-009  0.4614232E+02  0.7816164E-02  0.1320468E+00
        -11   -1    0    0    0    0  0.00000000000E+00  0.00000000000E+00  0.45593999997E+02  0.45594000000E+02  0.51100000000E-03 0. -1.
         11   -1    0    0    0    0 -0.00000000000E+00 -0.00000000000E+00 -0.45593999997E+02  0.45594000000E+02  0.51100000000E-03 0.  1.
    9900012    2    1    2    0    0 -0.30153449248E+02  0.92394806282E+01 -0.32163876050E+02  0.46142318449E+02  0.10000006275E+02 0.  0.
         12    1    1    2    0    0  0.30153449248E+02 -0.92394806282E+01  0.32163876050E+02  0.45045681551E+02  0.00000000000E+00 0. -1.
         11    1    3    3    0    0 -0.11155234124E+01 -0.55831799840E-01 -0.17014645459E+00  0.11298051826E+01  0.51100000000E-03 0. -1.
        -11    1    3    3    0    0 -0.26557065679E+02  0.99039241810E+01 -0.31563820099E+02  0.42422166272E+02  0.51100000000E-03 0.  1.
        -12    1    3    3    0    0 -0.24808601560E+01 -0.60861175303E+00 -0.42990949663E+00  0.25903469950E+01  0.00000000000E+00 0.  1.
</event>
<event>
 7    1  0.4452647E-009  0.4614232E+02  0.7816164E-02  0.1320468E+00
        -11   -1    0    0    0    0  0.00000000000E+00  0.00000000000E+00  0.45593999997E+02  0.45594000000E+02  0.51100000000E-03 0. -1.
         11   -1    0    0    0    0 -0.00000000000E+00 -0.00000000000E+00 -0.45593999997E+02  0.45594000000E+02  0.51100000000E-03 0.  1.
    9900012    2    1    2    0    0  0.31477942616E+02  0.31524773645E+02  0.66664201236E+01  0.46142318942E+02  0.10000010770E+02 0.  0.
        -12    1    1    2    0    0 -0.31477942616E+02 -0.31524773645E+02 -0.66664201236E+01  0.45045681058E+02  0.00000000000E+00 0.  1.
         11    1    3    3    0    0  0.10628134945E+02  0.67336505326E+01 -0.22558779076E+00  0.12583727271E+02  0.51100000000E-03 0. -1.
        -11    1    3    3    0    0  0.13551070646E+02  0.17371863696E+02  0.71034107997E+01  0.23148900820E+02  0.51100000000E-03 0.  1.
         12    1    3    3    0    0  0.72987370250E+01  0.74192594157E+01 -0.21140288540E+00  0.10409690851E+02  0.00000000000E+00 0. -1.
</event>
<event>
 7    1  0.4452647E-009  0.4614231E+02  0.7816164E-02  0.1320468E+00
        -11   -1    0    0    0    0  0.00000000000E+00  0.00000000000E+00  0.45593999997E+02  0.45594000000E+02  0.51100000000E-03 0. -1.
         11   -1    0    0    0    0 -0.00000000000E+00 -0.00000000000E+00 -0.45593999997E+02  0.45594000000E+02  0.51100000000E-03 0.  1.
    9900012    2    1    2    0    0  0.78428497160E+01  0.19554900411E+02  0.39814689797E+02  0.46142312688E+02  0.99999537409E+01 0.  0.
        -12    1    1    2    0    0 -0.78428497160E+01 -0.19554900411E+02 -0.39814689797E+02  0.45045687312E+02  0.00000000000E+00 0.  1.
         11    1    3    3    0    0  0.20329574264E+01  0.14272672590E+02  0.21853013350E+02  0.26180074321E+02  0.51100000000E-03 0. -1.
        -11    1    3    3    0    0  0.63594715711E+01  0.48427607929E+01  0.16185496983E+02  0.18051745722E+02  0.51100000000E-03 0.  1.
         12    1    3    3    0    0 -0.54957928153E+00  0.43946702795E+00  0.17761794646E+01  0.19104926448E+01  0.00000000000E+00 0. -1.
</event>
<event>
 7    1  0.4452647E-009  0.4614232E+02  0.7816164E-02  0.1320468E+00
        -11   -1    0    0    0    0  0.00000000000E+00  0.00000000000E+00  0.45593999997E+02  0.45594000000E+02  0.51100000000E-03 0. -1.
         11   -1    0    0    0    0 -0.00000000000E+00 -0.00000000000E+00 -0.45593999997E+02  0.45594000000E+02  0.51100000000E-03 0.  1.
    9900012    2    1    2    0    0 -0.30923638791E+02 -0.93292451622E+01 -0.31397570047E+02  0.46142315898E+02  0.99999830070E+01 0.  0.
         12    1    1    2    0    0  0.30923638791E+02  0.93292451622E+01  0.31397570047E+02  0.45045684102E+02  0.00000000000E+00 0. -1.
         11    1    3    3    0    0 -0.13969951204E+02 -0.76173488959E+01 -0.13999956388E+02  0.21193921769E+02  0.51100000000E-03 0.  1.
        -11    1    3    3    0    0 -0.58468328233E+01  0.14205700275E+01 -0.83101998989E+01  0.10259770752E+02  0.51100000000E-03 0. -1.
        -12    1    3    3    0    0 -0.11106854764E+02 -0.31324662938E+01 -0.90874137607E+01  0.14688623376E+02  0.00000000000E+00 0.  1.
</event>
<event>
 7    1  0.4452647E-009  0.4614232E+02  0.7816164E-02  0.1320468E+00
        -11   -1    0    0    0    0  0.00000000000E+00  0.00000000000E+00  0.45593999997E+02  0.45594000000E+02  0.51100000000E-03 0. -1.
         11   -1    0    0    0    0 -0.00000000000E+00 -0.00000000000E+00 -0.45593999997E+02  0.45594000000E+02  0.51100000000E-03 0.  1.
    9900012    2    1    2    0    0 -0.23343872165E+02  0.75008273336E+01 -0.37787757868E+02  0.46142318486E+02  0.10000006613E+02 0.  0.
         12    1    1    2    0    0  0.23343872165E+02 -0.75008273336E+01  0.37787757868E+02  0.45045681514E+02  0.00000000000E+00 0. -1.
         11    1    3    3    0    0 -0.60879681484E+01  0.47191484006E+01 -0.83030046056E+01  0.11325793727E+02  0.51100000000E-03 0. -1.
        -11    1    3    3    0    0 -0.15820050634E+02  0.12080760877E+01 -0.22625943001E+02  0.27634520927E+02  0.51100000000E-03 0.  1.
         12    1    3    3    0    0 -0.14358533822E+01  0.15736028453E+01 -0.68588102614E+01  0.71820038326E+01  0.00000000000E+00 0. -1.
</event>
<event>
 7    1  0.4452647E-009  0.4614232E+02  0.7816164E-02  0.1320468E+00
        -11   -1    0    0    0    0  0.00000000000E+00  0.00000000000E+00  0.45593999997E+02  0.45594000000E+02  0.51100000000E-03 0. -1.
         11   -1    0    0    0    0 -0.00000000000E+00 -0.00000000000E+00 -0.45593999997E+02  0.45594000000E+02  0.51100000000E-03 0.  1.
    9900012    2    1    2    0    0  0.58516858283E+01  0.36444493857E+02 -0.25819956360E+02  0.46142317567E+02  0.99999982256E+01 0.  0.
         12    1    1    2    0    0 -0.58516858283E+01 -0.36444493857E+02  0.25819956360E+02  0.45045682433E+02  0.00000000000E+00 0. -1.
         11    1    3    3    0    0  0.26034106457E+01  0.48953124013E+01 -0.49007206667E+01  0.73999252571E+01  0.51100000000E-03 0. -1.
        -11    1    3    3    0    0  0.18172858823E+00  0.63791863168E+01 -0.81535474682E+01  0.10354099667E+02  0.51100000000E-03 0.  1.
        -12    1    3    3    0    0  0.30665465943E+01  0.25169995138E+02 -0.12765688225E+02  0.28388292642E+02  0.00000000000E+00 0.  1.
</event>
<event>
 7    1  0.5840500E-009  0.4614232E+02  0.7816164E-02  0.1320468E+00
        -11   -1    0    0    0    0  0.00000000000E+00  0.00000000000E+00  0.45593999997E+02  0.45594000000E+02  0.51100000000E-03 0. -1.
         11   -1    0    0    0    0 -0.00000000000E+00 -0.00000000000E+00 -0.45593999997E+02  0.45594000000E+02  0.51100000000E-03 0.  1.
    9900012    2    1    2    0    0  0.80117062002E+01  0.17495520171E+02  0.40728772888E+02  0.46142316486E+02  0.99999883708E+01 0.  0.
        -12    1    1    2    0    0 -0.80117062002E+01 -0.17495520171E+02 -0.40728772888E+02  0.45045683514E+02  0.00000000000E+00 0.  1.
         11    1    3    3    0    0  0.43424801221E+01  0.15285361151E+02  0.23974803408E+02  0.28762659784E+02  0.51100000000E-03 0. -1.
        -11    1    3    3    0    0  0.78759508160E+00  0.72804334744E+00  0.74659304071E+01  0.75425771613E+01  0.51100000000E-03 0.  1.
         12    1    3    3    0    0  0.28816309964E+01  0.14821156722E+01  0.92880390730E+01  0.98370795405E+01  0.00000000000E+00 0. -1.
</event>
<event>
 7    1  0.4452647E-009  0.4614232E+02  0.7816164E-02  0.1320468E+00
        -11   -1    0    0    0    0  0.00000000000E+00  0.00000000000E+00  0.45593999997E+02  0.45594000000E+02  0.51100000000E-03 0. -1.
         11   -1    0    0    0    0 -0.00000000000E+00 -0.00000000000E+00 -0.45593999997E+02  0.45594000000E+02  0.51100000000E-03 0.  1.
    9900012    2    1    2    0    0  0.26118241887E+02 -0.35796096964E+02 -0.80987997951E+01  0.46142315687E+02  0.99999810885E+01 0.  0.
         12    1    1    2    0    0 -0.26118241887E+02  0.35796096964E+02  0.80987997951E+01  0.45045684313E+02  0.00000000000E+00 0. -1.
         11    1    3    3    0    0  0.88856438748E+01 -0.12482764919E+02  0.26948040973E-01  0.15322363185E+02  0.51100000000E-03 0. -1.
        -11    1    3    3    0    0  0.19352053942E+01 -0.67114502024E+01 -0.33437728703E+01  0.77439912840E+01  0.51100000000E-03 0.  1.
        -12    1    3    3    0    0  0.15297392617E+02 -0.16601881842E+02 -0.47819749658E+01  0.23075961219E+02  0.00000000000E+00 0.  1.
</event>
<event>
 7    1  0.4452647E-009  0.4614232E+02  0.7816164E-02  0.1320468E+00
        -11   -1    0    0    0    0  0.00000000000E+00  0.00000000000E+00  0.45593999997E+02  0.45594000000E+02  0.51100000000E-03 0. -1.
         11   -1    0    0    0    0 -0.00000000000E+00 -0.00000000000E+00 -0.45593999997E+02  0.45594000000E+02  0.51100000000E-03 0.  1.
    9900012    2    1    2    0    0 -0.47588444931E+00 -0.14813088307E+02 -0.42537739550E+02  0.46142319439E+02  0.10000015300E+02 0.  0.
         12    1    1    2    0    0  0.47588444931E+00  0.14813088307E+02  0.42537739550E+02  0.45045680561E+02  0.00000000000E+00 0. -1.
         11    1    3    3    0    0 -0.29015619064E+01 -0.51205518693E+00 -0.47580607049E+01  0.55964635212E+01  0.51100000000E-03 0. -1.
        -11    1    3    3    0    0  0.14295591020E+01 -0.26426070931E+01 -0.84546805555E+01  0.89726604210E+01  0.51100000000E-03 0.  1.
         12    1    3    3    0    0  0.99611835510E+00 -0.11658426027E+02 -0.29324998289E+02  0.31573195497E+02  0.00000000000E+00 0. -1.
</event>
<event>
 7    1  0.4452647E-009  0.4614232E+02  0.7816164E-02  0.1320468E+00
        -11   -1    0    0    0    0  0.00000000000E+00  0.00000000000E+00  0.45593999997E+02  0.45594000000E+02  0.51100000000E-03 0. -1.
         11   -1    0    0    0    0 -0.00000000000E+00 -0.00000000000E+00 -0.45593999997E+02  0.45594000000E+02  0.51100000000E-03 0.  1.
    9900012    2    1    2    0    0 -0.17697808491E+02  0.34777500159E+02 -0.22503923240E+02  0.46142317588E+02  0.99999984256E+01 0.  0.
         12    1    1    2    0    0  0.17697808491E+02 -0.34777500159E+02  0.22503923240E+02  0.45045682412E+02  0.00000000000E+00 0. -1.
         11    1    3    3    0    0 -0.11294273418E+02  0.25595841630E+02 -0.14829996441E+02  0.31664436131E+02  0.51100000000E-03 0.  1.
        -11    1    3    3    0    0  0.19855184717E+00  0.14634297065E+01 -0.29017015237E+01  0.32559056091E+01  0.51100000000E-03 0. -1.
         12    1    3    3    0    0 -0.66020869197E+01  0.77182288231E+01 -0.47722252754E+01  0.11221975848E+02  0.00000000000E+00 0. -1.
</event>
<event>
 7    1  0.4452647E-009  0.4614232E+02  0.7816164E-02  0.1320468E+00
        -11   -1    0    0    0    0  0.00000000000E+00  0.00000000000E+00  0.45593999997E+02  0.45594000000E+02  0.51100000000E-03 0. -1.
         11   -1    0    0    0    0 -0.00000000000E+00 -0.00000000000E+00 -0.45593999997E+02  0.45594000000E+02  0.51100000000E-03 0.  1.
    9900012    2    1    2    0    0  0.22389365094E+02  0.32843341719E+02  0.21193037058E+02  0.46142316696E+02  0.99999902900E+01 0.  0.
        -12    1    1    2    0    0 -0.22389365094E+02 -0.32843341719E+02 -0.21193037058E+02  0.45045683304E+02  0.00000000000E+00 0.  1.
         11    1    3    3    0    0  0.87594768487E+01  0.10570345496E+02  0.97125921439E+01  0.16816512272E+02  0.51100000000E-03 0. -1.
        -11    1    3    3    0    0  0.96771662918E+01  0.10515497895E+02  0.82773345788E+01  0.16514766466E+02  0.51100000000E-03 0.  1.
        -12    1    3    3    0    0  0.39527219532E+01  0.11757498328E+02  0.32031103349E+01  0.12811037959E+02  0.00000000000E+00 0.  1.
</event>
<event>
 7    1  0.4452647E-009  0.4614232E+02  0.7816164E-02  0.1320468E+00
        -11   -1    0    0    0    0  0.00000000000E+00  0.00000000000E+00  0.45593999997E+02  0.45594000000E+02  0.51100000000E-03 0. -1.
         11   -1    0    0    0    0 -0.00000000000E+00 -0.00000000000E+00 -0.45593999997E+02  0.45594000000E+02  0.51100000000E-03 0.  1.
    9900012    2    1    2    0    0 -0.32520470669E+02  0.10650614099E+02  0.29293290629E+02  0.46142317975E+02  0.10000001949E+02 0.  0.
        -12    1    1    2    0    0  0.32520470669E+02 -0.10650614099E+02 -0.29293290629E+02  0.45045682025E+02  0.00000000000E+00 0.  1.
         11    1    3    3    0    0 -0.79751383244E+01  0.18553939968E+01  0.85272764019E+01  0.11822003268E+02  0.51100000000E-03 0. -1.
        -11    1    3    3    0    0 -0.24778935705E+02  0.76770206505E+01  0.20679140174E+02  0.33174676175E+02  0.51100000000E-03 0.  1.
        -12    1    3    3    0    0  0.23360335987E+00  0.11181994515E+01  0.86874052742E-01  0.11456385312E+01  0.00000000000E+00 0.  1.
</event>
<event>
 7    1  0.4452647E-009  0.4614232E+02  0.7816164E-02  0.1320468E+00
        -11   -1    0    0    0    0  0.00000000000E+00  0.00000000000E+00  0.45593999997E+02  0.45594000000E+02  0.51100000000E-03 0. -1.
         11   -1    0    0    0    0 -0.00000000000E+00 -0.00000000000E+00 -0.45593999997E+02  0.45594000000E+02  0.51100000000E-03 0.  1.
    9900012    2    1    2    0    0 -0.29448461296E+02 -0.82053050304E+01 -0.33084354207E+02  0.46142318779E+02  0.10000009284E+02 0.  0.
         12    1    1    2    0    0  0.29448461296E+02  0.82053050304E+01  0.33084354207E+02  0.45045681221E+02  0.00000000000E+00 0. -1.
         11    1    3    3    0    0 -0.41526548228E+01  0.21188895800E+01 -0.55538706259E+01  0.72511870973E+01  0.51100000000E-03 0. -1.
        -11    1    3    3    0    0 -0.22133863009E+02 -0.80388744537E+01 -0.24121870925E+02  0.33710473912E+02  0.51100000000E-03 0.  1.
         12    1    3    3    0    0 -0.31619434647E+01 -0.22853201567E+01 -0.34086126560E+01  0.51806577701E+01  0.00000000000E+00 0. -1.
</event>
<event>
 7    1  0.4452647E-009  0.4614232E+02  0.7816164E-02  0.1320468E+00
        -11   -1    0    0    0    0  0.00000000000E+00  0.00000000000E+00  0.45593999997E+02  0.45594000000E+02  0.51100000000E-03 0. -1.
         11   -1    0    0    0    0 -0.00000000000E+00 -0.00000000000E+00 -0.45593999997E+02  0.45594000000E+02  0.51100000000E-03 0.  1.
    9900012    2    1    2    0    0 -0.80401325269E+01  0.24689199140E+02 -0.36809145737E+02  0.46142317686E+02  0.99999993149E+01 0.  0.
         12    1    1    2    0    0  0.80401325269E+01 -0.24689199140E+02  0.36809145737E+02  0.45045682314E+02  0.00000000000E+00 0. -1.
         11    1    3    3    0    0 -0.48150826205E+01  0.20032850610E+02 -0.33112473066E+02  0.38999179440E+02  0.51100000000E-03 0. -1.
        -11    1    3    3    0    0 -0.21007395967E+00  0.20830260644E+01 -0.83367644144E+00  0.22534740566E+01  0.51100000000E-03 0.  1.
         12    1    3    3    0    0 -0.30149759467E+01  0.25733224661E+01 -0.28629962302E+01  0.48896641897E+01  0.00000000000E+00 0. -1.
</event>
<event>
 7    1  0.4452647E-009  0.4614232E+02  0.7816164E-02  0.1320468E+00
        -11   -1    0    0    0    0  0.00000000000E+00  0.00000000000E+00  0.45593999997E+02  0.45594000000E+02  0.51100000000E-03 0. -1.
         11   -1    0    0    0    0 -0.00000000000E+00 -0.00000000000E+00 -0.45593999997E+02  0.45594000000E+02  0.51100000000E-03 0.  1.
    9900012    2    1    2    0    0  0.21192256594E+02 -0.39392309141E+02 -0.53148739160E+01  0.46142316036E+02  0.99999842701E+01 0.  0.
         12    1    1    2    0    0 -0.21192256594E+02  0.39392309141E+02  0.53148739160E+01  0.45045683964E+02  0.00000000000E+00 0. -1.
         11    1    3    3    0    0  0.80417732868E+01 -0.72624290569E+01  0.79946591036E+00  0.10865180137E+02  0.51100000000E-03 0. -1.
        -11    1    3    3    0    0  0.84978313870E+01 -0.22261661532E+02 -0.44641306557E+01  0.24243002603E+02  0.51100000000E-03 0.  1.
         12    1    3    3    0    0  0.46526519204E+01 -0.98682185521E+01 -0.16502091706E+01  0.11034133296E+02  0.00000000000E+00 0. -1.
</event>
<event>
 7    1  0.4452647E-009  0.4614232E+02  0.7816164E-02  0.1320468E+00
        -11   -1    0    0    0    0  0.00000000000E+00  0.00000000000E+00  0.45593999997E+02  0.45594000000E+02  0.51100000000E-03 0. -1.
         11   -1    0    0    0    0 -0.00000000000E+00 -0.00000000000E+00 -0.45593999997E+02  0.45594000000E+02  0.51100000000E-03 0.  1.
    9900012    2    1    2    0    0  0.18827348960E+01  0.97359387624E+00 -0.44995789383E+02  0.46142316101E+02  0.99999848620E+01 0.  0.
         12    1    1    2    0    0 -0.18827348960E+01 -0.97359387624E+00  0.44995789383E+02  0.45045683899E+02  0.00000000000E+00 0. -1.
         11    1    3    3    0    0 -0.39429002485E+00 -0.68628945780E+00 -0.17016401651E+02  0.17034799184E+02  0.51100000000E-03 0. -1.
        -11    1    3    3    0    0 -0.11794471898E+01  0.36611819865E+01 -0.16840887313E+02  0.17274571918E+02  0.51100000000E-03 0.  1.
         12    1    3    3    0    0  0.34564721107E+01 -0.20012986524E+01 -0.11138500420E+02  0.11832944999E+02  0.00000000000E+00 0. -1.
</event>
<event>
 7    1  0.4452647E-009  0.4614232E+02  0.7816164E-02  0.1320468E+00
        -11   -1    0    0    0    0  0.00000000000E+00  0.00000000000E+00  0.45593999997E+02  0.45594000000E+02  0.51100000000E-03 0. -1.
         11   -1    0    0    0    0 -0.00000000000E+00 -0.00000000000E+00 -0.45593999997E+02  0.45594000000E+02  0.51100000000E-03 0.  1.
    9900012    2    1    2    0    0  0.43273585963E+01  0.17467513503E+02 -0.41294956526E+02  0.46142317689E+02  0.99999993436E+01 0.  0.
         12    1    1    2    0    0 -0.43273585963E+01 -0.17467513503E+02  0.41294956526E+02  0.45045682311E+02  0.00000000000E+00 0. -1.
         11    1    3    3    0    0  0.39424605005E+01  0.20795512982E+01 -0.83525865924E+01  0.94674828463E+01  0.51100000000E-03 0. -1.
        -11    1    3    3    0    0  0.88721902955E-02  0.12219191738E+02 -0.20832911945E+02  0.24151996725E+02  0.51100000000E-03 0.  1.
        -12    1    3    3    0    0  0.37602590546E+00  0.31687704669E+01 -0.12109457989E+02  0.12522838118E+02  0.00000000000E+00 0.  1.
</event>
<event>
 7    1  0.4452647E-009  0.4614232E+02  0.7816164E-02  0.1320468E+00
        -11   -1    0    0    0    0  0.00000000000E+00  0.00000000000E+00  0.45593999997E+02  0.45594000000E+02  0.51100000000E-03 0. -1.
         11   -1    0    0    0    0 -0.00000000000E+00 -0.00000000000E+00 -0.45593999997E+02  0.45594000000E+02  0.51100000000E-03 0.  1.
    9900012    2    1    2    0    0  0.13776062592E+02 -0.27546210282E+02  0.32871565620E+02  0.46142318434E+02  0.10000006137E+02 0.  0.
        -12    1    1    2    0    0 -0.13776062592E+02  0.27546210282E+02 -0.32871565620E+02  0.45045681566E+02  0.00000000000E+00 0.  1.
         11    1    3    3    0    0  0.11558665618E+02 -0.14206458201E+02  0.16251661821E+02  0.24485561413E+02  0.51100000000E-03 0. -1.
        -11    1    3    3    0    0  0.20245869183E+01 -0.44104945621E+01  0.71312042986E+01  0.86258616660E+01  0.51100000000E-03 0.  1.
         12    1    3    3    0    0  0.19281005536E+00 -0.89292575182E+01  0.94886995008E+01  0.13030895355E+02  0.00000000000E+00 0. -1.
</event>
<event>
 7    1  0.4452647E-009  0.4614232E+02  0.7816164E-02  0.1320468E+00
        -11   -1    0    0    0    0  0.00000000000E+00  0.00000000000E+00  0.45593999997E+02  0.45594000000E+02  0.51100000000E-03 0.  1.
         11   -1    0    0    0    0 -0.00000000000E+00 -0.00000000000E+00 -0.45593999997E+02  0.45594000000E+02  0.51100000000E-03 0. -1.
    9900012    2    1    2    0    0  0.51907558041E+01 -0.44719199421E+02  0.15371408217E+01  0.46142317137E+02  0.99999943093E+01 0.  0.
        -12    1    1    2    0    0 -0.51907558041E+01  0.44719199421E+02 -0.15371408217E+01  0.45045682863E+02  0.00000000000E+00 0.  1.
         11    1    3    3    0    0  0.22347993094E+01 -0.29053635647E+02 -0.14924135267E+01  0.29177651904E+02  0.51100000000E-03 0. -1.
        -11    1    3    3    0    0  0.38803779793E+01 -0.12916836868E+02  0.12104053333E+01  0.13541310471E+02  0.51100000000E-03 0.  1.
        -12    1    3    3    0    0 -0.92442148457E+00 -0.27487269061E+01  0.18191490151E+01  0.34233547617E+01  0.00000000000E+00 0.  1.
</event>
<event>
 7    1  0.4452647E-009  0.4614232E+02  0.7816164E-02  0.1320468E+00
        -11   -1    0    0    0    0  0.00000000000E+00  0.00000000000E+00  0.45593999997E+02  0.45594000000E+02  0.51100000000E-03 0. -1.
         11   -1    0    0    0    0 -0.00000000000E+00 -0.00000000000E+00 -0.45593999997E+02  0.45594000000E+02  0.51100000000E-03 0.  1.
    9900012    2    1    2    0    0  0.12195549940E+02  0.31609067908E+02 -0.29685837274E+02  0.46142317110E+02  0.99999940616E+01 0.  0.
         12    1    1    2    0    0 -0.12195549940E+02 -0.31609067908E+02  0.29685837274E+02  0.45045682890E+02  0.00000000000E+00 0. -1.
         11    1    3    3    0    0 -0.43959840176E+00 -0.30699962968E+00 -0.70564844080E+00  0.88624799609E+00  0.51100000000E-03 0. -1.
        -11    1    3    3    0    0  0.76784025221E+01  0.20953816976E+02 -0.15405299806E+02  0.27117219133E+02  0.51100000000E-03 0.  1.
         12    1    3    3    0    0  0.49567458196E+01  0.10962250562E+02 -0.13574889028E+02  0.18138849980E+02  0.00000000000E+00 0. -1.
</event>
<event>
 7    1  0.4452647E-009  0.4614232E+02  0.7816164E-02  0.1320468E+00
        -11   -1    0    0    0    0  0.00000000000E+00  0.00000000000E+00  0.45593999997E+02  0.45594000000E+02  0.51100000000E-03 0. -1.
         11   -1    0    0    0    0 -0.00000000000E+00 -0.00000000000E+00 -0.45593999997E+02  0.45594000000E+02  0.51100000000E-03 0.  1.
    9900012    2    1    2    0    0 -0.63652530533E+01 -0.36631685548E+02  0.25430627296E+02  0.46142316109E+02  0.99999849392E+01 0.  0.
        -12    1    1    2    0    0  0.63652530533E+01  0.36631685548E+02 -0.25430627296E+02  0.45045683891E+02  0.00000000000E+00 0.  1.
         11    1    3    3    0    0  0.88948371781E+00 -0.23233035670E+02  0.14900429542E+02  0.27614994632E+02  0.51100000000E-03 0. -1.
        -11    1    3    3    0    0 -0.37773342728E+01 -0.65767727419E+01  0.54084017141E+01  0.93152028034E+01  0.51100000000E-03 0.  1.
         12    1    3    3    0    0 -0.34774024984E+01 -0.68218771359E+01  0.51217960398E+01  0.92121186741E+01  0.00000000000E+00 0. -1.
</event>
<event>
 7    1  0.4452647E-009  0.4614232E+02  0.7816164E-02  0.1320468E+00
        -11   -1    0    0    0    0  0.00000000000E+00  0.00000000000E+00  0.45593999997E+02  0.45594000000E+02  0.51100000000E-03 0. -1.
         11   -1    0    0    0    0 -0.00000000000E+00 -0.00000000000E+00 -0.45593999997E+02  0.45594000000E+02  0.51100000000E-03 0.  1.
    9900012    2    1    2    0    0  0.31053843257E+01 -0.21801567407E+01 -0.44885598177E+02  0.46142318532E+02  0.10000007032E+02 0.  0.
         12    1    1    2    0    0 -0.31053843257E+01  0.21801567407E+01  0.44885598177E+02  0.45045681468E+02  0.00000000000E+00 0. -1.
         11    1    3    3    0    0 -0.50983452019E+00  0.45153515357E+00  0.27443217001E+00  0.73425370952E+00  0.51100000000E-03 0. -1.
        -11    1    3    3    0    0  0.35791639913E+01 -0.20170198808E+01 -0.40405627622E+02  0.40613957304E+02  0.51100000000E-03 0.  1.
         12    1    3    3    0    0  0.36054854605E-01 -0.61467201345E+00 -0.47544027245E+01  0.47941075189E+01  0.00000000000E+00 0. -1.
</event>
<event>
 7    1  0.4452647E-009  0.4614232E+02  0.7816164E-02  0.1320468E+00
        -11   -1    0    0    0    0  0.00000000000E+00  0.00000000000E+00  0.45593999997E+02  0.45594000000E+02  0.51100000000E-03 0. -1.
         11   -1    0    0    0    0 -0.00000000000E+00 -0.00000000000E+00 -0.45593999997E+02  0.45594000000E+02  0.51100000000E-03 0.  1.
    9900012    2    1    2    0    0  0.11096181957E+02  0.29880752557E+01 -0.43555247919E+02  0.46142317976E+02  0.10000001959E+02 0.  0.
         12    1    1    2    0    0 -0.11096181957E+02 -0.29880752557E+01  0.43555247919E+02  0.45045682024E+02  0.00000000000E+00 0. -1.
         11    1    3    3    0    0  0.36606939708E+01  0.17739442763E+01 -0.22260727814E+02  0.22629351774E+02  0.51100000000E-03 0. -1.
        -11    1    3    3    0    0  0.85847533754E+01  0.48284531358E+00 -0.18012903446E+02  0.19959855233E+02  0.51100000000E-03 0.  1.
        -12    1    3    3    0    0 -0.11492653895E+01  0.73128566586E+00 -0.32816166592E+01  0.35531109691E+01  0.00000000000E+00 0.  1.
</event>
<event>
 7    1  0.4452647E-009  0.4614232E+02  0.7816164E-02  0.1320468E+00
        -11   -1    0    0    0    0  0.00000000000E+00  0.00000000000E+00  0.45593999997E+02  0.45594000000E+02  0.51100000000E-03 0. -1.
         11   -1    0    0    0    0 -0.00000000000E+00 -0.00000000000E+00 -0.45593999997E+02  0.45594000000E+02  0.51100000000E-03 0.  1.
    9900012    2    1    2    0    0 -0.11751286459E+02 -0.23335140547E+02  0.36694576040E+02  0.46142318425E+02  0.10000006052E+02 0.  0.
        -12    1    1    2    0    0  0.11751286459E+02  0.23335140547E+02 -0.36694576040E+02  0.45045681575E+02  0.00000000000E+00 0.  1.
         11    1    3    3    0    0 -0.16594580003E+01 -0.22894131551E+01  0.10822882002E+01  0.30276329796E+01  0.51100000000E-03 0. -1.
        -11    1    3    3    0    0 -0.10425903114E+02 -0.21403103223E+02  0.34745596317E+02  0.42119458056E+02  0.51100000000E-03 0.  1.
        -12    1    3    3    0    0  0.33407465451E+00  0.35737583071E+00  0.86669152312E+00  0.99522738879E+00  0.00000000000E+00 0.  1.
</event>
<event>
 7    1  0.4452647E-009  0.4614232E+02  0.7816164E-02  0.1320468E+00
        -11   -1    0    0    0    0  0.00000000000E+00  0.00000000000E+00  0.45593999997E+02  0.45594000000E+02  0.51100000000E-03 0. -1.
         11   -1    0    0    0    0 -0.00000000000E+00 -0.00000000000E+00 -0.45593999997E+02  0.45594000000E+02  0.51100000000E-03 0.  1.
    9900012    2    1    2    0    0  0.15746008700E+02  0.41019499639E+02  0.99286141833E+01  0.46142317408E+02  0.99999967801E+01 0.  0.
        -12    1    1    2    0    0 -0.15746008700E+02 -0.41019499639E+02 -0.99286141833E+01  0.45045682592E+02  0.00000000000E+00 0.  1.
         11    1    3    3    0    0 -0.16668605629E+00 -0.13506515857E+00 -0.51535982837E+00  0.55823189826E+00  0.51100000000E-03 0.  1.
        -11    1    3    3    0    0  0.12126481937E+02  0.25096447675E+02  0.66608390383E+01  0.28657460234E+02  0.51100000000E-03 0. -1.
         12    1    3    3    0    0  0.37862128193E+01  0.16058117122E+02  0.37831349734E+01  0.16926625276E+02  0.00000000000E+00 0. -1.
</event>
<event>
 7    1  0.4646386E-009  0.4614232E+02  0.7816164E-02  0.1320468E+00
        -11   -1    0    0    0    0  0.00000000000E+00  0.00000000000E+00  0.45593999997E+02  0.45594000000E+02  0.51100000000E-03 0. -1.
         11   -1    0    0    0    0 -0.00000000000E+00 -0.00000000000E+00 -0.45593999997E+02  0.45594000000E+02  0.51100000000E-03 0.  1.
    9900012    2    1    2    0    0  0.40398670622E+01  0.55341999181E+01  0.44521517990E+02  0.46142318090E+02  0.10000002999E+02 0.  0.
        -12    1    1    2    0    0 -0.40398670622E+01 -0.55341999181E+01 -0.44521517990E+02  0.45045681910E+02  0.00000000000E+00 0.  1.
         11    1    3    3    0    0  0.51951728463E+01 -0.24203969353E+00  0.17455940414E+02  0.18214232351E+02  0.51100000000E-03 0. -1.
        -11    1    3    3    0    0 -0.24526014442E+01  0.37317116473E+01  0.17655934831E+02  0.18211890640E+02  0.51100000000E-03 0.  1.
         12    1    3    3    0    0  0.12972956601E+01  0.20445279643E+01  0.94096427447E+01  0.97161950994E+01  0.00000000000E+00 0. -1.
</event>
<event>
 7    1  0.4452647E-009  0.4614232E+02  0.7816164E-02  0.1320468E+00
        -11   -1    0    0    0    0  0.00000000000E+00  0.00000000000E+00  0.45593999997E+02  0.45594000000E+02  0.51100000000E-03 0. -1.
         11   -1    0    0    0    0 -0.00000000000E+00 -0.00000000000E+00 -0.45593999997E+02  0.45594000000E+02  0.51100000000E-03 0.  1.
    9900012    2    1    2    0    0 -0.11135982361E+02  0.28068790121E+01  0.43557143454E+02  0.46142318533E+02  0.10000007040E+02 0.  0.
        -12    1    1    2    0    0  0.11135982361E+02 -0.28068790121E+01 -0.43557143454E+02  0.45045681467E+02  0.00000000000E+00 0.  1.
         11    1    3    3    0    0 -0.64762415303E+01  0.47113158630E+01  0.21746588150E+02  0.23174388837E+02  0.51100000000E-03 0. -1.
        -11    1    3    3    0    0 -0.24411022472E+01 -0.18492790494E+00  0.18347705811E+02  0.18510307596E+02  0.51100000000E-03 0.  1.
         12    1    3    3    0    0 -0.22186385834E+01 -0.17195089460E+01  0.34628494930E+01  0.44576221004E+01  0.00000000000E+00 0. -1.
</event>
<event>
 7    1  0.4452647E-009  0.4614233E+02  0.7816164E-02  0.1320468E+00
        -11   -1    0    0    0    0  0.00000000000E+00  0.00000000000E+00  0.45593999997E+02  0.45594000000E+02  0.51100000000E-03 0.  1.
         11   -1    0    0    0    0 -0.00000000000E+00 -0.00000000000E+00 -0.45593999997E+02  0.45594000000E+02  0.51100000000E-03 0. -1.
    9900012    2    1    2    0    0  0.23804200187E+02 -0.37036175042E+02  0.95286212583E+01  0.46142325054E+02  0.10000066502E+02 0.  0.
        -12    1    1    2    0    0 -0.23804200187E+02  0.37036175042E+02 -0.95286212583E+01  0.45045674946E+02  0.00000000000E+00 0.  1.
         11    1    3    3    0    0  0.17216176622E+02 -0.20949684567E+02  0.68180425768E+01  0.27960181075E+02  0.51100000000E-03 0. -1.
        -11    1    3    3    0    0  0.21475023678E+01 -0.10015015192E+02  0.29411361943E+01  0.10656574407E+02  0.51100000000E-03 0.  1.
        -12    1    3    3    0    0  0.44405211977E+01 -0.60714752828E+01 -0.23055751275E+00  0.75255695720E+01  0.00000000000E+00 0.  1.
</event>
<event>
 7    1  0.4452647E-009  0.4614232E+02  0.7816164E-02  0.1320468E+00
        -11   -1    0    0    0    0  0.00000000000E+00  0.00000000000E+00  0.45593999997E+02  0.45594000000E+02  0.51100000000E-03 0. -1.
         11   -1    0    0    0    0 -0.00000000000E+00 -0.00000000000E+00 -0.45593999997E+02  0.45594000000E+02  0.51100000000E-03 0.  1.
    9900012    2    1    2    0    0  0.33434118060E+02  0.49288616911E+01  0.29782197204E+02  0.46142320980E+02  0.10000029354E+02 0.  0.
        -12    1    1    2    0    0 -0.33434118060E+02 -0.49288616911E+01 -0.29782197204E+02  0.45045679020E+02  0.00000000000E+00 0.  1.
         11    1    3    3    0    0  0.92328447707E+00  0.43398054465E+00  0.32386711820E+01  0.33955536552E+01  0.51100000000E-03 0.  1.
        -11    1    3    3    0    0  0.79623946222E+00  0.13945577458E+01  0.17212274070E+01  0.23540205257E+01  0.51100000000E-03 0. -1.
         12    1    3    3    0    0  0.31714594121E+02  0.31003234006E+01  0.24822298615E+02  0.40392746799E+02  0.00000000000E+00 0. -1.
</event>
<event>
 7    1  0.4452647E-009  0.4614232E+02  0.7816164E-02  0.1320468E+00
        -11   -1    0    0    0    0  0.00000000000E+00  0.00000000000E+00  0.45593999997E+02  0.45594000000E+02  0.51100000000E-03 0. -1.
         11   -1    0    0    0    0 -0.00000000000E+00 -0.00000000000E+00 -0.45593999997E+02  0.45594000000E+02  0.51100000000E-03 0.  1.
    9900012    2    1    2    0    0  0.39771911348E+02  0.17086257933E+02  0.12464684173E+02  0.46142317698E+02  0.99999994275E+01 0.  0.
        -12    1    1    2    0    0 -0.39771911348E+02 -0.17086257933E+02 -0.12464684173E+02  0.45045682302E+02  0.00000000000E+00 0.  1.
         11    1    3    3    0    0  0.19215649652E+02  0.44039236641E+01  0.33766622463E+01  0.20000939562E+02  0.51100000000E-03 0. -1.
        -11    1    3    3    0    0  0.76779669103E+01  0.62516104302E+01  0.54164268794E+01  0.11285897804E+02  0.51100000000E-03 0.  1.
        -12    1    3    3    0    0  0.12878294786E+02  0.64307238391E+01  0.36715950479E+01  0.14855480332E+02  0.00000000000E+00 0.  1.
</event>
<event>
 7    1  0.4452647E-009  0.4614232E+02  0.7816164E-02  0.1320468E+00
        -11   -1    0    0    0    0  0.00000000000E+00  0.00000000000E+00  0.45593999997E+02  0.45594000000E+02  0.51100000000E-03 0. -1.
         11   -1    0    0    0    0 -0.00000000000E+00 -0.00000000000E+00 -0.45593999997E+02  0.45594000000E+02  0.51100000000E-03 0.  1.
    9900012    2    1    2    0    0  0.23517439683E+00 -0.13562557567E+02 -0.42954805478E+02  0.46142316650E+02  0.99999898712E+01 0.  0.
         12    1    1    2    0    0 -0.23517439683E+00  0.13562557567E+02  0.42954805478E+02  0.45045683350E+02  0.00000000000E+00 0. -1.
         11    1    3    3    0    0  0.58736775377E+00 -0.23481122992E+01 -0.21840792081E+02  0.21974504118E+02  0.51100000000E-03 0. -1.
        -11    1    3    3    0    0 -0.43108065307E+00 -0.56504083325E+01 -0.70648637638E+01  0.90567789592E+01  0.51100000000E-03 0.  1.
        -12    1    3    3    0    0  0.78887296124E-01 -0.55640369350E+01 -0.14049149634E+02  0.15111033573E+02  0.00000000000E+00 0.  1.
</event>
<event>
 7    1  0.4452647E-009  0.4614232E+02  0.7816164E-02  0.1320468E+00
        -11   -1    0    0    0    0  0.00000000000E+00  0.00000000000E+00  0.45593999997E+02  0.45594000000E+02  0.51100000000E-03 0.  1.
         11   -1    0    0    0    0 -0.00000000000E+00 -0.00000000000E+00 -0.45593999997E+02  0.45594000000E+02  0.51100000000E-03 0. -1.
    9900012    2    1    2    0    0 -0.96926610395E+01 -0.41813367214E+02  0.13667775791E+02  0.46142318177E+02  0.10000003792E+02 0.  0.
        -12    1    1    2    0    0  0.96926610395E+01  0.41813367214E+02 -0.13667775791E+02  0.45045681823E+02  0.00000000000E+00 0.  1.
         11    1    3    3    0    0 -0.54421819384E+01 -0.32522429724E+02  0.76321774140E+01  0.33846357436E+02  0.51100000000E-03 0. -1.
        -11    1    3    3    0    0 -0.25541759162E+01 -0.44414893292E+01  0.47802628538E+01  0.70072501943E+01  0.51100000000E-03 0.  1.
        -12    1    3    3    0    0 -0.16963031848E+01 -0.48494481616E+01  0.12553355233E+01  0.52887105463E+01  0.00000000000E+00 0.  1.
</event>
<event>
 7    1  0.4452647E-009  0.4614232E+02  0.7816164E-02  0.1320468E+00
        -11   -1    0    0    0    0  0.00000000000E+00  0.00000000000E+00  0.45593999997E+02  0.45594000000E+02  0.51100000000E-03 0.  1.
         11   -1    0    0    0    0 -0.00000000000E+00 -0.00000000000E+00 -0.45593999997E+02  0.45594000000E+02  0.51100000000E-03 0. -1.
    9900012    2    1    2    0    0 -0.21831406358E+02 -0.39053959258E+02 -0.52241245528E+01  0.46142317470E+02  0.99999973439E+01 0.  0.
         12    1    1    2    0    0  0.21831406358E+02  0.39053959258E+02  0.52241245528E+01  0.45045682530E+02  0.00000000000E+00 0. -1.
         11    1    3    3    0    0 -0.64102734387E+01 -0.12035972963E+02  0.21297506192E+01  0.13801887142E+02  0.51100000000E-03 0. -1.
        -11    1    3    3    0    0 -0.13199220468E+02 -0.25685202463E+02 -0.70918412563E+01  0.29736228059E+02  0.51100000000E-03 0.  1.
        -12    1    3    3    0    0 -0.22219124506E+01 -0.13327838318E+01 -0.26203391566E+00  0.26042022682E+01  0.00000000000E+00 0.  1.
</event>
<event>
 7    1  0.4452647E-009  0.4614232E+02  0.7816164E-02  0.1320468E+00
        -11   -1    0    0    0    0  0.00000000000E+00  0.00000000000E+00  0.45593999997E+02  0.45594000000E+02  0.51100000000E-03 0. -1.
         11   -1    0    0    0    0 -0.00000000000E+00 -0.00000000000E+00 -0.45593999997E+02  0.45594000000E+02  0.51100000000E-03 0.  1.
    9900012    2    1    2    0    0  0.22811930579E+02  0.10021125292E+02 -0.37527409383E+02  0.46142316701E+02  0.99999903306E+01 0.  0.
         12    1    1    2    0    0 -0.22811930579E+02 -0.10021125292E+02  0.37527409383E+02  0.45045683299E+02  0.00000000000E+00 0. -1.
         11    1    3    3    0    0  0.31760070330E+01  0.40803672355E+01 -0.71356750330E+01  0.88121663561E+01  0.51100000000E-03 0. -1.
        -11    1    3    3    0    0  0.17701339536E+02  0.72177339608E+01 -0.28599508202E+02  0.34400072304E+02  0.51100000000E-03 0.  1.
        -12    1    3    3    0    0  0.19345840108E+01 -0.12769759046E+01 -0.17922261486E+01  0.29300780405E+01  0.00000000000E+00 0.  1.
</event>
<event>
 7    1  0.4452647E-009  0.4614232E+02  0.7816164E-02  0.1320468E+00
        -11   -1    0    0    0    0  0.00000000000E+00  0.00000000000E+00  0.45593999997E+02  0.45594000000E+02  0.51100000000E-03 0. -1.
         11   -1    0    0    0    0 -0.00000000000E+00 -0.00000000000E+00 -0.45593999997E+02  0.45594000000E+02  0.51100000000E-03 0.  1.
    9900012    2    1    2    0    0  0.10358080443E+02  0.27154965045E+02 -0.34415573203E+02  0.46142316123E+02  0.99999850636E+01 0.  0.
         12    1    1    2    0    0 -0.10358080443E+02 -0.27154965045E+02  0.34415573203E+02  0.45045683877E+02  0.00000000000E+00 0. -1.
         11    1    3    3    0    0  0.10031132184E+02  0.14204007176E+02 -0.19415283060E+02  0.26063972248E+02  0.51100000000E-03 0. -1.
        -11    1    3    3    0    0  0.36265195938E+00  0.12244911748E+02 -0.15006021675E+02  0.19371372356E+02  0.51100000000E-03 0.  1.
         12    1    3    3    0    0 -0.35703700967E-01  0.70604612089E+00  0.57315329257E-02  0.70697151963E+00  0.00000000000E+00 0. -1.
</event>
<event>
 7    1  0.4452647E-009  0.4614232E+02  0.7816164E-02  0.1320468E+00
        -11   -1    0    0    0    0  0.00000000000E+00  0.00000000000E+00  0.45593999997E+02  0.45594000000E+02  0.51100000000E-03 0. -1.
         11   -1    0    0    0    0 -0.00000000000E+00 -0.00000000000E+00 -0.45593999997E+02  0.45594000000E+02  0.51100000000E-03 0.  1.
    9900012    2    1    2    0    0  0.89321365300E+01 -0.74633973687E+01 -0.43515839056E+02  0.46142316389E+02  0.99999874841E+01 0.  0.
         12    1    1    2    0    0 -0.89321365300E+01  0.74633973687E+01  0.43515839056E+02  0.45045683611E+02  0.00000000000E+00 0. -1.
         11    1    3    3    0    0  0.53339705046E+01 -0.82148653523E+01 -0.20318262492E+02  0.22555864981E+02  0.51100000000E-03 0. -1.
        -11    1    3    3    0    0  0.34528315589E+01  0.10557874604E+01 -0.16975365242E+02  0.17355107556E+02  0.51100000000E-03 0.  1.
         12    1    3    3    0    0  0.14533446649E+00 -0.30431947676E+00 -0.62222113227E+01  0.62313438515E+01  0.00000000000E+00 0. -1.
</event>
<event>
 7    1  0.4452647E-009  0.4614232E+02  0.7816164E-02  0.1320468E+00
        -11   -1    0    0    0    0  0.00000000000E+00  0.00000000000E+00  0.45593999997E+02  0.45594000000E+02  0.51100000000E-03 0. -1.
         11   -1    0    0    0    0 -0.00000000000E+00 -0.00000000000E+00 -0.45593999997E+02  0.45594000000E+02  0.51100000000E-03 0.  1.
    9900012    2    1    2    0    0 -0.58645982166E+01  0.34552838073E+02  0.28298787014E+02  0.46142317881E+02  0.10000001093E+02 0.  0.
        -12    1    1    2    0    0  0.58645982166E+01 -0.34552838073E+02 -0.28298787014E+02  0.45045682119E+02  0.00000000000E+00 0.  1.
         11    1    3    3    0    0 -0.49765763560E+00  0.18661111096E+02  0.13939938524E+02  0.23298210592E+02  0.51100000000E-03 0.  1.
        -11    1    3    3    0    0 -0.64739910643E+01  0.11291206759E+02  0.10044552733E+02  0.16440710150E+02  0.51100000000E-03 0. -1.
         12    1    3    3    0    0  0.11070504833E+01  0.46005202175E+01  0.43142957562E+01  0.64033971387E+01  0.00000000000E+00 0. -1.
</event>
<event>
 7    1  0.4452647E-009  0.4614232E+02  0.7816164E-02  0.1320468E+00
        -11   -1    0    0    0    0  0.00000000000E+00  0.00000000000E+00  0.45593999997E+02  0.45594000000E+02  0.51100000000E-03 0. -1.
         11   -1    0    0    0    0 -0.00000000000E+00 -0.00000000000E+00 -0.45593999997E+02  0.45594000000E+02  0.51100000000E-03 0.  1.
    9900012    2    1    2    0    0 -0.25217587294E+02 -0.19842456232E+02 -0.31614297135E+02  0.46142316949E+02  0.99999925910E+01 0.  0.
         12    1    1    2    0    0  0.25217587294E+02  0.19842456232E+02  0.31614297135E+02  0.45045683051E+02  0.00000000000E+00 0. -1.
         11    1    3    3    0    0 -0.34589813241E+01 -0.34684843426E+01 -0.69413249958E+01  0.84957005828E+01  0.51100000000E-03 0. -1.
        -11    1    3    3    0    0 -0.11910880305E+02 -0.13587487141E+02 -0.13985156393E+02  0.22848927241E+02  0.51100000000E-03 0.  1.
        -12    1    3    3    0    0 -0.98477256647E+01 -0.27864847478E+01 -0.10687815746E+02  0.14797689125E+02  0.00000000000E+00 0.  1.
</event>
<event>
 7    1  0.4452647E-009  0.4614231E+02  0.7816164E-02  0.1320468E+00
        -11   -1    0    0    0    0  0.00000000000E+00  0.00000000000E+00  0.45593999997E+02  0.45594000000E+02  0.51100000000E-03 0.  1.
         11   -1    0    0    0    0 -0.00000000000E+00 -0.00000000000E+00 -0.45593999997E+02  0.45594000000E+02  0.51100000000E-03 0. -1.
    9900012    2    1    2    0    0 -0.27235210147E+02 -0.19137438453E+02  0.30349885529E+02  0.46142314591E+02  0.99999710969E+01 0.  0.
        -12    1    1    2    0    0  0.27235210147E+02  0.19137438453E+02 -0.30349885529E+02  0.45045685409E+02  0.00000000000E+00 0.  1.
         11    1    3    3    0    0 -0.51683454425E+01 -0.43665847070E+01  0.18335242614E+01  0.70100405202E+01  0.51100000000E-03 0. -1.
        -11    1    3    3    0    0 -0.14595983049E+02 -0.78860914125E+01  0.18818935053E+02  0.25087556193E+02  0.51100000000E-03 0.  1.
         12    1    3    3    0    0 -0.74708816556E+01 -0.68847623334E+01  0.96974262142E+01  0.14044717878E+02  0.00000000000E+00 0. -1.
</event>
<event>
 7    1  0.4452647E-009  0.4614232E+02  0.7816164E-02  0.1320468E+00
        -11   -1    0    0    0    0  0.00000000000E+00  0.00000000000E+00  0.45593999997E+02  0.45594000000E+02  0.51100000000E-03 0. -1.
         11   -1    0    0    0    0 -0.00000000000E+00 -0.00000000000E+00 -0.45593999997E+02  0.45594000000E+02  0.51100000000E-03 0.  1.
    9900012    2    1    2    0    0  0.20740663272E+02  0.36662512781E+02  0.15962412910E+02  0.46142316718E+02  0.99999904914E+01 0.  0.
        -12    1    1    2    0    0 -0.20740663272E+02 -0.36662512781E+02 -0.15962412910E+02  0.45045683282E+02  0.00000000000E+00 0.  1.
         11    1    3    3    0    0  0.13079326057E+01  0.14031474855E+01  0.28868034451E+01  0.34659984072E+01  0.51100000000E-03 0. -1.
        -11    1    3    3    0    0  0.12060164523E+02  0.16566400126E+02  0.56761933099E+01  0.21262933763E+02  0.51100000000E-03 0.  1.
        -12    1    3    3    0    0  0.73725661436E+01  0.18692965169E+02  0.73994161549E+01  0.21413384548E+02  0.00000000000E+00 0.  1.
</event>
<event>
 7    1  0.4452647E-009  0.4614231E+02  0.7816164E-02  0.1320468E+00
        -11   -1    0    0    0    0  0.00000000000E+00  0.00000000000E+00  0.45593999997E+02  0.45594000000E+02  0.51100000000E-03 0. -1.
         11   -1    0    0    0    0 -0.00000000000E+00 -0.00000000000E+00 -0.45593999997E+02  0.45594000000E+02  0.51100000000E-03 0.  1.
    9900012    2    1    2    0    0  0.72467797904E+01  0.28139904813E+02 -0.34420105900E+02  0.46142314853E+02  0.99999734776E+01 0.  0.
         12    1    1    2    0    0 -0.72467797904E+01 -0.28139904813E+02  0.34420105900E+02  0.45045685147E+02  0.00000000000E+00 0. -1.
         11    1    3    3    0    0  0.11103119061E+01  0.29602464856E+01 -0.37883047012E+01  0.49342785242E+01  0.51100000000E-03 0. -1.
        -11    1    3    3    0    0  0.90377048560E+00  0.12412596353E+02 -0.20895215279E+02  0.24320760086E+02  0.51100000000E-03 0.  1.
        -12    1    3    3    0    0  0.52326973987E+01  0.12767061975E+02 -0.97365859197E+01  0.16887276243E+02  0.00000000000E+00 0.  1.
</event>
<event>
 7    1  0.4452647E-009  0.4614232E+02  0.7816164E-02  0.1320468E+00
        -11   -1    0    0    0    0  0.00000000000E+00  0.00000000000E+00  0.45593999997E+02  0.45594000000E+02  0.51100000000E-03 0. -1.
         11   -1    0    0    0    0 -0.00000000000E+00 -0.00000000000E+00 -0.45593999997E+02  0.45594000000E+02  0.51100000000E-03 0.  1.
    9900012    2    1    2    0    0 -0.36083909059E+02  0.22808888996E+02 -0.14381224855E+02  0.46142317204E+02  0.99999949186E+01 0.  0.
         12    1    1    2    0    0  0.36083909059E+02 -0.22808888996E+02  0.14381224855E+02  0.45045682796E+02  0.00000000000E+00 0. -1.
         11    1    3    3    0    0 -0.18603624742E+02  0.12726578912E+02 -0.49300335333E+01  0.23073055611E+02  0.51100000000E-03 0. -1.
        -11    1    3    3    0    0 -0.17290901101E+01 -0.72994281350E+00 -0.35857323858E+00  0.19107967313E+01  0.51100000000E-03 0.  1.
        -12    1    3    3    0    0 -0.15751194207E+02  0.10812252898E+02 -0.90926180830E+01  0.21158464861E+02  0.00000000000E+00 0.  1.
</event>
<event>
 7    1  0.4452647E-009  0.4614232E+02  0.7816164E-02  0.1320468E+00
        -11   -1    0    0    0    0  0.00000000000E+00  0.00000000000E+00  0.45593999997E+02  0.45594000000E+02  0.51100000000E-03 0. -1.
         11   -1    0    0    0    0 -0.00000000000E+00 -0.00000000000E+00 -0.45593999997E+02  0.45594000000E+02  0.51100000000E-03 0.  1.
    9900012    2    1    2    0    0  0.31790175135E+02 -0.12230231868E+02  0.29477443702E+02  0.46142317700E+02  0.99999994401E+01 0.  0.
        -12    1    1    2    0    0 -0.31790175135E+02  0.12230231868E+02 -0.29477443702E+02  0.45045682300E+02  0.00000000000E+00 0.  1.
         11    1    3    3    0    0  0.40309219770E+01 -0.30110759476E+01  0.62604188547E+01  0.80316719831E+01  0.51100000000E-03 0. -1.
        -11    1    3    3    0    0  0.93781079499E+01 -0.36491834221E+01  0.36827853642E+01  0.10715799395E+02  0.51100000000E-03 0.  1.
         12    1    3    3    0    0  0.18381145208E+02 -0.55699724982E+01  0.19534239483E+02  0.27394846322E+02  0.00000000000E+00 0. -1.
</event>
<event>
 7    1  0.4452647E-009  0.4614232E+02  0.7816164E-02  0.1320468E+00
        -11   -1    0    0    0    0  0.00000000000E+00  0.00000000000E+00  0.45593999997E+02  0.45594000000E+02  0.51100000000E-03 0. -1.
         11   -1    0    0    0    0 -0.00000000000E+00 -0.00000000000E+00 -0.45593999997E+02  0.45594000000E+02  0.51100000000E-03 0.  1.
    9900012    2    1    2    0    0  0.11993332441E+02  0.28454873573E+02  0.32796244296E+02  0.46142317710E+02  0.99999995297E+01 0.  0.
        -12    1    1    2    0    0 -0.11993332441E+02 -0.28454873573E+02 -0.32796244296E+02  0.45045682290E+02  0.00000000000E+00 0.  1.
         11    1    3    3    0    0  0.11398103114E+01  0.68527052374E+01  0.31621559571E+01  0.76326906904E+01  0.51100000000E-03 0. -1.
        -11    1    3    3    0    0  0.60851064771E+01  0.12444609825E+02  0.20395079843E+02  0.24654738218E+02  0.51100000000E-03 0.  1.
         12    1    3    3    0    0  0.47684156522E+01  0.91575585108E+01  0.92390084961E+01  0.13854888801E+02  0.00000000000E+00 0. -1.
</event>
<event>
 7    1  0.4452647E-009  0.4614232E+02  0.7816164E-02  0.1320468E+00
        -11   -1    0    0    0    0  0.00000000000E+00  0.00000000000E+00  0.45593999997E+02  0.45594000000E+02  0.51100000000E-03 0. -1.
         11   -1    0    0    0    0 -0.00000000000E+00 -0.00000000000E+00 -0.45593999997E+02  0.45594000000E+02  0.51100000000E-03 0.  1.
    9900012    2    1    2    0    0 -0.39707553384E+02 -0.15552153886E+02 -0.14510480891E+02  0.46142319387E+02  0.10000014826E+02 0.  0.
         12    1    1    2    0    0  0.39707553384E+02  0.15552153886E+02  0.14510480891E+02  0.45045680613E+02  0.00000000000E+00 0. -1.
         11    1    3    3    0    0 -0.16865576289E+02 -0.88570828755E+01 -0.32011004128E+01  0.19316899978E+02  0.51100000000E-03 0. -1.
        -11    1    3    3    0    0 -0.15655563524E+02 -0.69542622199E+01 -0.81632697403E+01  0.18976232645E+02  0.51100000000E-03 0.  1.
         12    1    3    3    0    0 -0.71864135706E+01  0.25919120981E+00 -0.31461107377E+01  0.78491867646E+01  0.00000000000E+00 0. -1.
</event>
<event>
 7    1  0.4452647E-009  0.4614232E+02  0.7816164E-02  0.1320468E+00
        -11   -1    0    0    0    0  0.00000000000E+00  0.00000000000E+00  0.45593999997E+02  0.45594000000E+02  0.51100000000E-03 0. -1.
         11   -1    0    0    0    0 -0.00000000000E+00 -0.00000000000E+00 -0.45593999997E+02  0.45594000000E+02  0.51100000000E-03 0.  1.
    9900012    2    1    2    0    0  0.58177888332E+01  0.19113991413E+02 -0.40372294873E+02  0.46142317322E+02  0.99999959933E+01 0.  0.
         12    1    1    2    0    0 -0.58177888332E+01 -0.19113991413E+02  0.40372294873E+02  0.45045682678E+02  0.00000000000E+00 0. -1.
         11    1    3    3    0    0  0.33865903038E+01  0.34730988213E+01 -0.47187511521E+01  0.67674235869E+01  0.51100000000E-03 0. -1.
        -11    1    3    3    0    0  0.11448019489E+01  0.15345955143E+02 -0.32712346520E+02  0.36151162165E+02  0.51100000000E-03 0.  1.
        -12    1    3    3    0    0  0.12863965805E+01  0.29493744836E+00 -0.29411972004E+01  0.32237315695E+01  0.00000000000E+00 0.  1.
</event>
<event>
 7    1  0.4452647E-009  0.4614232E+02  0.7816164E-02  0.1320468E+00
        -11   -1    0    0    0    0  0.00000000000E+00  0.00000000000E+00  0.45593999997E+02  0.45594000000E+02  0.51100000000E-03 0. -1.
         11   -1    0    0    0    0 -0.00000000000E+00 -0.00000000000E+00 -0.45593999997E+02  0.45594000000E+02  0.51100000000E-03 0.  1.
    9900012    2    1    2    0    0 -0.29452146192E+02 -0.96378502069E+01  0.32692451749E+02  0.46142317929E+02  0.10000001528E+02 0.  0.
        -12    1    1    2    0    0  0.29452146192E+02  0.96378502069E+01 -0.32692451749E+02  0.45045682071E+02  0.00000000000E+00 0.  1.
         11    1    3    3    0    0 -0.10251872115E+02 -0.37671218926E+01  0.84756548272E+01  0.13824934511E+02  0.51100000000E-03 0. -1.
        -11    1    3    3    0    0 -0.67771321606E+01  0.13012814198E+01  0.61109369605E+01  0.92177223028E+01  0.51100000000E-03 0.  1.
        -12    1    3    3    0    0 -0.12423141916E+02 -0.71720097341E+01  0.18105859961E+02  0.23099661115E+02  0.00000000000E+00 0.  1.
</event>
<event>
 7    1  0.4452647E-009  0.4614232E+02  0.7816164E-02  0.1320468E+00
        -11   -1    0    0    0    0  0.00000000000E+00  0.00000000000E+00  0.45593999997E+02  0.45594000000E+02  0.51100000000E-03 0. -1.
         11   -1    0    0    0    0 -0.00000000000E+00 -0.00000000000E+00 -0.45593999997E+02  0.45594000000E+02  0.51100000000E-03 0.  1.
    9900012    2    1    2    0    0  0.35797689641E+02 -0.26489083988E+02 -0.67799184969E+01  0.46142318198E+02  0.10000003987E+02 0.  0.
         12    1    1    2    0    0 -0.35797689641E+02  0.26489083988E+02  0.67799184969E+01  0.45045681802E+02  0.00000000000E+00 0. -1.
         11    1    3    3    0    0  0.10090749178E+02 -0.37325085069E+01 -0.35374908233E+01  0.11325576379E+02  0.51100000000E-03 0.  1.
        -11    1    3    3    0    0  0.10740546856E+02 -0.11253266245E+02  0.53795667713E+00  0.15565498566E+02  0.51100000000E-03 0. -1.
         12    1    3    3    0    0  0.14966393607E+02 -0.11503309236E+02 -0.37803843507E+01  0.19251243254E+02  0.00000000000E+00 0. -1.
</event>
<event>
 7    1  0.4452647E-009  0.4614232E+02  0.7816164E-02  0.1320468E+00
        -11   -1    0    0    0    0  0.00000000000E+00  0.00000000000E+00  0.45593999997E+02  0.45594000000E+02  0.51100000000E-03 0. -1.
         11   -1    0    0    0    0 -0.00000000000E+00 -0.00000000000E+00 -0.45593999997E+02  0.45594000000E+02  0.51100000000E-03 0.  1.
    9900012    2    1    2    0    0  0.20898638776E+02 -0.24775255224E+02 -0.31281737662E+02  0.46142317796E+02  0.10000000316E+02 0.  0.
         12    1    1    2    0    0 -0.20898638776E+02  0.24775255224E+02  0.31281737662E+02  0.45045682204E+02  0.00000000000E+00 0. -1.
         11    1    3    3    0    0  0.16894336088E+00 -0.11401751797E+01  0.31386101465E+00  0.11945921049E+01  0.51100000000E-03 0. -1.
        -11    1    3    3    0    0  0.15820595301E+02 -0.14981038219E+02 -0.24112871354E+02  0.32498512382E+02  0.51100000000E-03 0.  1.
        -12    1    3    3    0    0  0.49091001139E+01 -0.86540418250E+01 -0.74827273221E+01  0.12449213309E+02  0.00000000000E+00 0.  1.
</event>
<event>
 7    1  0.4452647E-009  0.4614232E+02  0.7816164E-02  0.1320468E+00
        -11   -1    0    0    0    0  0.00000000000E+00  0.00000000000E+00  0.45593999997E+02  0.45594000000E+02  0.51100000000E-03 0. -1.
         11   -1    0    0    0    0 -0.00000000000E+00 -0.00000000000E+00 -0.45593999997E+02  0.45594000000E+02  0.51100000000E-03 0.  1.
    9900012    2    1    2    0    0  0.14797502978E+02  0.25436807225E+02  0.34104489791E+02  0.46142317853E+02  0.10000000834E+02 0.  0.
        -12    1    1    2    0    0 -0.14797502978E+02 -0.25436807225E+02 -0.34104489791E+02  0.45045682147E+02  0.00000000000E+00 0.  1.
         11    1    3    3    0    0  0.84592783102E+01  0.15248067573E+02  0.21039014908E+02  0.27325868748E+02  0.51100000000E-03 0. -1.
        -11    1    3    3    0    0 -0.28329480363E+00 -0.94030800970E-01  0.28937276647E+01  0.29090819507E+01  0.51100000000E-03 0.  1.
        -12    1    3    3    0    0  0.66215194715E+01  0.10282770453E+02  0.10171747218E+02  0.15907367154E+02  0.00000000000E+00 0.  1.
</event>
<event>
 7    1  0.4452647E-009  0.4614232E+02  0.7816164E-02  0.1320468E+00
        -11   -1    0    0    0    0  0.00000000000E+00  0.00000000000E+00  0.45593999997E+02  0.45594000000E+02  0.51100000000E-03 0. -1.
         11   -1    0    0    0    0 -0.00000000000E+00 -0.00000000000E+00 -0.45593999997E+02  0.45594000000E+02  0.51100000000E-03 0.  1.
    9900012    2    1    2    0    0  0.28249926192E+02  0.26124406780E+02  0.23421583794E+02  0.46142317111E+02  0.99999940759E+01 0.  0.
        -12    1    1    2    0    0 -0.28249926192E+02 -0.26124406780E+02 -0.23421583794E+02  0.45045682889E+02  0.00000000000E+00 0.  1.
         11    1    3    3    0    0  0.17723840367E+02  0.13114420308E+02  0.15261838887E+02  0.26815038017E+02  0.51100000000E-03 0. -1.
        -11    1    3    3    0    0  0.53973396461E+01  0.99251393245E+01  0.37889661912E+01  0.11916204552E+02  0.51100000000E-03 0.  1.
        -12    1    3    3    0    0  0.51287461784E+01  0.30848471476E+01  0.43707787167E+01  0.74110745427E+01  0.00000000000E+00 0.  1.
</event>
<event>
 7    1  0.4452647E-009  0.4614232E+02  0.7816164E-02  0.1320468E+00
        -11   -1    0    0    0    0  0.00000000000E+00  0.00000000000E+00  0.45593999997E+02  0.45594000000E+02  0.51100000000E-03 0. -1.
         11   -1    0    0    0    0 -0.00000000000E+00 -0.00000000000E+00 -0.45593999997E+02  0.45594000000E+02  0.51100000000E-03 0.  1.
    9900012    2    1    2    0    0 -0.12646634608E+02 -0.14229752748E+02 -0.40825120949E+02  0.46142315071E+02  0.99999754713E+01 0.  0.
         12    1    1    2    0    0  0.12646634608E+02  0.14229752748E+02  0.40825120949E+02  0.45045684929E+02  0.00000000000E+00 0. -1.
         11    1    3    3    0    0 -0.30322388928E+00  0.67654328481E+00 -0.83654348215E+00  0.11177928260E+01  0.51100000000E-03 0. -1.
        -11    1    3    3    0    0 -0.80933910517E+01 -0.11274665910E+02 -0.34514369846E+02  0.37200306399E+02  0.51100000000E-03 0.  1.
        -12    1    3    3    0    0 -0.42500196671E+01 -0.36316301227E+01 -0.54742076213E+01  0.78242158457E+01  0.00000000000E+00 0.  1.
</event>
<event>
 7    1  0.4452647E-009  0.4614232E+02  0.7816164E-02  0.1320468E+00
        -11   -1    0    0    0    0  0.00000000000E+00  0.00000000000E+00  0.45593999997E+02  0.45594000000E+02  0.51100000000E-03 0. -1.
         11   -1    0    0    0    0 -0.00000000000E+00 -0.00000000000E+00 -0.45593999997E+02  0.45594000000E+02  0.51100000000E-03 0.  1.
    9900012    2    1    2    0    0 -0.16721828890E+02 -0.36208349934E+02  0.20939180535E+02  0.46142318210E+02  0.10000004098E+02 0.  0.
        -12    1    1    2    0    0  0.16721828890E+02  0.36208349934E+02 -0.20939180535E+02  0.45045681790E+02  0.00000000000E+00 0.  1.
         11    1    3    3    0    0 -0.37778227890E+01 -0.16271362387E+02  0.11046166138E+02  0.20026157034E+02  0.51100000000E-03 0. -1.
        -11    1    3    3    0    0 -0.78109325978E+01 -0.94573086009E+01  0.32525632827E+01  0.12689780226E+02  0.51100000000E-03 0.  1.
        -12    1    3    3    0    0 -0.51330735034E+01 -0.10479678946E+02  0.66404511151E+01  0.13426380950E+02  0.00000000000E+00 0.  1.
</event>
<event>
 7    1  0.4452647E-009  0.4614232E+02  0.7816164E-02  0.1320468E+00
        -11   -1    0    0    0    0  0.00000000000E+00  0.00000000000E+00  0.45593999997E+02  0.45594000000E+02  0.51100000000E-03 0. -1.
         11   -1    0    0    0    0 -0.00000000000E+00 -0.00000000000E+00 -0.45593999997E+02  0.45594000000E+02  0.51100000000E-03 0.  1.
    9900012    2    1    2    0    0 -0.32440523778E+02 -0.16609040085E+02  0.26473867672E+02  0.46142318020E+02  0.10000002362E+02 0.  0.
        -12    1    1    2    0    0  0.32440523778E+02  0.16609040085E+02 -0.26473867672E+02  0.45045681980E+02  0.00000000000E+00 0.  1.
         11    1    3    3    0    0 -0.32914780249E+01 -0.35827584172E+00  0.44813893439E+01  0.55718075954E+01  0.51100000000E-03 0. -1.
        -11    1    3    3    0    0 -0.16535231693E+02 -0.11166110914E+02  0.94792758752E+01  0.22089648967E+02  0.51100000000E-03 0.  1.
        -12    1    3    3    0    0 -0.12613814060E+02 -0.50846533289E+01  0.12513202453E+02  0.18480861458E+02  0.00000000000E+00 0.  1.
</event>
<event>
 7    1  0.4452647E-009  0.4614232E+02  0.7816164E-02  0.1320468E+00
        -11   -1    0    0    0    0  0.00000000000E+00  0.00000000000E+00  0.45593999997E+02  0.45594000000E+02  0.51100000000E-03 0. -1.
         11   -1    0    0    0    0 -0.00000000000E+00 -0.00000000000E+00 -0.45593999997E+02  0.45594000000E+02  0.51100000000E-03 0.  1.
    9900012    2    1    2    0    0 -0.12143576266E+02  0.39886151679E+02 -0.17051158469E+02  0.46142317128E+02  0.99999942275E+01 0.  0.
         12    1    1    2    0    0  0.12143576266E+02 -0.39886151679E+02  0.17051158469E+02  0.45045682872E+02  0.00000000000E+00 0. -1.
         11    1    3    3    0    0 -0.21354934758E+01  0.23687452919E+02 -0.90521424821E+01  0.25447928048E+02  0.51100000000E-03 0. -1.
        -11    1    3    3    0    0 -0.59032779297E+01  0.10725001004E+02 -0.49951190570E+01  0.13222161378E+02  0.51100000000E-03 0.  1.
         12    1    3    3    0    0 -0.41048048603E+01  0.54736977561E+01 -0.30038969297E+01  0.74722277020E+01  0.00000000000E+00 0. -1.
</event>
<event>
 7    1  0.4452647E-009  0.4614232E+02  0.7816164E-02  0.1320468E+00
        -11   -1    0    0    0    0  0.00000000000E+00  0.00000000000E+00  0.45593999997E+02  0.45594000000E+02  0.51100000000E-03 0.  1.
         11   -1    0    0    0    0 -0.00000000000E+00 -0.00000000000E+00 -0.45593999997E+02  0.45594000000E+02  0.51100000000E-03 0. -1.
    9900012    2    1    2    0    0  0.31026916476E+02  0.30235625204E+02  0.12338993178E+02  0.46142319517E+02  0.10000016012E+02 0.  0.
        -12    1    1    2    0    0 -0.31026916476E+02 -0.30235625204E+02 -0.12338993178E+02  0.45045680483E+02  0.00000000000E+00 0.  1.
         11    1    3    3    0    0  0.12831952242E+02  0.14158995700E+02  0.33878276871E+01  0.19406533288E+02  0.51100000000E-03 0. -1.
        -11    1    3    3    0    0  0.11222973033E+01  0.18436272582E+01 -0.10045662157E+01  0.23806860874E+01  0.51100000000E-03 0.  1.
        -12    1    3    3    0    0  0.17072666931E+02  0.14233002246E+02  0.99557317070E+01  0.24355100141E+02  0.00000000000E+00 0.  1.
</event>
<event>
 7    1  0.4452647E-009  0.4614232E+02  0.7816164E-02  0.1320468E+00
        -11   -1    0    0    0    0  0.00000000000E+00  0.00000000000E+00  0.45593999997E+02  0.45594000000E+02  0.51100000000E-03 0. -1.
         11   -1    0    0    0    0 -0.00000000000E+00 -0.00000000000E+00 -0.45593999997E+02  0.45594000000E+02  0.51100000000E-03 0.  1.
    9900012    2    1    2    0    0 -0.23046849372E+02  0.52191015105E+01  0.38349930815E+02  0.46142317853E+02  0.10000000837E+02 0.  0.
        -12    1    1    2    0    0  0.23046849372E+02 -0.52191015105E+01 -0.38349930815E+02  0.45045682147E+02  0.00000000000E+00 0.  1.
         11    1    3    3    0    0 -0.15052349487E+02  0.18140596647E+01  0.24545413811E+02  0.28850327155E+02  0.51100000000E-03 0. -1.
        -11    1    3    3    0    0 -0.34119695190E+01 -0.87385850764E+00  0.23507387740E+01  0.42345174146E+01  0.51100000000E-03 0.  1.
        -12    1    3    3    0    0 -0.45825303666E+01  0.42789003534E+01  0.11453778230E+02  0.13057473283E+02  0.00000000000E+00 0.  1.
</event>
<event>
 7    1  0.4452647E-009  0.4614232E+02  0.7816164E-02  0.1320468E+00
        -11   -1    0    0    0    0  0.00000000000E+00  0.00000000000E+00  0.45593999997E+02  0.45594000000E+02  0.51100000000E-03 0. -1.
         11   -1    0    0    0    0 -0.00000000000E+00 -0.00000000000E+00 -0.45593999997E+02  0.45594000000E+02  0.51100000000E-03 0.  1.
    9900012    2    1    2    0    0  0.22615062905E+02  0.10045623347E+02  0.37639846853E+02  0.46142315525E+02  0.99999796128E+01 0.  0.
        -12    1    1    2    0    0 -0.22615062905E+02 -0.10045623347E+02 -0.37639846853E+02  0.45045684475E+02  0.00000000000E+00 0.  1.
         11    1    3    3    0    0  0.10233607963E+01  0.20937375539E+00 -0.15649446023E+00  0.10562175278E+01  0.51100000000E-03 0. -1.
        -11    1    3    3    0    0  0.16230864867E+02  0.41895510346E+01  0.26850567194E+02  0.31653534891E+02  0.51100000000E-03 0.  1.
         12    1    3    3    0    0  0.53608372421E+01  0.56466985574E+01  0.10945774119E+02  0.13432563106E+02  0.00000000000E+00 0. -1.
</event>
<event>
 7    1  0.4452647E-009  0.4614231E+02  0.7816164E-02  0.1320468E+00
        -11   -1    0    0    0    0  0.00000000000E+00  0.00000000000E+00  0.45593999997E+02  0.45594000000E+02  0.51100000000E-03 0. -1.
         11   -1    0    0    0    0 -0.00000000000E+00 -0.00000000000E+00 -0.45593999997E+02  0.45594000000E+02  0.51100000000E-03 0.  1.
    9900012    2    1    2    0    0  0.29579176122E+02 -0.30557190551E+02  0.14847367388E+02  0.46142313494E+02  0.99999610895E+01 0.  0.
        -12    1    1    2    0    0 -0.29579176122E+02  0.30557190551E+02 -0.14847367388E+02  0.45045686506E+02  0.00000000000E+00 0.  1.
         11    1    3    3    0    0  0.12115555578E+02 -0.80248963169E+01  0.22693643026E+01  0.14708353493E+02  0.51100000000E-03 0. -1.
        -11    1    3    3    0    0  0.39723114353E+01 -0.67642305393E+01  0.51907775531E+01  0.94062875140E+01  0.51100000000E-03 0.  1.
         12    1    3    3    0    0  0.13491309108E+02 -0.15768063695E+02  0.73872255325E+01  0.22027672487E+02  0.00000000000E+00 0. -1.
</event>
<event>
 7    1  0.4452647E-009  0.4614232E+02  0.7816164E-02  0.1320468E+00
        -11   -1    0    0    0    0  0.00000000000E+00  0.00000000000E+00  0.45593999997E+02  0.45594000000E+02  0.51100000000E-03 0. -1.
         11   -1    0    0    0    0 -0.00000000000E+00 -0.00000000000E+00 -0.45593999997E+02  0.45594000000E+02  0.51100000000E-03 0.  1.
    9900012    2    1    2    0    0  0.25677960922E+02 -0.17398492873E+02  0.32665706105E+02  0.46142316670E+02  0.99999900495E+01 0.  0.
        -12    1    1    2    0    0 -0.25677960922E+02  0.17398492873E+02 -0.32665706105E+02  0.45045683330E+02  0.00000000000E+00 0.  1.
         11    1    3    3    0    0  0.21421105824E+02 -0.14313714046E+02  0.24503044340E+02  0.35554821990E+02  0.51100000000E-03 0.  1.
        -11    1    3    3    0    0  0.10631920061E+01  0.10643114224E+01  0.19459209724E+01  0.24596228852E+01  0.51100000000E-03 0. -1.
         12    1    3    3    0    0  0.31936630919E+01 -0.41490902492E+01  0.62167407920E+01  0.81278717950E+01  0.00000000000E+00 0. -1.
</event>
<event>
 7    1  0.4452647E-009  0.4614232E+02  0.7816164E-02  0.1320468E+00
        -11   -1    0    0    0    0  0.00000000000E+00  0.00000000000E+00  0.45593999997E+02  0.45594000000E+02  0.51100000000E-03 0. -1.
         11   -1    0    0    0    0 -0.00000000000E+00 -0.00000000000E+00 -0.45593999997E+02  0.45594000000E+02  0.51100000000E-03 0.  1.
    9900012    2    1    2    0    0 -0.17588492984E+02 -0.40737090932E+01  0.41269398960E+02  0.46142317835E+02  0.10000000670E+02 0.  0.
        -12    1    1    2    0    0  0.17588492984E+02  0.40737090932E+01 -0.41269398960E+02  0.45045682165E+02  0.00000000000E+00 0.  1.
         11    1    3    3    0    0 -0.93672786000E+01 -0.18060094360E+01  0.21981546824E+02  0.23962386765E+02  0.51100000000E-03 0. -1.
        -11    1    3    3    0    0 -0.84636138577E+01 -0.16516024738E+01  0.11550930019E+02  0.14414733256E+02  0.51100000000E-03 0.  1.
        -12    1    3    3    0    0  0.24239947353E+00 -0.61609718337E+00  0.77369221169E+01  0.77651978138E+01  0.00000000000E+00 0.  1.
</event>
<event>
 7    1  0.4452647E-009  0.4614232E+02  0.7816164E-02  0.1320468E+00
        -11   -1    0    0    0    0  0.00000000000E+00  0.00000000000E+00  0.45593999997E+02  0.45594000000E+02  0.51100000000E-03 0. -1.
         11   -1    0    0    0    0 -0.00000000000E+00 -0.00000000000E+00 -0.45593999997E+02  0.45594000000E+02  0.51100000000E-03 0.  1.
    9900012    2    1    2    0    0 -0.17752283094E+02 -0.30228140255E+02  0.28288327526E+02  0.46142317715E+02  0.99999995770E+01 0.  0.
        -12    1    1    2    0    0  0.17752283094E+02  0.30228140255E+02 -0.28288327526E+02  0.45045682285E+02  0.00000000000E+00 0.  1.
         11    1    3    3    0    0 -0.11015819443E+02 -0.10573327987E+02  0.12033506195E+02  0.19440905697E+02  0.51100000000E-03 0. -1.
        -11    1    3    3    0    0 -0.47904293332E+01 -0.18000769213E+02  0.14422804433E+02  0.23558293518E+02  0.51100000000E-03 0.  1.
        -12    1    3    3    0    0 -0.19460343174E+01 -0.16540430554E+01  0.18320168975E+01  0.31431185002E+01  0.00000000000E+00 0.  1.
</event>
<event>
 7    1  0.4452647E-009  0.4614231E+02  0.7816164E-02  0.1320468E+00
        -11   -1    0    0    0    0  0.00000000000E+00  0.00000000000E+00  0.45593999997E+02  0.45594000000E+02  0.51100000000E-03 0. -1.
         11   -1    0    0    0    0 -0.00000000000E+00 -0.00000000000E+00 -0.45593999997E+02  0.45594000000E+02  0.51100000000E-03 0.  1.
    9900012    2    1    2    0    0  0.35578624923E+01  0.43222568847E+01 -0.44696465912E+02  0.46142308140E+02  0.99999122689E+01 0.  0.
         12    1    1    2    0    0 -0.35578624923E+01 -0.43222568847E+01  0.44696465912E+02  0.45045691860E+02  0.00000000000E+00 0. -1.
         11    1    3    3    0    0 -0.82964281390E+00 -0.97768721220E+00 -0.18679050124E+02  0.18723009728E+02  0.51100000000E-03 0. -1.
        -11    1    3    3    0    0  0.12803151069E+01  0.35662393528E+01 -0.20547430131E+02  0.20893878413E+02  0.51100000000E-03 0.  1.
         12    1    3    3    0    0  0.31071901994E+01  0.17337047441E+01 -0.54699856576E+01  0.65254199994E+01  0.00000000000E+00 0. -1.
</event>
<event>
 7    1  0.4452647E-009  0.4614232E+02  0.7816164E-02  0.1320468E+00
        -11   -1    0    0    0    0  0.00000000000E+00  0.00000000000E+00  0.45593999997E+02  0.45594000000E+02  0.51100000000E-03 0.  1.
         11   -1    0    0    0    0 -0.00000000000E+00 -0.00000000000E+00 -0.45593999997E+02  0.45594000000E+02  0.51100000000E-03 0. -1.
    9900012    2    1    2    0    0  0.37282122334E+02 -0.22429271015E+02 -0.11665531677E+02  0.46142317929E+02  0.10000001528E+02 0.  0.
        -12    1    1    2    0    0 -0.37282122334E+02  0.22429271015E+02  0.11665531677E+02  0.45045682071E+02  0.00000000000E+00 0.  1.
         11    1    3    3    0    0  0.14211278846E+02 -0.11401830864E+02 -0.91018048977E+01  0.20366763271E+02  0.51100000000E-03 0.  1.
        -11    1    3    3    0    0  0.13210175873E+02 -0.72653857429E+01 -0.10391954985E+01  0.15112064854E+02  0.51100000000E-03 0. -1.
        -12    1    3    3    0    0  0.98606676148E+01 -0.37620544083E+01 -0.15245312810E+01  0.10663489804E+02  0.00000000000E+00 0.  1.
</event>
<event>
 7    1  0.4452647E-009  0.4614232E+02  0.7816164E-02  0.1320468E+00
        -11   -1    0    0    0    0  0.00000000000E+00  0.00000000000E+00  0.45593999997E+02  0.45594000000E+02  0.51100000000E-03 0. -1.
         11   -1    0    0    0    0 -0.00000000000E+00 -0.00000000000E+00 -0.45593999997E+02  0.45594000000E+02  0.51100000000E-03 0.  1.
    9900012    2    1    2    0    0 -0.26816308092E+02 -0.19137690005E+02 -0.30720482426E+02  0.46142316534E+02  0.99999888139E+01 0.  0.
         12    1    1    2    0    0  0.26816308092E+02  0.19137690005E+02  0.30720482426E+02  0.45045683466E+02  0.00000000000E+00 0. -1.
         11    1    3    3    0    0 -0.21385007831E+02 -0.19118804295E+02 -0.25391274354E+02  0.38308798613E+02  0.51100000000E-03 0. -1.
        -11    1    3    3    0    0 -0.18793506516E+01 -0.81832160290E+00 -0.14332030300E+01  0.25011358028E+01  0.51100000000E-03 0.  1.
         12    1    3    3    0    0 -0.35519496093E+01  0.79943589261E+00 -0.38960050416E+01  0.53323821185E+01  0.00000000000E+00 0. -1.
</event>
<event>
 7    1  0.4452647E-009  0.4614232E+02  0.7816164E-02  0.1320468E+00
        -11   -1    0    0    0    0  0.00000000000E+00  0.00000000000E+00  0.45593999997E+02  0.45594000000E+02  0.51100000000E-03 0. -1.
         11   -1    0    0    0    0 -0.00000000000E+00 -0.00000000000E+00 -0.45593999997E+02  0.45594000000E+02  0.51100000000E-03 0.  1.
    9900012    2    1    2    0    0 -0.89609519800E+01  0.17667159390E+02 -0.40455979855E+02  0.46142317773E+02  0.10000000107E+02 0.  0.
         12    1    1    2    0    0  0.89609519800E+01 -0.17667159390E+02  0.40455979855E+02  0.45045682227E+02  0.00000000000E+00 0. -1.
         11    1    3    3    0    0 -0.18535025646E+01  0.70725465771E+01 -0.90421412629E+01  0.11628271829E+02  0.51100000000E-03 0. -1.
        -11    1    3    3    0    0 -0.38777612775E+01  0.99129100253E+01 -0.26838741403E+02  0.28872493104E+02  0.51100000000E-03 0.  1.
        -12    1    3    3    0    0 -0.32296881379E+01  0.68170278802E+00 -0.45750971888E+01  0.56415528400E+01  0.00000000000E+00 0.  1.
</event>
<event>
 7    1  0.4452647E-009  0.4614232E+02  0.7816164E-02  0.1320468E+00
        -11   -1    0    0    0    0  0.00000000000E+00  0.00000000000E+00  0.45593999997E+02  0.45594000000E+02  0.51100000000E-03 0. -1.
         11   -1    0    0    0    0 -0.00000000000E+00 -0.00000000000E+00 -0.45593999997E+02  0.45594000000E+02  0.51100000000E-03 0.  1.
    9900012    2    1    2    0    0 -0.30623476224E+02  0.18410197969E+02  0.27429560474E+02  0.46142317931E+02  0.10000001545E+02 0.  0.
        -12    1    1    2    0    0  0.30623476224E+02 -0.18410197969E+02 -0.27429560474E+02  0.45045682069E+02  0.00000000000E+00 0.  1.
         11    1    3    3    0    0 -0.14226914188E+02  0.47506401847E+01  0.15151221395E+02  0.21319783759E+02  0.51100000000E-03 0. -1.
        -11    1    3    3    0    0 -0.60818187705E+01  0.65866661770E+01  0.39511127637E+01  0.97971415840E+01  0.51100000000E-03 0.  1.
         12    1    3    3    0    0 -0.10314743265E+02  0.70728916076E+01  0.83272263152E+01  0.15025392588E+02  0.00000000000E+00 0. -1.
</event>
<event>
 7    1  0.4452647E-009  0.4614232E+02  0.7816164E-02  0.1320468E+00
        -11   -1    0    0    0    0  0.00000000000E+00  0.00000000000E+00  0.45593999997E+02  0.45594000000E+02  0.51100000000E-03 0. -1.
         11   -1    0    0    0    0 -0.00000000000E+00 -0.00000000000E+00 -0.45593999997E+02  0.45594000000E+02  0.51100000000E-03 0.  1.
    9900012    2    1    2    0    0  0.40304888997E+02 -0.45666463117E+01  0.19590180319E+02  0.46142317626E+02  0.99999987696E+01 0.  0.
        -12    1    1    2    0    0 -0.40304888997E+02  0.45666463117E+01 -0.19590180319E+02  0.45045682374E+02  0.00000000000E+00 0.  1.
         11    1    3    3    0    0  0.46055251730E+01 -0.28179929458E+01  0.53409201400E+01  0.75945621707E+01  0.51100000000E-03 0. -1.
        -11    1    3    3    0    0  0.29365673246E+02 -0.67658603725E+00  0.11190453553E+02  0.31432893357E+02  0.51100000000E-03 0.  1.
         12    1    3    3    0    0  0.63336905782E+01 -0.10720673286E+01  0.30588066267E+01  0.71148620983E+01  0.00000000000E+00 0. -1.
</event>
<event>
 7    1  0.4452647E-009  0.4614232E+02  0.7816164E-02  0.1320468E+00
        -11   -1    0    0    0    0  0.00000000000E+00  0.00000000000E+00  0.45593999997E+02  0.45594000000E+02  0.51100000000E-03 0. -1.
         11   -1    0    0    0    0 -0.00000000000E+00 -0.00000000000E+00 -0.45593999997E+02  0.45594000000E+02  0.51100000000E-03 0.  1.
    9900012    2    1    2    0    0 -0.35359836985E+01 -0.24016290116E+02 -0.37945063924E+02  0.46142320431E+02  0.10000024343E+02 0.  0.
         12    1    1    2    0    0  0.35359836985E+01  0.24016290116E+02  0.37945063924E+02  0.45045679569E+02  0.00000000000E+00 0. -1.
         11    1    3    3    0    0 -0.14644192363E+01 -0.11783802524E+02 -0.12281996984E+02  0.17083617175E+02  0.51100000000E-03 0. -1.
        -11    1    3    3    0    0 -0.36524012527E+01 -0.92284972778E+01 -0.16125649479E+02  0.18935199189E+02  0.51100000000E-03 0.  1.
         12    1    3    3    0    0  0.15808367905E+01 -0.30039903147E+01 -0.95374174607E+01  0.10123504067E+02  0.00000000000E+00 0. -1.
</event>
<event>
 7    1  0.4452647E-009  0.4614232E+02  0.7816164E-02  0.1320468E+00
        -11   -1    0    0    0    0  0.00000000000E+00  0.00000000000E+00  0.45593999997E+02  0.45594000000E+02  0.51100000000E-03 0. -1.
         11   -1    0    0    0    0 -0.00000000000E+00 -0.00000000000E+00 -0.45593999997E+02  0.45594000000E+02  0.51100000000E-03 0.  1.
    9900012    2    1    2    0    0 -0.27873835507E+02  0.36163148799E+01 -0.35200639450E+02  0.46142318111E+02  0.10000003191E+02 0.  0.
         12    1    1    2    0    0  0.27873835507E+02 -0.36163148799E+01  0.35200639450E+02  0.45045681889E+02  0.00000000000E+00 0. -1.
         11    1    3    3    0    0 -0.13594509257E+01  0.59961619421E+00 -0.76234283951E+01  0.77668724179E+01  0.51100000000E-03 0. -1.
        -11    1    3    3    0    0 -0.78203969999E+01  0.99717304015E+00 -0.81029226010E+01  0.11305322563E+02  0.51100000000E-03 0.  1.
         12    1    3    3    0    0 -0.18693987581E+02  0.20195256455E+01 -0.19474288454E+02  0.27070123130E+02  0.00000000000E+00 0. -1.
</event>
<event>
 7    1  0.4452647E-009  0.4614232E+02  0.7816164E-02  0.1320468E+00
        -11   -1    0    0    0    0  0.00000000000E+00  0.00000000000E+00  0.45593999997E+02  0.45594000000E+02  0.51100000000E-03 0. -1.
         11   -1    0    0    0    0 -0.00000000000E+00 -0.00000000000E+00 -0.45593999997E+02  0.45594000000E+02  0.51100000000E-03 0.  1.
    9900012    2    1    2    0    0 -0.17213155085E+02 -0.15785554969E+02 -0.38518009507E+02  0.46142317520E+02  0.99999978049E+01 0.  0.
         12    1    1    2    0    0  0.17213155085E+02  0.15785554969E+02  0.38518009507E+02  0.45045682480E+02  0.00000000000E+00 0. -1.
         11    1    3    3    0    0 -0.39887342306E+01 -0.68601121933E+01 -0.16244768332E+02  0.18079370522E+02  0.51100000000E-03 0. -1.
        -11    1    3    3    0    0 -0.12304833010E+02 -0.97962258196E+01 -0.21234655453E+02  0.26425093154E+02  0.51100000000E-03 0.  1.
         12    1    3    3    0    0 -0.91958784452E+00  0.87078304360E+00 -0.10385857216E+01  0.16378538439E+01  0.00000000000E+00 0. -1.
</event>
<event>
 7    1  0.4452647E-009  0.4614232E+02  0.7816164E-02  0.1320468E+00
        -11   -1    0    0    0    0  0.00000000000E+00  0.00000000000E+00  0.45593999997E+02  0.45594000000E+02  0.51100000000E-03 0. -1.
         11   -1    0    0    0    0 -0.00000000000E+00 -0.00000000000E+00 -0.45593999997E+02  0.45594000000E+02  0.51100000000E-03 0.  1.
    9900012    2    1    2    0    0 -0.28648582219E+02 -0.31513811660E+02  0.14671463864E+02  0.46142318294E+02  0.10000004859E+02 0.  0.
        -12    1    1    2    0    0  0.28648582219E+02  0.31513811660E+02 -0.14671463864E+02  0.45045681706E+02  0.00000000000E+00 0.  1.
         11    1    3    3    0    0 -0.41238248978E+01 -0.72933361237E+01  0.58330735901E+01  0.10208987774E+02  0.51100000000E-03 0. -1.
        -11    1    3    3    0    0 -0.69400634891E+00 -0.76087318780E+00 -0.59306647713E+00  0.11884026791E+01  0.51100000000E-03 0.  1.
         12    1    3    3    0    0 -0.23830750972E+02 -0.23459602348E+02  0.94314567507E+01  0.34744927841E+02  0.00000000000E+00 0. -1.
</event>
<event>
 7    1  0.4452647E-009  0.4614232E+02  0.7816164E-02  0.1320468E+00
        -11   -1    0    0    0    0  0.00000000000E+00  0.00000000000E+00  0.45593999997E+02  0.45594000000E+02  0.51100000000E-03 0. -1.
         11   -1    0    0    0    0 -0.00000000000E+00 -0.00000000000E+00 -0.45593999997E+02  0.45594000000E+02  0.51100000000E-03 0.  1.
    9900012    2    1    2    0    0 -0.33106414089E+02 -0.30509056327E+02 -0.15087536663E+01  0.46142317528E+02  0.99999978718E+01 0.  0.
        -12    1    1    2    0    0  0.33106414089E+02  0.30509056327E+02  0.15087536663E+01  0.45045682472E+02  0.00000000000E+00 0.  1.
         11    1    3    3    0    0 -0.18239945653E+02 -0.15062921342E+02  0.22442319912E+01  0.23761813783E+02  0.51100000000E-03 0. -1.
        -11    1    3    3    0    0 -0.71843538811E+00  0.22296996327E+00  0.41876972757E+00  0.86094910259E+00  0.51100000000E-03 0.  1.
        -12    1    3    3    0    0 -0.14148033048E+02 -0.15669104948E+02 -0.41717553851E+01  0.21519554642E+02  0.00000000000E+00 0.  1.
</event>
<event>
 7    1  0.4452647E-009  0.4614232E+02  0.7816164E-02  0.1320468E+00
        -11   -1    0    0    0    0  0.00000000000E+00  0.00000000000E+00  0.45593999997E+02  0.45594000000E+02  0.51100000000E-03 0. -1.
         11   -1    0    0    0    0 -0.00000000000E+00 -0.00000000000E+00 -0.45593999997E+02  0.45594000000E+02  0.51100000000E-03 0.  1.
    9900012    2    1    2    0    0 -0.19506161555E+02  0.24231360828E+01  0.40530871861E+02  0.46142317622E+02  0.99999987327E+01 0.  0.
        -12    1    1    2    0    0  0.19506161555E+02 -0.24231360828E+01 -0.40530871861E+02  0.45045682378E+02  0.00000000000E+00 0.  1.
         11    1    3    3    0    0 -0.21339531735E+01 -0.14662753682E+01  0.55193664923E+01  0.60964847526E+01  0.51100000000E-03 0. -1.
        -11    1    3    3    0    0 -0.13235884963E+02  0.21233023788E+00  0.19431759157E+02  0.23512273371E+02  0.51100000000E-03 0.  1.
        -12    1    3    3    0    0 -0.41363234186E+01  0.36770812130E+01  0.15579746211E+02  0.16533559498E+02  0.00000000000E+00 0.  1.
</event>
<event>
 7    1  0.4452647E-009  0.4614232E+02  0.7816164E-02  0.1320468E+00
        -11   -1    0    0    0    0  0.00000000000E+00  0.00000000000E+00  0.45593999997E+02  0.45594000000E+02  0.51100000000E-03 0. -1.
         11   -1    0    0    0    0 -0.00000000000E+00 -0.00000000000E+00 -0.45593999997E+02  0.45594000000E+02  0.51100000000E-03 0.  1.
    9900012    2    1    2    0    0 -0.95014889143E+01  0.32142816909E+02  0.30094427299E+02  0.46142317356E+02  0.99999963041E+01 0.  0.
        -12    1    1    2    0    0  0.95014889143E+01 -0.32142816909E+02 -0.30094427299E+02  0.45045682644E+02  0.00000000000E+00 0.  1.
         11    1    3    3    0    0 -0.11245728014E+01  0.45339460319E+01  0.57019000337E+01  0.73710918364E+01  0.51100000000E-03 0. -1.
        -11    1    3    3    0    0 -0.66821037943E+01  0.81865712155E+01  0.98798377141E+01  0.14466570184E+02  0.51100000000E-03 0.  1.
        -12    1    3    3    0    0 -0.16948123186E+01  0.19422299662E+02  0.14512689551E+02  0.24304655335E+02  0.00000000000E+00 0.  1.
</event>
<event>
 7    1  0.4452647E-009  0.4614232E+02  0.7816164E-02  0.1320468E+00
        -11   -1    0    0    0    0  0.00000000000E+00  0.00000000000E+00  0.45593999997E+02  0.45594000000E+02  0.51100000000E-03 0. -1.
         11   -1    0    0    0    0 -0.00000000000E+00 -0.00000000000E+00 -0.45593999997E+02  0.45594000000E+02  0.51100000000E-03 0.  1.
    9900012    2    1    2    0    0  0.36688976331E+02  0.10086249315E+01  0.26115419060E+02  0.46142318507E+02  0.10000006804E+02 0.  0.
        -12    1    1    2    0    0 -0.36688976331E+02 -0.10086249315E+01 -0.26115419060E+02  0.45045681493E+02  0.00000000000E+00 0.  1.
         11    1    3    3    0    0  0.75832608362E+01 -0.30745689453E+01  0.78024417579E+01  0.11306498873E+02  0.51100000000E-03 0. -1.
        -11    1    3    3    0    0  0.11920422359E+02  0.24781336329E+01  0.95789193183E+01  0.15491717499E+02  0.51100000000E-03 0.  1.
         12    1    3    3    0    0  0.17185293136E+02  0.16050602438E+01  0.87340579841E+01  0.19344102135E+02  0.00000000000E+00 0. -1.
</event>
<event>
 7    1  0.4452647E-009  0.4614232E+02  0.7816164E-02  0.1320468E+00
        -11   -1    0    0    0    0  0.00000000000E+00  0.00000000000E+00  0.45593999997E+02  0.45594000000E+02  0.51100000000E-03 0.  1.
         11   -1    0    0    0    0 -0.00000000000E+00 -0.00000000000E+00 -0.45593999997E+02  0.45594000000E+02  0.51100000000E-03 0. -1.
    9900012    2    1    2    0    0 -0.27115966948E+02 -0.35816702810E+02 -0.33168854217E+01  0.46142316604E+02  0.99999894498E+01 0.  0.
        -12    1    1    2    0    0  0.27115966948E+02  0.35816702810E+02  0.33168854217E+01  0.45045683396E+02  0.00000000000E+00 0.  1.
         11    1    3    3    0    0 -0.73061717321E+01 -0.91807800510E+01 -0.49275982337E+01  0.12725882772E+02  0.51100000000E-03 0. -1.
        -11    1    3    3    0    0 -0.19773923168E+02 -0.26572582707E+02  0.18421285522E+01  0.33173839498E+02  0.51100000000E-03 0.  1.
        -12    1    3    3    0    0 -0.35872047911E-01 -0.63340052219E-01 -0.23141574024E+00  0.24259433395E+00  0.00000000000E+00 0.  1.
</event>
<event>
 7    1  0.4452647E-009  0.4614232E+02  0.7816164E-02  0.1320468E+00
        -11   -1    0    0    0    0  0.00000000000E+00  0.00000000000E+00  0.45593999997E+02  0.45594000000E+02  0.51100000000E-03 0. -1.
         11   -1    0    0    0    0 -0.00000000000E+00 -0.00000000000E+00 -0.45593999997E+02  0.45594000000E+02  0.51100000000E-03 0.  1.
    9900012    2    1    2    0    0 -0.42742357842E+02 -0.71773697842E+01 -0.12275577800E+02  0.46142316508E+02  0.99999885764E+01 0.  0.
         12    1    1    2    0    0  0.42742357842E+02  0.71773697842E+01  0.12275577800E+02  0.45045683492E+02  0.00000000000E+00 0. -1.
         11    1    3    3    0    0 -0.49801109223E+01 -0.23499343885E+01 -0.32315096640E+01  0.63848532794E+01  0.51100000000E-03 0. -1.
        -11    1    3    3    0    0 -0.16812121972E+02  0.11923069981E+01 -0.50694547716E+01  0.17600239007E+02  0.51100000000E-03 0.  1.
        -12    1    3    3    0    0 -0.20950124948E+02 -0.60197423938E+01 -0.39746133648E+01  0.22157224222E+02  0.00000000000E+00 0.  1.
</event>
<event>
 7    1  0.4452647E-009  0.4614232E+02  0.7816164E-02  0.1320468E+00
        -11   -1    0    0    0    0  0.00000000000E+00  0.00000000000E+00  0.45593999997E+02  0.45594000000E+02  0.51100000000E-03 0. -1.
         11   -1    0    0    0    0 -0.00000000000E+00 -0.00000000000E+00 -0.45593999997E+02  0.45594000000E+02  0.51100000000E-03 0.  1.
    9900012    2    1    2    0    0  0.16619062885E+02 -0.19165333727E+02 -0.37223782448E+02  0.46142320431E+02  0.10000024350E+02 0.  0.
         12    1    1    2    0    0 -0.16619062885E+02  0.19165333727E+02  0.37223782448E+02  0.45045679569E+02  0.00000000000E+00 0. -1.
         11    1    3    3    0    0  0.76334841069E+01 -0.88099736889E+01 -0.93257151492E+01  0.14928318034E+02  0.51100000000E-03 0. -1.
        -11    1    3    3    0    0  0.88017158097E+01 -0.90545441393E+01 -0.24329703529E+02  0.27411483813E+02  0.51100000000E-03 0.  1.
         12    1    3    3    0    0  0.18386296880E+00 -0.13008158992E+01 -0.35683637696E+01  0.38025185847E+01  0.00000000000E+00 0. -1.
</event>
<event>
 7    1  0.4452647E-009  0.4614232E+02  0.7816164E-02  0.1320468E+00
        -11   -1    0    0    0    0  0.00000000000E+00  0.00000000000E+00  0.45593999997E+02  0.45594000000E+02  0.51100000000E-03 0. -1.
         11   -1    0    0    0    0 -0.00000000000E+00 -0.00000000000E+00 -0.45593999997E+02  0.45594000000E+02  0.51100000000E-03 0.  1.
    9900012    2    1    2    0    0 -0.90187703501E+01  0.26979107760E+01 -0.44051069048E+02  0.46142316240E+02  0.99999861287E+01 0.  0.
         12    1    1    2    0    0  0.90187703501E+01 -0.26979107760E+01  0.44051069048E+02  0.45045683760E+02  0.00000000000E+00 0. -1.
         11    1    3    3    0    0 -0.57866356301E+00 -0.29593931008E+01 -0.13222885302E+02  0.13562358018E+02  0.51100000000E-03 0. -1.
        -11    1    3    3    0    0 -0.11010390959E+01  0.21260963995E+01 -0.68577647816E+01  0.72637119334E+01  0.51100000000E-03 0.  1.
         12    1    3    3    0    0 -0.73390676912E+01  0.35312074773E+01 -0.23970418964E+02  0.25316246289E+02  0.00000000000E+00 0. -1.
</event>
<event>
 7    1  0.4452647E-009  0.4614232E+02  0.7816164E-02  0.1320468E+00
        -11   -1    0    0    0    0  0.00000000000E+00  0.00000000000E+00  0.45593999997E+02  0.45594000000E+02  0.51100000000E-03 0. -1.
         11   -1    0    0    0    0 -0.00000000000E+00 -0.00000000000E+00 -0.45593999997E+02  0.45594000000E+02  0.51100000000E-03 0.  1.
    9900012    2    1    2    0    0 -0.16692853022E+02 -0.23989216008E+02 -0.34277976171E+02  0.46142317887E+02  0.10000001144E+02 0.  0.
         12    1    1    2    0    0  0.16692853022E+02  0.23989216008E+02  0.34277976171E+02  0.45045682113E+02  0.00000000000E+00 0. -1.
         11    1    3    3    0    0 -0.45115921141E+01 -0.64867349630E+01 -0.53853443033E+01  0.95621193995E+01  0.51100000000E-03 0. -1.
        -11    1    3    3    0    0 -0.30242824938E+01 -0.26803047988E+01 -0.10475461174E+02  0.11227894081E+02  0.51100000000E-03 0.  1.
        -12    1    3    3    0    0 -0.91569784137E+01 -0.14822176246E+02 -0.18417170694E+02  0.25352304406E+02  0.00000000000E+00 0.  1.
</event>
<event>
 7    1  0.4452647E-009  0.4614232E+02  0.7816164E-02  0.1320468E+00
        -11   -1    0    0    0    0  0.00000000000E+00  0.00000000000E+00  0.45593999997E+02  0.45594000000E+02  0.51100000000E-03 0. -1.
         11   -1    0    0    0    0 -0.00000000000E+00 -0.00000000000E+00 -0.45593999997E+02  0.45594000000E+02  0.51100000000E-03 0.  1.
    9900012    2    1    2    0    0  0.12615305984E+02  0.20379571369E+02 -0.38139751613E+02  0.46142317329E+02  0.99999960580E+01 0.  0.
         12    1    1    2    0    0 -0.12615305984E+02 -0.20379571369E+02  0.38139751613E+02  0.45045682671E+02  0.00000000000E+00 0. -1.
         11    1    3    3    0    0  0.30239053012E+01  0.22839501629E+01 -0.27401467737E+01  0.46764127513E+01  0.51100000000E-03 0. -1.
        -11    1    3    3    0    0  0.96678952431E+01  0.11689483344E+02 -0.25643373198E+02  0.29794207634E+02  0.51100000000E-03 0.  1.
        -12    1    3    3    0    0 -0.76494560476E-01  0.64061378613E+01 -0.97562316407E+01  0.11671696944E+02  0.00000000000E+00 0.  1.
</event>
<event>
 7    1  0.4452647E-009  0.4614232E+02  0.7816164E-02  0.1320468E+00
        -11   -1    0    0    0    0  0.00000000000E+00  0.00000000000E+00  0.45593999997E+02  0.45594000000E+02  0.51100000000E-03 0. -1.
         11   -1    0    0    0    0 -0.00000000000E+00 -0.00000000000E+00 -0.45593999997E+02  0.45594000000E+02  0.51100000000E-03 0.  1.
    9900012    2    1    2    0    0  0.79413691861E+01  0.23696320688E+02 -0.37477093187E+02  0.46142317938E+02  0.10000001612E+02 0.  0.
         12    1    1    2    0    0 -0.79413691861E+01 -0.23696320688E+02  0.37477093187E+02  0.45045682062E+02  0.00000000000E+00 0. -1.
         11    1    3    3    0    0 -0.16207711648E+01  0.10129066652E+02 -0.13983490936E+02  0.17342517390E+02  0.51100000000E-03 0. -1.
        -11    1    3    3    0    0  0.72539530107E+01  0.97299785715E+01 -0.18054907919E+02  0.21754815962E+02  0.51100000000E-03 0.  1.
         12    1    3    3    0    0  0.23081873402E+01  0.38372754642E+01 -0.54386943317E+01  0.70449845862E+01  0.00000000000E+00 0. -1.
</event>
<event>
 7    1  0.4452647E-009  0.4614232E+02  0.7816164E-02  0.1320468E+00
        -11   -1    0    0    0    0  0.00000000000E+00  0.00000000000E+00  0.45593999997E+02  0.45594000000E+02  0.51100000000E-03 0. -1.
         11   -1    0    0    0    0 -0.00000000000E+00 -0.00000000000E+00 -0.45593999997E+02  0.45594000000E+02  0.51100000000E-03 0.  1.
    9900012    2    1    2    0    0 -0.37976197973E+01 -0.33020291776E+02 -0.30403155470E+02  0.46142318213E+02  0.10000004119E+02 0.  0.
         12    1    1    2    0    0  0.37976197973E+01  0.33020291776E+02  0.30403155470E+02  0.45045681787E+02  0.00000000000E+00 0. -1.
         11    1    3    3    0    0 -0.53414075057E+01 -0.20341495022E+02 -0.20184756948E+02  0.29150153811E+02  0.51100000000E-03 0. -1.
        -11    1    3    3    0    0  0.26086201597E+01 -0.83020212602E+01 -0.85186791828E+01  0.12177698938E+02  0.51100000000E-03 0.  1.
         12    1    3    3    0    0 -0.10648324513E+01 -0.43767754938E+01 -0.16997193397E+01  0.48144654642E+01  0.00000000000E+00 0. -1.
</event>
<event>
 7    1  0.4452647E-009  0.4614232E+02  0.7816164E-02  0.1320468E+00
        -11   -1    0    0    0    0  0.00000000000E+00  0.00000000000E+00  0.45593999997E+02  0.45594000000E+02  0.51100000000E-03 0. -1.
         11   -1    0    0    0    0 -0.00000000000E+00 -0.00000000000E+00 -0.45593999997E+02  0.45594000000E+02  0.51100000000E-03 0.  1.
    9900012    2    1    2    0    0  0.13048935606E+02 -0.13434680066E+02 -0.40967648112E+02  0.46142317180E+02  0.99999947001E+01 0.  0.
         12    1    1    2    0    0 -0.13048935606E+02  0.13434680066E+02  0.40967648112E+02  0.45045682820E+02  0.00000000000E+00 0. -1.
         11    1    3    3    0    0  0.11352514757E+02 -0.13785513946E+02 -0.30705598979E+02  0.35521173896E+02  0.51100000000E-03 0.  1.
        -11    1    3    3    0    0 -0.46358120164E+00  0.10109160645E+00 -0.31061908704E+01  0.31422203977E+01  0.51100000000E-03 0. -1.
        -12    1    3    3    0    0  0.21600020503E+01  0.24974227336E+00 -0.71558582624E+01  0.74789228858E+01  0.00000000000E+00 0.  1.
</event>
<event>
 7    1  0.4452647E-009  0.4614232E+02  0.7816164E-02  0.1320468E+00
        -11   -1    0    0    0    0  0.00000000000E+00  0.00000000000E+00  0.45593999997E+02  0.45594000000E+02  0.51100000000E-03 0. -1.
         11   -1    0    0    0    0 -0.00000000000E+00 -0.00000000000E+00 -0.45593999997E+02  0.45594000000E+02  0.51100000000E-03 0.  1.
    9900012    2    1    2    0    0 -0.29064696879E+02  0.16868363749E+02 -0.29996919871E+02  0.46142317610E+02  0.99999986227E+01 0.  0.
         12    1    1    2    0    0  0.29064696879E+02 -0.16868363749E+02  0.29996919871E+02  0.45045682390E+02  0.00000000000E+00 0. -1.
         11    1    3    3    0    0  0.27786591879E+00  0.56279843241E+00 -0.58911114740E-01  0.63041440728E+00  0.51100000000E-03 0. -1.
        -11    1    3    3    0    0 -0.10334166964E+02  0.95342522378E+01 -0.11218311586E+02  0.17987425821E+02  0.51100000000E-03 0.  1.
        -12    1    3    3    0    0 -0.19008395833E+02  0.67713130787E+01 -0.18719697171E+02  0.27524477382E+02  0.00000000000E+00 0.  1.
</event>
<event>
 7    1  0.4452647E-009  0.4614232E+02  0.7816164E-02  0.1320468E+00
        -11   -1    0    0    0    0  0.00000000000E+00  0.00000000000E+00  0.45593999997E+02  0.45594000000E+02  0.51100000000E-03 0. -1.
         11   -1    0    0    0    0 -0.00000000000E+00 -0.00000000000E+00 -0.45593999997E+02  0.45594000000E+02  0.51100000000E-03 0.  1.
    9900012    2    1    2    0    0 -0.20826575350E+01  0.70051186616E+01 -0.44448894300E+02  0.46142319248E+02  0.10000013562E+02 0.  0.
         12    1    1    2    0    0  0.20826575350E+01 -0.70051186616E+01  0.44448894300E+02  0.45045680752E+02  0.00000000000E+00 0. -1.
         11    1    3    3    0    0  0.48501575623E+00  0.57394173130E+01 -0.35189476028E+02  0.35657753361E+02  0.51100000000E-03 0. -1.
        -11    1    3    3    0    0 -0.79989182192E+00 -0.12137078411E+01 -0.12546487121E+01  0.19201711648E+01  0.51100000000E-03 0.  1.
        -12    1    3    3    0    0 -0.17677814693E+01  0.24794091897E+01 -0.80047695601E+01  0.85643947225E+01  0.00000000000E+00 0.  1.
</event>
<event>
 7    1  0.4452647E-009  0.4614232E+02  0.7816164E-02  0.1320468E+00
        -11   -1    0    0    0    0  0.00000000000E+00  0.00000000000E+00  0.45593999997E+02  0.45594000000E+02  0.51100000000E-03 0. -1.
         11   -1    0    0    0    0 -0.00000000000E+00 -0.00000000000E+00 -0.45593999997E+02  0.45594000000E+02  0.51100000000E-03 0.  1.
    9900012    2    1    2    0    0 -0.17506408153E+01  0.38676710415E+02  0.23025219134E+02  0.46142318876E+02  0.10000010165E+02 0.  0.
        -12    1    1    2    0    0  0.17506408153E+01 -0.38676710415E+02 -0.23025219134E+02  0.45045681124E+02  0.00000000000E+00 0.  1.
         11    1    3    3    0    0 -0.21187957471E+01  0.10069059155E+02  0.84444725987E+01  0.13311061769E+02  0.51100000000E-03 0. -1.
        -11    1    3    3    0    0 -0.11723976889E+01  0.33418852058E+01  0.41444950654E+01  0.54515642414E+01  0.51100000000E-03 0.  1.
         12    1    3    3    0    0  0.15405526208E+01  0.25265766054E+02  0.10436251470E+02  0.27379692865E+02  0.00000000000E+00 0. -1.
</event>
<event>
 7    1  0.4452647E-009  0.4614232E+02  0.7816164E-02  0.1320468E+00
        -11   -1    0    0    0    0  0.00000000000E+00  0.00000000000E+00  0.45593999997E+02  0.45594000000E+02  0.51100000000E-03 0.  1.
         11   -1    0    0    0    0 -0.00000000000E+00 -0.00000000000E+00 -0.45593999997E+02  0.45594000000E+02  0.51100000000E-03 0. -1.
    9900012    2    1    2    0    0  0.87356023984E+01 -0.42209988650E+02 -0.13081267636E+02  0.46142318142E+02  0.10000003475E+02 0.  0.
         12    1    1    2    0    0 -0.87356023984E+01  0.42209988650E+02  0.13081267636E+02  0.45045681858E+02  0.00000000000E+00 0. -1.
         11    1    3    3    0    0  0.29068232698E+01 -0.96967494168E+01 -0.43169552117E+01  0.11005120323E+02  0.51100000000E-03 0. -1.
        -11    1    3    3    0    0  0.70562402081E+01 -0.24295243073E+02 -0.41640530104E+01  0.25639592423E+02  0.51100000000E-03 0.  1.
        -12    1    3    3    0    0 -0.12274610796E+01 -0.82179961593E+01 -0.46002594143E+01  0.94976053959E+01  0.00000000000E+00 0.  1.
</event>
<event>
 7    1  0.4452647E-009  0.4614232E+02  0.7816164E-02  0.1320468E+00
        -11   -1    0    0    0    0  0.00000000000E+00  0.00000000000E+00  0.45593999997E+02  0.45594000000E+02  0.51100000000E-03 0. -1.
         11   -1    0    0    0    0 -0.00000000000E+00 -0.00000000000E+00 -0.45593999997E+02  0.45594000000E+02  0.51100000000E-03 0.  1.
    9900012    2    1    2    0    0 -0.87400756496E+01 -0.22861606172E+02  0.37816287791E+02  0.46142316729E+02  0.99999905839E+01 0.  0.
        -12    1    1    2    0    0  0.87400756496E+01  0.22861606172E+02 -0.37816287791E+02  0.45045683271E+02  0.00000000000E+00 0.  1.
         11    1    3    3    0    0 -0.76309720775E+01 -0.17185117457E+02  0.22574749187E+02  0.29379913172E+02  0.51100000000E-03 0. -1.
        -11    1    3    3    0    0 -0.87187223967E+00 -0.97508477381E+00  0.81264783777E+01  0.82310754220E+01  0.51100000000E-03 0.  1.
        -12    1    3    3    0    0 -0.23723133241E+00 -0.47014039417E+01  0.71150602258E+01  0.85313281349E+01  0.00000000000E+00 0.  1.
</event>
<event>
 7    1  0.4452647E-009  0.4614232E+02  0.7816164E-02  0.1320468E+00
        -11   -1    0    0    0    0  0.00000000000E+00  0.00000000000E+00  0.45593999997E+02  0.45594000000E+02  0.51100000000E-03 0.  1.
         11   -1    0    0    0    0 -0.00000000000E+00 -0.00000000000E+00 -0.45593999997E+02  0.45594000000E+02  0.51100000000E-03 0. -1.
    9900012    2    1    2    0    0 -0.42175526164E+02  0.14202452332E+02  0.69734384225E+01  0.46142317600E+02  0.99999985337E+01 0.  0.
         12    1    1    2    0    0  0.42175526164E+02 -0.14202452332E+02 -0.69734384225E+01  0.45045682400E+02  0.00000000000E+00 0. -1.
         11    1    3    3    0    0 -0.17248564547E+02  0.28632207011E+01 -0.76766739178E+00  0.17501437804E+02  0.51100000000E-03 0. -1.
        -11    1    3    3    0    0 -0.20981249491E+02  0.10060605402E+02  0.54340404372E+01  0.23894715043E+02  0.51100000000E-03 0.  1.
        -12    1    3    3    0    0 -0.39457121251E+01  0.12786262292E+01  0.23070653770E+01  0.47461647530E+01  0.00000000000E+00 0.  1.
</event>
<event>
 7    1  0.4452647E-009  0.4614232E+02  0.7816164E-02  0.1320468E+00
        -11   -1    0    0    0    0  0.00000000000E+00  0.00000000000E+00  0.45593999997E+02  0.45594000000E+02  0.51100000000E-03 0. -1.
         11   -1    0    0    0    0 -0.00000000000E+00 -0.00000000000E+00 -0.45593999997E+02  0.45594000000E+02  0.51100000000E-03 0.  1.
    9900012    2    1    2    0    0  0.30480622237E+02 -0.59658904799E+01  0.32625961067E+02  0.46142317447E+02  0.99999971325E+01 0.  0.
        -12    1    1    2    0    0 -0.30480622237E+02  0.59658904799E+01 -0.32625961067E+02  0.45045682553E+02  0.00000000000E+00 0.  1.
         11    1    3    3    0    0  0.13555740877E+02  0.11800854174E+00  0.19587349241E+02  0.23820921210E+02  0.51100000000E-03 0. -1.
        -11    1    3    3    0    0  0.10390745666E+02 -0.26494657026E+01  0.81268482093E+01  0.13454847680E+02  0.51100000000E-03 0.  1.
         12    1    3    3    0    0  0.65341356937E+01 -0.34344333190E+01  0.49117636166E+01  0.88665485569E+01  0.00000000000E+00 0. -1.
</event>
<event>
 7    1  0.4452647E-009  0.4614232E+02  0.7816164E-02  0.1320468E+00
        -11   -1    0    0    0    0  0.00000000000E+00  0.00000000000E+00  0.45593999997E+02  0.45594000000E+02  0.51100000000E-03 0. -1.
         11   -1    0    0    0    0 -0.00000000000E+00 -0.00000000000E+00 -0.45593999997E+02  0.45594000000E+02  0.51100000000E-03 0.  1.
    9900012    2    1    2    0    0 -0.17362250707E+02 -0.22953376042E+01  0.41501772986E+02  0.46142317795E+02  0.10000000311E+02 0.  0.
        -12    1    1    2    0    0  0.17362250707E+02  0.22953376042E+01 -0.41501772986E+02  0.45045682205E+02  0.00000000000E+00 0.  1.
         11    1    3    3    0    0 -0.68192239488E+01  0.27708775776E+01  0.18355567628E+02  0.19776411227E+02  0.51100000000E-03 0. -1.
        -11    1    3    3    0    0 -0.28693838227E+00 -0.16378546668E+01  0.46763979925E+01  0.49632247572E+01  0.51100000000E-03 0.  1.
         12    1    3    3    0    0 -0.10256088376E+02 -0.34283605150E+01  0.18469807365E+02  0.21402681811E+02  0.00000000000E+00 0. -1.
</event>
<event>
 7    1  0.4452647E-009  0.4614232E+02  0.7816164E-02  0.1320468E+00
        -11   -1    0    0    0    0  0.00000000000E+00  0.00000000000E+00  0.45593999997E+02  0.45594000000E+02  0.51100000000E-03 0. -1.
         11   -1    0    0    0    0 -0.00000000000E+00 -0.00000000000E+00 -0.45593999997E+02  0.45594000000E+02  0.51100000000E-03 0.  1.
    9900012    2    1    2    0    0 -0.11001363438E+02 -0.30879464543E+02  0.30895665187E+02  0.46142318128E+02  0.10000003346E+02 0.  0.
        -12    1    1    2    0    0  0.11001363438E+02  0.30879464543E+02 -0.30895665187E+02  0.45045681872E+02  0.00000000000E+00 0.  1.
         11    1    3    3    0    0 -0.36971622097E+01 -0.11102440573E+02  0.16147183249E+02  0.19941532595E+02  0.51100000000E-03 0. -1.
        -11    1    3    3    0    0 -0.74656784518E+01 -0.19876939050E+02  0.14010142644E+02  0.25438418935E+02  0.51100000000E-03 0.  1.
        -12    1    3    3    0    0  0.16147722390E+00  0.99915079855E-01  0.73833929437E+00  0.76236659858E+00  0.00000000000E+00 0.  1.
</event>
<event>
 7    1  0.4452647E-009  0.4614232E+02  0.7816164E-02  0.1320468E+00
        -11   -1    0    0    0    0  0.00000000000E+00  0.00000000000E+00  0.45593999997E+02  0.45594000000E+02  0.51100000000E-03 0. -1.
         11   -1    0    0    0    0 -0.00000000000E+00 -0.00000000000E+00 -0.45593999997E+02  0.45594000000E+02  0.51100000000E-03 0.  1.
    9900012    2    1    2    0    0 -0.21817367722E+02  0.21451269260E+01 -0.39351167783E+02  0.46142317524E+02  0.99999978361E+01 0.  0.
         12    1    1    2    0    0  0.21817367722E+02 -0.21451269260E+01  0.39351167783E+02  0.45045682476E+02  0.00000000000E+00 0. -1.
         11    1    3    3    0    0 -0.11683817352E+02  0.61136187057E+01 -0.21621934045E+02  0.25325796210E+02  0.51100000000E-03 0. -1.
        -11    1    3    3    0    0 -0.90912758961E+01 -0.33244855531E+01 -0.15565051333E+02  0.18329602420E+02  0.51100000000E-03 0.  1.
         12    1    3    3    0    0 -0.10422744734E+01 -0.64400622662E+00 -0.21641824052E+01  0.24869188931E+01  0.00000000000E+00 0. -1.
</event>
<event>
 7    1  0.4452647E-009  0.4614232E+02  0.7816164E-02  0.1320468E+00
        -11   -1    0    0    0    0  0.00000000000E+00  0.00000000000E+00  0.45593999997E+02  0.45594000000E+02  0.51100000000E-03 0. -1.
         11   -1    0    0    0    0 -0.00000000000E+00 -0.00000000000E+00 -0.45593999997E+02  0.45594000000E+02  0.51100000000E-03 0.  1.
    9900012    2    1    2    0    0 -0.17517108699E+02  0.32914767071E+02  0.25276123444E+02  0.46142318688E+02  0.10000008454E+02 0.  0.
        -12    1    1    2    0    0  0.17517108699E+02 -0.32914767071E+02 -0.25276123444E+02  0.45045681312E+02  0.00000000000E+00 0.  1.
         11    1    3    3    0    0 -0.16704427116E+01  0.71153967722E+01  0.73792255629E+01  0.10386155220E+02  0.51100000000E-03 0. -1.
        -11    1    3    3    0    0 -0.14788587381E+02  0.24255565263E+02  0.14540791120E+02  0.31913466900E+02  0.51100000000E-03 0.  1.
        -12    1    3    3    0    0 -0.10580786066E+01  0.15438050359E+01  0.33561067606E+01  0.38426965682E+01  0.00000000000E+00 0.  1.
</event>
<event>
 7    1  0.4452647E-009  0.4614232E+02  0.7816164E-02  0.1320468E+00
        -11   -1    0    0    0    0  0.00000000000E+00  0.00000000000E+00  0.45593999997E+02  0.45594000000E+02  0.51100000000E-03 0. -1.
         11   -1    0    0    0    0 -0.00000000000E+00 -0.00000000000E+00 -0.45593999997E+02  0.45594000000E+02  0.51100000000E-03 0.  1.
    9900012    2    1    2    0    0 -0.89989677052E+01  0.17934912882E+02 -0.40329531431E+02  0.46142316241E+02  0.99999861370E+01 0.  0.
         12    1    1    2    0    0  0.89989677052E+01 -0.17934912882E+02  0.40329531431E+02  0.45045683759E+02  0.00000000000E+00 0. -1.
         11    1    3    3    0    0 -0.24409195623E+01  0.11404791843E+02 -0.13978322648E+02  0.18204968266E+02  0.51100000000E-03 0. -1.
        -11    1    3    3    0    0 -0.30440604648E+01  0.34502483623E+01 -0.13563829669E+02  0.14322988286E+02  0.51100000000E-03 0.  1.
         12    1    3    3    0    0 -0.35139876782E+01  0.30798726772E+01 -0.12787379114E+02  0.13614359688E+02  0.00000000000E+00 0. -1.
</event>
<event>
 7    1  0.5031556E-009  0.4614231E+02  0.7816164E-02  0.1320468E+00
        -11   -1    0    0    0    0  0.00000000000E+00  0.00000000000E+00  0.45593999997E+02  0.45594000000E+02  0.51100000000E-03 0. -1.
         11   -1    0    0    0    0 -0.00000000000E+00 -0.00000000000E+00 -0.45593999997E+02  0.45594000000E+02  0.51100000000E-03 0.  1.
    9900012    2    1    2    0    0 -0.59033386582E+01 -0.14201892999E+01  0.44634603528E+02  0.46142310117E+02  0.99999302945E+01 0.  0.
        -12    1    1    2    0    0  0.59033386582E+01  0.14201892999E+01 -0.44634603528E+02  0.45045689883E+02  0.00000000000E+00 0.  1.
         11    1    3    3    0    0 -0.41205140710E+01 -0.47514404561E+00  0.39945465245E+02  0.40160236453E+02  0.51100000000E-03 0. -1.
        -11    1    3    3    0    0 -0.13903909397E+01  0.99799115614E+00  0.18600800157E+01  0.25276612192E+01  0.51100000000E-03 0.  1.
         12    1    3    3    0    0 -0.39243364749E+00 -0.19430364104E+01  0.28290582674E+01  0.34544124450E+01  0.00000000000E+00 0. -1.
</event>
<event>
 7    1  0.4452647E-009  0.4614232E+02  0.7816164E-02  0.1320468E+00
        -11   -1    0    0    0    0  0.00000000000E+00  0.00000000000E+00  0.45593999997E+02  0.45594000000E+02  0.51100000000E-03 0. -1.
         11   -1    0    0    0    0 -0.00000000000E+00 -0.00000000000E+00 -0.45593999997E+02  0.45594000000E+02  0.51100000000E-03 0.  1.
    9900012    2    1    2    0    0 -0.19982009905E+02 -0.29649851134E+02  0.27399252685E+02  0.46142318300E+02  0.10000004913E+02 0.  0.
        -12    1    1    2    0    0  0.19982009905E+02  0.29649851134E+02 -0.27399252685E+02  0.45045681700E+02  0.00000000000E+00 0.  1.
         11    1    3    3    0    0 -0.12725533903E+02 -0.13393151990E+02  0.12790424460E+02  0.22470217878E+02  0.51100000000E-03 0. -1.
        -11    1    3    3    0    0 -0.40887860316E+01 -0.61937362762E+01  0.91883519082E+01  0.11811280681E+02  0.51100000000E-03 0.  1.
        -12    1    3    3    0    0 -0.31676899704E+01 -0.10062962868E+02  0.54204763170E+01  0.11860819741E+02  0.00000000000E+00 0.  1.
</event>
<event>
 7    1  0.5153954E-009  0.4614233E+02  0.7816164E-02  0.1320468E+00
        -11   -1    0    0    0    0  0.00000000000E+00  0.00000000000E+00  0.45593999997E+02  0.45594000000E+02  0.51100000000E-03 0. -1.
         11   -1    0    0    0    0 -0.00000000000E+00 -0.00000000000E+00 -0.45593999997E+02  0.45594000000E+02  0.51100000000E-03 0.  1.
    9900012    2    1    2    0    0 -0.14881665222E+02  0.40721977769E+01  0.42320981951E+02  0.46142331309E+02  0.10000123539E+02 0.  0.
        -12    1    1    2    0    0  0.14881665222E+02 -0.40721977769E+01 -0.42320981951E+02  0.45045668691E+02  0.00000000000E+00 0.  1.
         11    1    3    3    0    0 -0.75604306918E+01 -0.12189080547E+00  0.11371536138E+02  0.13656017136E+02  0.51100000000E-03 0. -1.
        -11    1    3    3    0    0 -0.16556030369E+01 -0.90799679564E+00  0.10357145380E+02  0.10527864944E+02  0.51100000000E-03 0.  1.
         12    1    3    3    0    0 -0.56656314936E+01  0.51020853780E+01  0.20592300433E+02  0.21958449229E+02  0.00000000000E+00 0. -1.
</event>
<event>
 7    1  0.4452647E-009  0.4614232E+02  0.7816164E-02  0.1320468E+00
        -11   -1    0    0    0    0  0.00000000000E+00  0.00000000000E+00  0.45593999997E+02  0.45594000000E+02  0.51100000000E-03 0. -1.
         11   -1    0    0    0    0 -0.00000000000E+00 -0.00000000000E+00 -0.45593999997E+02  0.45594000000E+02  0.51100000000E-03 0.  1.
    9900012    2    1    2    0    0 -0.39713846850E+02 -0.32097111841E+01  0.21014794381E+02  0.46142318072E+02  0.10000002834E+02 0.  0.
        -12    1    1    2    0    0  0.39713846850E+02  0.32097111841E+01 -0.21014794381E+02  0.45045681928E+02  0.00000000000E+00 0.  1.
         11    1    3    3    0    0 -0.15649949528E+02 -0.36441820336E+01  0.82524080280E+01  0.18063865075E+02  0.51100000000E-03 0. -1.
        -11    1    3    3    0    0 -0.66427205204E+01 -0.45382718820E+00  0.34648236450E+00  0.66672142098E+01  0.51100000000E-03 0.  1.
         12    1    3    3    0    0 -0.17421176801E+02  0.88829803773E+00  0.12415903989E+02  0.21411238787E+02  0.00000000000E+00 0. -1.
</event>
<event>
 7    1  0.4452647E-009  0.4614232E+02  0.7816164E-02  0.1320468E+00
        -11   -1    0    0    0    0  0.00000000000E+00  0.00000000000E+00  0.45593999997E+02  0.45594000000E+02  0.51100000000E-03 0. -1.
         11   -1    0    0    0    0 -0.00000000000E+00 -0.00000000000E+00 -0.45593999997E+02  0.45594000000E+02  0.51100000000E-03 0.  1.
    9900012    2    1    2    0    0 -0.25710798746E+02  0.14693461981E+02  0.33943638018E+02  0.46142316977E+02  0.99999928486E+01 0.  0.
        -12    1    1    2    0    0  0.25710798746E+02 -0.14693461981E+02 -0.33943638018E+02  0.45045683023E+02  0.00000000000E+00 0.  1.
         11    1    3    3    0    0 -0.48254005060E+01  0.43894654885E+01  0.86003188265E+01  0.10794321725E+02  0.51100000000E-03 0. -1.
        -11    1    3    3    0    0 -0.15819468285E+02  0.10821914599E+02  0.17252117341E+02  0.25787690191E+02  0.51100000000E-03 0.  1.
        -12    1    3    3    0    0 -0.50659299551E+01 -0.51791810597E+00  0.80912018505E+01  0.95603050610E+01  0.00000000000E+00 0.  1.
</event>
<event>
 7    1  0.4452647E-009  0.4614232E+02  0.7816164E-02  0.1320468E+00
        -11   -1    0    0    0    0  0.00000000000E+00  0.00000000000E+00  0.45593999997E+02  0.45594000000E+02  0.51100000000E-03 0. -1.
         11   -1    0    0    0    0 -0.00000000000E+00 -0.00000000000E+00 -0.45593999997E+02  0.45594000000E+02  0.51100000000E-03 0.  1.
    9900012    2    1    2    0    0 -0.15034157043E+02  0.40174043487E+01  0.42272307893E+02  0.46142318406E+02  0.10000005877E+02 0.  0.
        -12    1    1    2    0    0  0.15034157043E+02 -0.40174043487E+01 -0.42272307893E+02  0.45045681594E+02  0.00000000000E+00 0.  1.
         11    1    3    3    0    0  0.22249674644E+00 -0.14935937510E+01  0.12690458867E+01  0.19725123115E+01  0.51100000000E-03 0. -1.
        -11    1    3    3    0    0 -0.12305004731E+02  0.35901478622E+01  0.33876409834E+02  0.36220345755E+02  0.51100000000E-03 0.  1.
        -12    1    3    3    0    0 -0.29516490585E+01  0.19208502375E+01  0.71268521725E+01  0.79494603394E+01  0.00000000000E+00 0.  1.
</event>
<event>
 7    1  0.4452647E-009  0.4614232E+02  0.7816164E-02  0.1320468E+00
        -11   -1    0    0    0    0  0.00000000000E+00  0.00000000000E+00  0.45593999997E+02  0.45594000000E+02  0.51100000000E-03 0. -1.
         11   -1    0    0    0    0 -0.00000000000E+00 -0.00000000000E+00 -0.45593999997E+02  0.45594000000E+02  0.51100000000E-03 0.  1.
    9900012    2    1    2    0    0 -0.41395710040E+02  0.11246373533E+02 -0.13748726555E+02  0.46142320860E+02  0.10000028255E+02 0.  0.
         12    1    1    2    0    0  0.41395710040E+02 -0.11246373533E+02  0.13748726555E+02  0.45045679140E+02  0.00000000000E+00 0. -1.
         11    1    3    3    0    0 -0.27393062007E+01 -0.35962122701E+00 -0.32275151719E+01  0.42485268428E+01  0.51100000000E-03 0. -1.
        -11    1    3    3    0    0 -0.34674827822E+02  0.10381674468E+02 -0.81543971592E+01  0.37102790225E+02  0.51100000000E-03 0.  1.
        -12    1    3    3    0    0 -0.39815760174E+01  0.12243202923E+01 -0.23668142239E+01  0.47910037916E+01  0.00000000000E+00 0.  1.
</event>
<event>
 7    1  0.4452647E-009  0.4614232E+02  0.7816164E-02  0.1320468E+00
        -11   -1    0    0    0    0  0.00000000000E+00  0.00000000000E+00  0.45593999997E+02  0.45594000000E+02  0.51100000000E-03 0. -1.
         11   -1    0    0    0    0 -0.00000000000E+00 -0.00000000000E+00 -0.45593999997E+02  0.45594000000E+02  0.51100000000E-03 0.  1.
    9900012    2    1    2    0    0  0.83112498036E+01 -0.40931603011E+02  0.16871290719E+02  0.46142318199E+02  0.10000003997E+02 0.  0.
        -12    1    1    2    0    0 -0.83112498036E+01  0.40931603011E+02 -0.16871290719E+02  0.45045681801E+02  0.00000000000E+00 0.  1.
         11    1    3    3    0    0 -0.10965248188E+01 -0.12801461256E+02  0.72711555873E+01  0.14763112165E+02  0.51100000000E-03 0.  1.
        -11    1    3    3    0    0  0.24463926448E+01 -0.43357081419E+01  0.64647876969E+00  0.50200734183E+01  0.51100000000E-03 0. -1.
         12    1    3    3    0    0  0.69613819776E+01 -0.23794433613E+02  0.89536563619E+01  0.26359132616E+02  0.00000000000E+00 0. -1.
</event>
<event>
 7    1  0.4452647E-009  0.4614232E+02  0.7816164E-02  0.1320468E+00
        -11   -1    0    0    0    0  0.00000000000E+00  0.00000000000E+00  0.45593999997E+02  0.45594000000E+02  0.51100000000E-03 0. -1.
         11   -1    0    0    0    0 -0.00000000000E+00 -0.00000000000E+00 -0.45593999997E+02  0.45594000000E+02  0.51100000000E-03 0.  1.
    9900012    2    1    2    0    0  0.37423371076E+02  0.17025925935E+02  0.18404418887E+02  0.46142317729E+02  0.99999997080E+01 0.  0.
        -12    1    1    2    0    0 -0.37423371076E+02 -0.17025925935E+02 -0.18404418887E+02  0.45045682271E+02  0.00000000000E+00 0.  1.
         11    1    3    3    0    0  0.11628202283E+02  0.80281481036E+01  0.98440860730E+01  0.17221274087E+02  0.51100000000E-03 0. -1.
        -11    1    3    3    0    0  0.24246870374E+02  0.93099144988E+01  0.75569019903E+01  0.27049805893E+02  0.51100000000E-03 0.  1.
         12    1    3    3    0    0  0.15482984193E+01 -0.31213666703E+00  0.10034308240E+01  0.18712377488E+01  0.00000000000E+00 0. -1.
</event>
<event>
 7    1  0.4452647E-009  0.4614232E+02  0.7816164E-02  0.1320468E+00
        -11   -1    0    0    0    0  0.00000000000E+00  0.00000000000E+00  0.45593999997E+02  0.45594000000E+02  0.51100000000E-03 0. -1.
         11   -1    0    0    0    0 -0.00000000000E+00 -0.00000000000E+00 -0.45593999997E+02  0.45594000000E+02  0.51100000000E-03 0.  1.
    9900012    2    1    2    0    0  0.23819955575E+02  0.37908773814E+02 -0.49646865325E+01  0.46142317321E+02  0.99999959880E+01 0.  0.
         12    1    1    2    0    0 -0.23819955575E+02 -0.37908773814E+02  0.49646865325E+01  0.45045682679E+02  0.00000000000E+00 0. -1.
         11    1    3    3    0    0  0.11108279041E+00  0.22406327295E+01 -0.10342477410E+01  0.24703123418E+01  0.51100000000E-03 0. -1.
        -11    1    3    3    0    0  0.13168233598E+02  0.26175521853E+02 -0.22420283090E+01  0.29386850997E+02  0.51100000000E-03 0.  1.
        -12    1    3    3    0    0  0.10540639186E+02  0.94926192316E+01 -0.16884104824E+01  0.14285153982E+02  0.00000000000E+00 0.  1.
</event>
<event>
 7    1  0.4452647E-009  0.4614232E+02  0.7816164E-02  0.1320468E+00
        -11   -1    0    0    0    0  0.00000000000E+00  0.00000000000E+00  0.45593999997E+02  0.45594000000E+02  0.51100000000E-03 0. -1.
         11   -1    0    0    0    0 -0.00000000000E+00 -0.00000000000E+00 -0.45593999997E+02  0.45594000000E+02  0.51100000000E-03 0.  1.
    9900012    2    1    2    0    0 -0.20427041697E+01 -0.25541215215E+02 -0.37048444503E+02  0.46142317020E+02  0.99999932434E+01 0.  0.
         12    1    1    2    0    0  0.20427041697E+01  0.25541215215E+02  0.37048444503E+02  0.45045682980E+02  0.00000000000E+00 0. -1.
         11    1    3    3    0    0 -0.87782599758E+00 -0.30035808349E+01 -0.11090874610E+02  0.11523869845E+02  0.51100000000E-03 0. -1.
        -11    1    3    3    0    0 -0.15191937105E+01 -0.17034995542E+02 -0.17100693779E+02  0.24185382995E+02  0.51100000000E-03 0.  1.
         12    1    3    3    0    0  0.35431553836E+00 -0.55026388384E+01 -0.88568761144E+01  0.10433064180E+02  0.00000000000E+00 0. -1.
</event>
<event>
 7    1  0.4452647E-009  0.4614231E+02  0.7816164E-02  0.1320468E+00
        -11   -1    0    0    0    0  0.00000000000E+00  0.00000000000E+00  0.45593999997E+02  0.45594000000E+02  0.51100000000E-03 0. -1.
         11   -1    0    0    0    0 -0.00000000000E+00 -0.00000000000E+00 -0.45593999997E+02  0.45594000000E+02  0.51100000000E-03 0.  1.
    9900012    2    1    2    0    0  0.13591876909E+02 -0.10480508291E+02  0.41647737082E+02  0.46142310129E+02  0.99999304000E+01 0.  0.
        -12    1    1    2    0    0 -0.13591876909E+02  0.10480508291E+02 -0.41647737082E+02  0.45045689871E+02  0.00000000000E+00 0.  1.
         11    1    3    3    0    0  0.65568180038E+01 -0.21560453826E+01  0.93265234338E+01  0.11602776980E+02  0.51100000000E-03 0. -1.
        -11    1    3    3    0    0  0.77818008860E+01 -0.64227496830E+01  0.27918615780E+02  0.29685977260E+02  0.51100000000E-03 0.  1.
        -12    1    3    3    0    0 -0.74674198095E+00 -0.19017132256E+01  0.44025978677E+01  0.48535558886E+01  0.00000000000E+00 0.  1.
</event>
<event>
 7    1  0.4452647E-009  0.4614232E+02  0.7816164E-02  0.1320468E+00
        -11   -1    0    0    0    0  0.00000000000E+00  0.00000000000E+00  0.45593999997E+02  0.45594000000E+02  0.51100000000E-03 0.  1.
         11   -1    0    0    0    0 -0.00000000000E+00 -0.00000000000E+00 -0.45593999997E+02  0.45594000000E+02  0.51100000000E-03 0. -1.
    9900012    2    1    2    0    0 -0.13836355295E+02 -0.42155442970E+02 -0.77837892947E+01  0.46142317902E+02  0.10000001289E+02 0.  0.
        -12    1    1    2    0    0  0.13836355295E+02  0.42155442970E+02  0.77837892947E+01  0.45045682098E+02  0.00000000000E+00 0.  1.
         11    1    3    3    0    0 -0.10696992802E+02 -0.35353643134E+02 -0.58937251244E+01  0.37403766307E+02  0.51100000000E-03 0. -1.
        -11    1    3    3    0    0 -0.36775738502E+00 -0.54203680274E+01 -0.12964278396E+01  0.55853702161E+01  0.51100000000E-03 0.  1.
         12    1    3    3    0    0 -0.27716051082E+01 -0.13814318084E+01 -0.59363633068E+00  0.31531813792E+01  0.00000000000E+00 0. -1.
</event>
<event>
 7    1  0.4452647E-009  0.4614232E+02  0.7816164E-02  0.1320468E+00
        -11   -1    0    0    0    0  0.00000000000E+00  0.00000000000E+00  0.45593999997E+02  0.45594000000E+02  0.51100000000E-03 0. -1.
         11   -1    0    0    0    0 -0.00000000000E+00 -0.00000000000E+00 -0.45593999997E+02  0.45594000000E+02  0.51100000000E-03 0.  1.
    9900012    2    1    2    0    0  0.43823065987E+01 -0.20676412522E+02 -0.39779326793E+02  0.46142317787E+02  0.10000000236E+02 0.  0.
         12    1    1    2    0    0 -0.43823065987E+01  0.20676412522E+02  0.39779326793E+02  0.45045682213E+02  0.00000000000E+00 0. -1.
         11    1    3    3    0    0  0.36446203792E+01 -0.22299111904E+01 -0.11734950377E+02  0.12488587680E+02  0.51100000000E-03 0. -1.
        -11    1    3    3    0    0 -0.39115700716E+00 -0.12769241640E+02 -0.20296386133E+02  0.23982281505E+02  0.51100000000E-03 0.  1.
         12    1    3    3    0    0  0.11288432267E+01 -0.56772596911E+01 -0.77479902839E+01  0.96714486025E+01  0.00000000000E+00 0. -1.
</event>
<event>
 7    1  0.4452647E-009  0.4614232E+02  0.7816164E-02  0.1320468E+00
        -11   -1    0    0    0    0  0.00000000000E+00  0.00000000000E+00  0.45593999997E+02  0.45594000000E+02  0.51100000000E-03 0. -1.
         11   -1    0    0    0    0 -0.00000000000E+00 -0.00000000000E+00 -0.45593999997E+02  0.45594000000E+02  0.51100000000E-03 0.  1.
    9900012    2    1    2    0    0 -0.21058407913E+01  0.71383189734E+01 -0.44426606404E+02  0.46142317412E+02  0.99999968163E+01 0.  0.
         12    1    1    2    0    0  0.21058407913E+01 -0.71383189734E+01  0.44426606404E+02  0.45045682588E+02  0.00000000000E+00 0. -1.
         11    1    3    3    0    0  0.56947810583E+00 -0.19961130925E+01 -0.15740965120E+02  0.15877240187E+02  0.51100000000E-03 0. -1.
        -11    1    3    3    0    0 -0.24373252028E+01  0.88061875719E+01 -0.28133123339E+02  0.29579758666E+02  0.51100000000E-03 0.  1.
         12    1    3    3    0    0 -0.23799369432E+00  0.32824449411E+00 -0.55251794569E+00  0.68531855860E+00  0.00000000000E+00 0. -1.
</event>
<event>
 7    1  0.4452647E-009  0.4614232E+02  0.7816164E-02  0.1320468E+00
        -11   -1    0    0    0    0  0.00000000000E+00  0.00000000000E+00  0.45593999997E+02  0.45594000000E+02  0.51100000000E-03 0. -1.
         11   -1    0    0    0    0 -0.00000000000E+00 -0.00000000000E+00 -0.45593999997E+02  0.45594000000E+02  0.51100000000E-03 0.  1.
    9900012    2    1    2    0    0  0.28835103753E+02 -0.22676048924E+02 -0.26142818001E+02  0.46142319450E+02  0.10000015398E+02 0.  0.
         12    1    1    2    0    0 -0.28835103753E+02  0.22676048924E+02  0.26142818001E+02  0.45045680550E+02  0.00000000000E+00 0. -1.
         11    1    3    3    0    0  0.74219978931E+01 -0.53017025681E+01 -0.87218104712E+01  0.12619987361E+02  0.51100000000E-03 0. -1.
        -11    1    3    3    0    0  0.17802695179E+02 -0.10943145540E+02 -0.15130151444E+02  0.25799416135E+02  0.51100000000E-03 0.  1.
         12    1    3    3    0    0  0.36104106814E+01 -0.64312008158E+01 -0.22908560857E+01  0.77229159536E+01  0.00000000000E+00 0. -1.
</event>
<event>
 7    1  0.4452647E-009  0.4614231E+02  0.7816164E-02  0.1320468E+00
        -11   -1    0    0    0    0  0.00000000000E+00  0.00000000000E+00  0.45593999997E+02  0.45594000000E+02  0.51100000000E-03 0.  1.
         11   -1    0    0    0    0 -0.00000000000E+00 -0.00000000000E+00 -0.45593999997E+02  0.45594000000E+02  0.51100000000E-03 0. -1.
    9900012    2    1    2    0    0 -0.42676322029E+02  0.92253518003E+01  0.11078736111E+02  0.46142312398E+02  0.99999510939E+01 0.  0.
        -12    1    1    2    0    0  0.42676322029E+02 -0.92253518003E+01 -0.11078736111E+02  0.45045687602E+02  0.00000000000E+00 0.  1.
         11    1    3    3    0    0 -0.33004588312E+02  0.39016965556E+01  0.88429434897E+01  0.34390750726E+02  0.51100000000E-03 0. -1.
        -11    1    3    3    0    0 -0.25439620438E+01  0.26315595101E+01 -0.41674526735E+00  0.36838193787E+01  0.51100000000E-03 0.  1.
        -12    1    3    3    0    0 -0.71277716725E+01  0.26920957346E+01  0.26525378886E+01  0.80677422933E+01  0.00000000000E+00 0.  1.
</event>
<event>
 7    1  0.4452647E-009  0.4614232E+02  0.7816164E-02  0.1320468E+00
        -11   -1    0    0    0    0  0.00000000000E+00  0.00000000000E+00  0.45593999997E+02  0.45594000000E+02  0.51100000000E-03 0. -1.
         11   -1    0    0    0    0 -0.00000000000E+00 -0.00000000000E+00 -0.45593999997E+02  0.45594000000E+02  0.51100000000E-03 0.  1.
    9900012    2    1    2    0    0  0.16582226984E+02  0.39509797688E+02 -0.13896730370E+02  0.46142317853E+02  0.10000000836E+02 0.  0.
         12    1    1    2    0    0 -0.16582226984E+02 -0.39509797688E+02  0.13896730370E+02  0.45045682147E+02  0.00000000000E+00 0. -1.
         11    1    3    3    0    0  0.29751900125E+01  0.16566326387E+02 -0.37301530879E+01  0.17239749647E+02  0.51100000000E-03 0. -1.
        -11    1    3    3    0    0  0.13327480100E+02  0.22753027700E+02 -0.10541164013E+02  0.28397854397E+02  0.51100000000E-03 0.  1.
        -12    1    3    3    0    0  0.27955687138E+00  0.19044360055E+00  0.37458673066E+00  0.50471380813E+00  0.00000000000E+00 0.  1.
</event>
<event>
 7    1  0.4452647E-009  0.4614231E+02  0.7816164E-02  0.1320468E+00
        -11   -1    0    0    0    0  0.00000000000E+00  0.00000000000E+00  0.45593999997E+02  0.45594000000E+02  0.51100000000E-03 0. -1.
         11   -1    0    0    0    0 -0.00000000000E+00 -0.00000000000E+00 -0.45593999997E+02  0.45594000000E+02  0.51100000000E-03 0.  1.
    9900012    2    1    2    0    0  0.37818452439E+02  0.62722547145E+01 -0.23654547065E+02  0.46142310739E+02  0.99999359706E+01 0.  0.
         12    1    1    2    0    0 -0.37818452439E+02 -0.62722547145E+01  0.23654547065E+02  0.45045689261E+02  0.00000000000E+00 0. -1.
         11    1    3    3    0    0  0.47855542322E+01  0.16332343389E+01 -0.32127114283E+00  0.50667740352E+01  0.51100000000E-03 0. -1.
        -11    1    3    3    0    0  0.16385584820E+02  0.40936103749E+01 -0.14285061922E+02  0.22120308094E+02  0.51100000000E-03 0.  1.
        -12    1    3    3    0    0  0.16647313387E+02  0.54541000058E+00 -0.90482140006E+01  0.18955228611E+02  0.00000000000E+00 0.  1.
</event>
<event>
 7    1  0.4452647E-009  0.4614232E+02  0.7816164E-02  0.1320468E+00
        -11   -1    0    0    0    0  0.00000000000E+00  0.00000000000E+00  0.45593999997E+02  0.45594000000E+02  0.51100000000E-03 0.  1.
         11   -1    0    0    0    0 -0.00000000000E+00 -0.00000000000E+00 -0.45593999997E+02  0.45594000000E+02  0.51100000000E-03 0. -1.
    9900012    2    1    2    0    0  0.18969845148E+02 -0.30787526271E+02  0.26858634548E+02  0.46142322642E+02  0.10000044511E+02 0.  0.
        -12    1    1    2    0    0 -0.18969845148E+02  0.30787526271E+02 -0.26858634548E+02  0.45045677358E+02  0.00000000000E+00 0.  1.
         11    1    3    3    0    0  0.16763466561E+02 -0.22492618068E+02  0.17484885061E+02  0.33055300400E+02  0.51100000000E-03 0. -1.
        -11    1    3    3    0    0 -0.22010575462E+00 -0.41262724097E+01  0.30607335321E+01  0.51422427557E+01  0.51100000000E-03 0.  1.
         12    1    3    3    0    0  0.24264843412E+01 -0.41686357928E+01  0.63130159555E+01  0.79447794863E+01  0.00000000000E+00 0. -1.
</event>
<event>
 7    1  0.4452647E-009  0.4614232E+02  0.7816164E-02  0.1320468E+00
        -11   -1    0    0    0    0  0.00000000000E+00  0.00000000000E+00  0.45593999997E+02  0.45594000000E+02  0.51100000000E-03 0. -1.
         11   -1    0    0    0    0 -0.00000000000E+00 -0.00000000000E+00 -0.45593999997E+02  0.45594000000E+02  0.51100000000E-03 0.  1.
    9900012    2    1    2    0    0  0.27912430244E+02  0.62103509026E+01 -0.34805763639E+02  0.46142318709E+02  0.10000008646E+02 0.  0.
         12    1    1    2    0    0 -0.27912430244E+02 -0.62103509026E+01  0.34805763639E+02  0.45045681291E+02  0.00000000000E+00 0. -1.
         11    1    3    3    0    0  0.20437615615E+02  0.13361607604E+01 -0.28100180989E+02  0.34772138696E+02  0.51100000000E-03 0. -1.
        -11    1    3    3    0    0  0.17240047021E+01  0.17349658088E+01 -0.86901210876E+00  0.25956657868E+01  0.51100000000E-03 0.  1.
        -12    1    3    3    0    0  0.57508099271E+01  0.31392243334E+01 -0.58365705406E+01  0.87745142263E+01  0.00000000000E+00 0.  1.
</event>
<event>
 7    1  0.4452647E-009  0.4614232E+02  0.7816164E-02  0.1320468E+00
        -11   -1    0    0    0    0  0.00000000000E+00  0.00000000000E+00  0.45593999997E+02  0.45594000000E+02  0.51100000000E-03 0. -1.
         11   -1    0    0    0    0 -0.00000000000E+00 -0.00000000000E+00 -0.45593999997E+02  0.45594000000E+02  0.51100000000E-03 0.  1.
    9900012    2    1    2    0    0  0.88255114327E+01  0.26720077886E+02  0.35174724437E+02  0.46142318148E+02  0.10000003529E+02 0.  0.
        -12    1    1    2    0    0 -0.88255114327E+01 -0.26720077886E+02 -0.35174724437E+02  0.45045681852E+02  0.00000000000E+00 0.  1.
         11    1    3    3    0    0  0.21340482756E+01  0.46261951813E+01  0.62299234169E+01  0.80478438069E+01  0.51100000000E-03 0. -1.
        -11    1    3    3    0    0  0.60248822697E+01  0.97748863579E+01  0.87781436295E+01  0.14453491464E+02  0.51100000000E-03 0.  1.
        -12    1    3    3    0    0  0.66658088737E+00  0.12318996347E+02  0.20166657391E+02  0.23640982877E+02  0.00000000000E+00 0.  1.
</event>
<event>
 7    1  0.4452647E-009  0.4614232E+02  0.7816164E-02  0.1320468E+00
        -11   -1    0    0    0    0  0.00000000000E+00  0.00000000000E+00  0.45593999997E+02  0.45594000000E+02  0.51100000000E-03 0. -1.
         11   -1    0    0    0    0 -0.00000000000E+00 -0.00000000000E+00 -0.45593999997E+02  0.45594000000E+02  0.51100000000E-03 0.  1.
    9900012    2    1    2    0    0 -0.66129921100E+01 -0.14694385317E+02 -0.42064913362E+02  0.46142316959E+02  0.99999926813E+01 0.  0.
         12    1    1    2    0    0  0.66129921100E+01  0.14694385317E+02  0.42064913362E+02  0.45045683041E+02  0.00000000000E+00 0. -1.
         11    1    3    3    0    0 -0.24548919127E+00 -0.19132571763E+01 -0.93807675925E+01  0.95770360160E+01  0.51100000000E-03 0. -1.
        -11    1    3    3    0    0 -0.32127722273E+00 -0.38589635787E+01 -0.17632805531E+02  0.18052995600E+02  0.51100000000E-03 0.  1.
        -12    1    3    3    0    0 -0.60462256960E+01 -0.89221645622E+01 -0.15051340239E+02  0.18512285343E+02  0.00000000000E+00 0.  1.
</event>
<event>
 7    1  0.4452647E-009  0.4614232E+02  0.7816164E-02  0.1320468E+00
        -11   -1    0    0    0    0  0.00000000000E+00  0.00000000000E+00  0.45593999997E+02  0.45594000000E+02  0.51100000000E-03 0. -1.
         11   -1    0    0    0    0 -0.00000000000E+00 -0.00000000000E+00 -0.45593999997E+02  0.45594000000E+02  0.51100000000E-03 0.  1.
    9900012    2    1    2    0    0  0.98963194007E+01  0.94381633860E+01  0.42919661547E+02  0.46142318597E+02  0.10000007619E+02 0.  0.
        -12    1    1    2    0    0 -0.98963194007E+01 -0.94381633860E+01 -0.42919661547E+02  0.45045681403E+02  0.00000000000E+00 0.  1.
         11    1    3    3    0    0  0.55448877122E+01  0.54202497881E+01  0.17071297768E+02  0.18749775872E+02  0.51100000000E-03 0. -1.
        -11    1    3    3    0    0 -0.12167660216E+01  0.32039630245E+01  0.90933066484E+01  0.97177221959E+01  0.51100000000E-03 0.  1.
         12    1    3    3    0    0  0.55681977101E+01  0.81395057336E+00  0.16755057130E+02  0.17674820529E+02  0.00000000000E+00 0. -1.
</event>
<event>
 7    1  0.4452647E-009  0.4614232E+02  0.7816164E-02  0.1320468E+00
        -11   -1    0    0    0    0  0.00000000000E+00  0.00000000000E+00  0.45593999997E+02  0.45594000000E+02  0.51100000000E-03 0.  1.
         11   -1    0    0    0    0 -0.00000000000E+00 -0.00000000000E+00 -0.45593999997E+02  0.45594000000E+02  0.51100000000E-03 0. -1.
    9900012    2    1    2    0    0 -0.44983139092E+02 -0.23546099249E+01 -0.29407648933E+00  0.46142317949E+02  0.10000001713E+02 0.  0.
         12    1    1    2    0    0  0.44983139092E+02  0.23546099249E+01  0.29407648933E+00  0.45045682051E+02  0.00000000000E+00 0. -1.
         11    1    3    3    0    0 -0.50477937406E+01  0.18144459877E+01  0.11493948802E+01  0.54857583561E+01  0.51100000000E-03 0. -1.
        -11    1    3    3    0    0 -0.27613786764E+02 -0.61989427967E+00  0.83404182366E+00  0.27633333392E+02  0.51100000000E-03 0.  1.
        -12    1    3    3    0    0 -0.12321558588E+02 -0.35491616329E+01 -0.22775131932E+01  0.13023226200E+02  0.00000000000E+00 0.  1.
</event>
<event>
 7    1  0.4452647E-009  0.4614231E+02  0.7816164E-02  0.1320468E+00
        -11   -1    0    0    0    0  0.00000000000E+00  0.00000000000E+00  0.45593999997E+02  0.45594000000E+02  0.51100000000E-03 0. -1.
         11   -1    0    0    0    0 -0.00000000000E+00 -0.00000000000E+00 -0.45593999997E+02  0.45594000000E+02  0.51100000000E-03 0.  1.
    9900012    2    1    2    0    0 -0.30285167281E+02 -0.14717935627E+02  0.29921643825E+02  0.46142314796E+02  0.99999729596E+01 0.  0.
        -12    1    1    2    0    0  0.30285167281E+02  0.14717935627E+02 -0.29921643825E+02  0.45045685204E+02  0.00000000000E+00 0.  1.
         11    1    3    3    0    0 -0.28618251435E+02 -0.13803939453E+02  0.27384297889E+02  0.41945832102E+02  0.51100000000E-03 0. -1.
        -11    1    3    3    0    0 -0.54556589239E+00  0.75730597077E+00  0.18457892322E+01  0.20683550534E+01  0.51100000000E-03 0.  1.
        -12    1    3    3    0    0 -0.11213499534E+01 -0.16713021452E+01  0.69155670334E+00  0.21281276401E+01  0.00000000000E+00 0.  1.
</event>
<event>
 7    1  0.4452647E-009  0.4614232E+02  0.7816164E-02  0.1320468E+00
        -11   -1    0    0    0    0  0.00000000000E+00  0.00000000000E+00  0.45593999997E+02  0.45594000000E+02  0.51100000000E-03 0.  1.
         11   -1    0    0    0    0 -0.00000000000E+00 -0.00000000000E+00 -0.45593999997E+02  0.45594000000E+02  0.51100000000E-03 0. -1.
    9900012    2    1    2    0    0 -0.23861717739E+02  0.35388181940E+02  0.14401683733E+02  0.46142317756E+02  0.99999999547E+01 0.  0.
        -12    1    1    2    0    0  0.23861717739E+02 -0.35388181940E+02 -0.14401683733E+02  0.45045682244E+02  0.00000000000E+00 0.  1.
         11    1    3    3    0    0 -0.12382783167E+02  0.18595811557E+02  0.34010228371E+01  0.22598771715E+02  0.51100000000E-03 0. -1.
        -11    1    3    3    0    0 -0.77955306974E+01  0.12620618506E+02  0.99978801589E+01  0.17888765141E+02  0.51100000000E-03 0.  1.
        -12    1    3    3    0    0 -0.36834038743E+01  0.41717518768E+01  0.10027807369E+01  0.56547809001E+01  0.00000000000E+00 0.  1.
</event>
<event>
 7    1  0.4452647E-009  0.4614232E+02  0.7816164E-02  0.1320468E+00
        -11   -1    0    0    0    0  0.00000000000E+00  0.00000000000E+00  0.45593999997E+02  0.45594000000E+02  0.51100000000E-03 0. -1.
         11   -1    0    0    0    0 -0.00000000000E+00 -0.00000000000E+00 -0.45593999997E+02  0.45594000000E+02  0.51100000000E-03 0.  1.
    9900012    2    1    2    0    0 -0.27298106087E+02  0.14837146815E+02  0.32615732799E+02  0.46142317105E+02  0.99999940126E+01 0.  0.
        -12    1    1    2    0    0  0.27298106087E+02 -0.14837146815E+02 -0.32615732799E+02  0.45045682895E+02  0.00000000000E+00 0.  1.
         11    1    3    3    0    0 -0.10866168831E+02  0.83910015228E+01  0.13692575221E+02  0.19389923880E+02  0.51100000000E-03 0. -1.
        -11    1    3    3    0    0 -0.13092728183E+02  0.22637208785E+01  0.15424950851E+02  0.20358611753E+02  0.51100000000E-03 0.  1.
        -12    1    3    3    0    0 -0.33392090728E+01  0.41824244137E+01  0.34982067265E+01  0.63937814718E+01  0.00000000000E+00 0.  1.
</event>
<event>
 7    1  0.8172046E-009  0.4614232E+02  0.7816164E-02  0.1320468E+00
        -11   -1    0    0    0    0  0.00000000000E+00  0.00000000000E+00  0.45593999997E+02  0.45594000000E+02  0.51100000000E-03 0. -1.
         11   -1    0    0    0    0 -0.00000000000E+00 -0.00000000000E+00 -0.45593999997E+02  0.45594000000E+02  0.51100000000E-03 0.  1.
    9900012    2    1    2    0    0  0.19711751675E+02  0.63633728102E+01  0.40000846282E+02  0.46142319064E+02  0.10000011885E+02 0.  0.
        -12    1    1    2    0    0 -0.19711751675E+02 -0.63633728102E+01 -0.40000846282E+02  0.45045680936E+02  0.00000000000E+00 0.  1.
         11    1    3    3    0    0  0.66733772801E+01 -0.98621205327E+00  0.18097529927E+02  0.19313911262E+02  0.51100000000E-03 0. -1.
        -11    1    3    3    0    0  0.13870652387E+01  0.21658092273E+01  0.23484419867E+01  0.34827947989E+01  0.51100000000E-03 0.  1.
         12    1    3    3    0    0  0.11651309157E+02  0.51837756362E+01  0.19554874369E+02  0.23345613003E+02  0.00000000000E+00 0. -1.
</event>
<event>
 7    1  0.4452647E-009  0.4614232E+02  0.7816164E-02  0.1320468E+00
        -11   -1    0    0    0    0  0.00000000000E+00  0.00000000000E+00  0.45593999997E+02  0.45594000000E+02  0.51100000000E-03 0. -1.
         11   -1    0    0    0    0 -0.00000000000E+00 -0.00000000000E+00 -0.45593999997E+02  0.45594000000E+02  0.51100000000E-03 0.  1.
    9900012    2    1    2    0    0  0.44980372597E+01 -0.13183614496E+02 -0.42837757399E+02  0.46142317751E+02  0.99999999048E+01 0.  0.
         12    1    1    2    0    0 -0.44980372597E+01  0.13183614496E+02  0.42837757399E+02  0.45045682249E+02  0.00000000000E+00 0. -1.
         11    1    3    3    0    0 -0.22031292341E+01 -0.71301515790E+01 -0.19109291043E+02  0.20514820116E+02  0.51100000000E-03 0. -1.
        -11    1    3    3    0    0  0.53715681683E+01 -0.27285257289E+01 -0.13289435243E+02  0.14591356571E+02  0.51100000000E-03 0.  1.
        -12    1    3    3    0    0  0.13295983254E+01 -0.33249371880E+01 -0.10439031112E+02  0.11036141064E+02  0.00000000000E+00 0.  1.
</event>
<event>
 7    1  0.4452647E-009  0.4614232E+02  0.7816164E-02  0.1320468E+00
        -11   -1    0    0    0    0  0.00000000000E+00  0.00000000000E+00  0.45593999997E+02  0.45594000000E+02  0.51100000000E-03 0. -1.
         11   -1    0    0    0    0 -0.00000000000E+00 -0.00000000000E+00 -0.45593999997E+02  0.45594000000E+02  0.51100000000E-03 0.  1.
    9900012    2    1    2    0    0  0.69662594050E+01  0.29785292664E+02  0.33066919467E+02  0.46142316608E+02  0.99999894893E+01 0.  0.
        -12    1    1    2    0    0 -0.69662594050E+01 -0.29785292664E+02 -0.33066919467E+02  0.45045683392E+02  0.00000000000E+00 0.  1.
         11    1    3    3    0    0  0.22882206931E+01  0.17680929939E+02  0.15810318073E+02  0.23828919306E+02  0.51100000000E-03 0. -1.
        -11    1    3    3    0    0  0.45139678218E+01  0.56044947968E+01  0.11818713535E+02  0.13837205545E+02  0.51100000000E-03 0.  1.
        -12    1    3    3    0    0  0.16407089015E+00  0.64998679278E+01  0.54378878593E+01  0.84761917573E+01  0.00000000000E+00 0.  1.
</event>
<event>
 7    1  0.4452647E-009  0.4614232E+02  0.7816164E-02  0.1320468E+00
        -11   -1    0    0    0    0  0.00000000000E+00  0.00000000000E+00  0.45593999997E+02  0.45594000000E+02  0.51100000000E-03 0. -1.
         11   -1    0    0    0    0 -0.00000000000E+00 -0.00000000000E+00 -0.45593999997E+02  0.45594000000E+02  0.51100000000E-03 0.  1.
    9900012    2    1    2    0    0 -0.33646793361E+02  0.99528610480E+01  0.28247962010E+02  0.46142317585E+02  0.99999983914E+01 0.  0.
        -12    1    1    2    0    0  0.33646793361E+02 -0.99528610480E+01 -0.28247962010E+02  0.45045682415E+02  0.00000000000E+00 0.  1.
         11    1    3    3    0    0 -0.33999705941E+01  0.21852728850E+01  0.64438732601E+01  0.76064919954E+01  0.51100000000E-03 0. -1.
        -11    1    3    3    0    0 -0.21748010050E+01  0.23169239889E+01  0.21589672198E+01  0.38417490676E+01  0.51100000000E-03 0.  1.
         12    1    3    3    0    0 -0.28072021762E+02  0.54506641741E+01  0.19645121530E+02  0.34694076522E+02  0.00000000000E+00 0. -1.
</event>
<event>
 7    1  0.4452647E-009  0.4614231E+02  0.7816164E-02  0.1320468E+00
        -11   -1    0    0    0    0  0.00000000000E+00  0.00000000000E+00  0.45593999997E+02  0.45594000000E+02  0.51100000000E-03 0. -1.
         11   -1    0    0    0    0 -0.00000000000E+00 -0.00000000000E+00 -0.45593999997E+02  0.45594000000E+02  0.51100000000E-03 0.  1.
    9900012    2    1    2    0    0  0.10858661573E+02  0.11163397102E+02 -0.42267977706E+02  0.46142313132E+02  0.99999577889E+01 0.  0.
         12    1    1    2    0    0 -0.10858661573E+02 -0.11163397102E+02  0.42267977706E+02  0.45045686868E+02  0.00000000000E+00 0. -1.
         11    1    3    3    0    0  0.28013737636E+01  0.24233239794E+01 -0.38271721061E+01  0.53261093364E+01  0.51100000000E-03 0. -1.
        -11    1    3    3    0    0  0.55527729007E+01  0.15143640655E+01 -0.20958357476E+02  0.21734289355E+02  0.51100000000E-03 0.  1.
        -12    1    3    3    0    0  0.25045149088E+01  0.72257090575E+01 -0.17482448124E+02  0.19081914441E+02  0.00000000000E+00 0.  1.
</event>
<event>
 7    1  0.4452647E-009  0.4614232E+02  0.7816164E-02  0.1320468E+00
        -11   -1    0    0    0    0  0.00000000000E+00  0.00000000000E+00  0.45593999997E+02  0.45594000000E+02  0.51100000000E-03 0. -1.
         11   -1    0    0    0    0 -0.00000000000E+00 -0.00000000000E+00 -0.45593999997E+02  0.45594000000E+02  0.51100000000E-03 0.  1.
    9900012    2    1    2    0    0 -0.27457002455E+02 -0.15390000835E+02  0.32223816347E+02  0.46142318192E+02  0.10000003933E+02 0.  0.
        -12    1    1    2    0    0  0.27457002455E+02  0.15390000835E+02 -0.32223816347E+02  0.45045681808E+02  0.00000000000E+00 0.  1.
         11    1    3    3    0    0 -0.12570143322E+02 -0.75689170707E+01  0.14896773082E+02  0.20909587688E+02  0.51100000000E-03 0. -1.
        -11    1    3    3    0    0 -0.36349692356E+01 -0.80636551900E+00  0.85664238124E+01  0.93406019019E+01  0.51100000000E-03 0.  1.
        -12    1    3    3    0    0 -0.11251889898E+02 -0.70147182450E+01  0.87606194529E+01  0.15892128603E+02  0.00000000000E+00 0.  1.
</event>
<event>
 7    1  0.4452647E-009  0.4614232E+02  0.7816164E-02  0.1320468E+00
        -11   -1    0    0    0    0  0.00000000000E+00  0.00000000000E+00  0.45593999997E+02  0.45594000000E+02  0.51100000000E-03 0. -1.
         11   -1    0    0    0    0 -0.00000000000E+00 -0.00000000000E+00 -0.45593999997E+02  0.45594000000E+02  0.51100000000E-03 0.  1.
    9900012    2    1    2    0    0  0.35258836242E+02  0.17964448601E+02 -0.21522232406E+02  0.46142318360E+02  0.10000005460E+02 0.  0.
         12    1    1    2    0    0 -0.35258836242E+02 -0.17964448601E+02  0.21522232406E+02  0.45045681640E+02  0.00000000000E+00 0. -1.
         11    1    3    3    0    0  0.67398649364E+01  0.52888520906E+01 -0.29778491964E+01  0.90700232576E+01  0.51100000000E-03 0. -1.
        -11    1    3    3    0    0  0.26287303565E+02  0.10767822062E+02 -0.14019343508E+02  0.31678230905E+02  0.51100000000E-03 0.  1.
         12    1    3    3    0    0  0.22316677410E+01  0.19077744486E+01 -0.45250397021E+01  0.53940641968E+01  0.00000000000E+00 0. -1.
</event>
<event>
 7    1  0.4452647E-009  0.4614232E+02  0.7816164E-02  0.1320468E+00
        -11   -1    0    0    0    0  0.00000000000E+00  0.00000000000E+00  0.45593999997E+02  0.45594000000E+02  0.51100000000E-03 0. -1.
         11   -1    0    0    0    0 -0.00000000000E+00 -0.00000000000E+00 -0.45593999997E+02  0.45594000000E+02  0.51100000000E-03 0.  1.
    9900012    2    1    2    0    0  0.55832876821E+01  0.52904298611E+01  0.44384138180E+02  0.46142317949E+02  0.10000001714E+02 0.  0.
        -12    1    1    2    0    0 -0.55832876821E+01 -0.52904298611E+01 -0.44384138180E+02  0.45045682051E+02  0.00000000000E+00 0.  1.
         11    1    3    3    0    0  0.22960667900E+01 -0.25767291192E+01  0.73863477480E+01  0.81528883822E+01  0.51100000000E-03 0. -1.
        -11    1    3    3    0    0  0.15453560848E+01  0.52650366816E+01  0.24158323560E+02  0.24773641924E+02  0.51100000000E-03 0.  1.
        -12    1    3    3    0    0  0.17418648072E+01  0.26021222986E+01  0.12839466872E+02  0.13215787643E+02  0.00000000000E+00 0.  1.
</event>
<event>
 7    1  0.4452647E-009  0.4614232E+02  0.7816164E-02  0.1320468E+00
        -11   -1    0    0    0    0  0.00000000000E+00  0.00000000000E+00  0.45593999997E+02  0.45594000000E+02  0.51100000000E-03 0. -1.
         11   -1    0    0    0    0 -0.00000000000E+00 -0.00000000000E+00 -0.45593999997E+02  0.45594000000E+02  0.51100000000E-03 0.  1.
    9900012    2    1    2    0    0 -0.11365254738E+02 -0.29001632679E+02 -0.32539972760E+02  0.46142317182E+02  0.99999947223E+01 0.  0.
         12    1    1    2    0    0  0.11365254738E+02  0.29001632679E+02  0.32539972760E+02  0.45045682818E+02  0.00000000000E+00 0. -1.
         11    1    3    3    0    0  0.50951284255E+00 -0.30003108026E+01 -0.49872720034E+01  0.58424610008E+01  0.51100000000E-03 0.  1.
        -11    1    3    3    0    0 -0.92712459837E+01 -0.18862508349E+02 -0.15757021528E+02  0.26268497311E+02  0.51100000000E-03 0. -1.
         12    1    3    3    0    0 -0.26035215966E+01 -0.71388135278E+01 -0.11795679228E+02  0.14031358870E+02  0.00000000000E+00 0. -1.
</event>
<event>
 7    1  0.4452647E-009  0.4614232E+02  0.7816164E-02  0.1320468E+00
        -11   -1    0    0    0    0  0.00000000000E+00  0.00000000000E+00  0.45593999997E+02  0.45594000000E+02  0.51100000000E-03 0. -1.
         11   -1    0    0    0    0 -0.00000000000E+00 -0.00000000000E+00 -0.45593999997E+02  0.45594000000E+02  0.51100000000E-03 0.  1.
    9900012    2    1    2    0    0  0.20535833860E+02  0.34399142653E+02 -0.20593495054E+02  0.46142317342E+02  0.99999961751E+01 0.  0.
         12    1    1    2    0    0 -0.20535833860E+02 -0.34399142653E+02  0.20593495054E+02  0.45045682658E+02  0.00000000000E+00 0. -1.
         11    1    3    3    0    0  0.11321216310E+02  0.12568047922E+02 -0.10966986066E+02  0.20159378734E+02  0.51100000000E-03 0. -1.
        -11    1    3    3    0    0  0.23019540793E+01  0.69874315206E+01 -0.52369265155E+01  0.90304258719E+01  0.51100000000E-03 0.  1.
        -12    1    3    3    0    0  0.69126634708E+01  0.14843663210E+02 -0.43895824724E+01  0.16952512736E+02  0.00000000000E+00 0.  1.
</event>
<event>
 7    1  0.4452647E-009  0.4614232E+02  0.7816164E-02  0.1320468E+00
        -11   -1    0    0    0    0  0.00000000000E+00  0.00000000000E+00  0.45593999997E+02  0.45594000000E+02  0.51100000000E-03 0. -1.
         11   -1    0    0    0    0 -0.00000000000E+00 -0.00000000000E+00 -0.45593999997E+02  0.45594000000E+02  0.51100000000E-03 0.  1.
    9900012    2    1    2    0    0  0.18761742635E+02 -0.16567451517E+02 -0.37451702456E+02  0.46142318150E+02  0.10000003545E+02 0.  0.
         12    1    1    2    0    0 -0.18761742635E+02  0.16567451517E+02  0.37451702456E+02  0.45045681850E+02  0.00000000000E+00 0. -1.
         11    1    3    3    0    0  0.72338037407E+01 -0.80790384857E+01 -0.12017756425E+02  0.16187193987E+02  0.51100000000E-03 0. -1.
        -11    1    3    3    0    0  0.52341972181E-01 -0.21352635072E+01 -0.13380769339E+01  0.25204245812E+01  0.51100000000E-03 0.  1.
        -12    1    3    3    0    0  0.11475596923E+02 -0.63531495242E+01 -0.24095869097E+02  0.27434699582E+02  0.00000000000E+00 0.  1.
</event>
<event>
 7    1  0.4452647E-009  0.4614232E+02  0.7816164E-02  0.1320468E+00
        -11   -1    0    0    0    0  0.00000000000E+00  0.00000000000E+00  0.45593999997E+02  0.45594000000E+02  0.51100000000E-03 0.  1.
         11   -1    0    0    0    0 -0.00000000000E+00 -0.00000000000E+00 -0.45593999997E+02  0.45594000000E+02  0.51100000000E-03 0. -1.
    9900012    2    1    2    0    0  0.33628813046E+02 -0.22107631779E+02  0.20235329646E+02  0.46142323008E+02  0.10000047849E+02 0.  0.
         12    1    1    2    0    0 -0.33628813046E+02  0.22107631779E+02 -0.20235329646E+02  0.45045676992E+02  0.00000000000E+00 0. -1.
         11    1    3    3    0    0  0.54354180334E+01 -0.80671858486E+00  0.27380380287E+01  0.61393335616E+01  0.51100000000E-03 0. -1.
        -11    1    3    3    0    0  0.13417040405E+01 -0.32690368844E+01  0.88930478588E+00  0.36438489468E+01  0.51100000000E-03 0.  1.
        -12    1    3    3    0    0  0.26851690972E+02 -0.18031876309E+02  0.16607986832E+02  0.36359140500E+02  0.00000000000E+00 0.  1.
</event>
<event>
 7    1  0.4452647E-009  0.4614232E+02  0.7816164E-02  0.1320468E+00
        -11   -1    0    0    0    0  0.00000000000E+00  0.00000000000E+00  0.45593999997E+02  0.45594000000E+02  0.51100000000E-03 0. -1.
         11   -1    0    0    0    0 -0.00000000000E+00 -0.00000000000E+00 -0.45593999997E+02  0.45594000000E+02  0.51100000000E-03 0.  1.
    9900012    2    1    2    0    0 -0.19165039655E+02  0.15745958067E+02 -0.37601589446E+02  0.46142317973E+02  0.10000001932E+02 0.  0.
         12    1    1    2    0    0  0.19165039655E+02 -0.15745958067E+02  0.37601589446E+02  0.45045682027E+02  0.00000000000E+00 0. -1.
         11    1    3    3    0    0 -0.49150096916E+01  0.12269738960E+01 -0.88690314506E+01  0.10213838864E+02  0.51100000000E-03 0. -1.
        -11    1    3    3    0    0 -0.39745464025E+01  0.35287624576E+01 -0.13543596781E+02  0.14549164843E+02  0.51100000000E-03 0.  1.
        -12    1    3    3    0    0 -0.10275483561E+02  0.10990221713E+02 -0.15188961214E+02  0.21379314266E+02  0.00000000000E+00 0.  1.
</event>
<event>
 7    1  0.4452647E-009  0.4614232E+02  0.7816164E-02  0.1320468E+00
        -11   -1    0    0    0    0  0.00000000000E+00  0.00000000000E+00  0.45593999997E+02  0.45594000000E+02  0.51100000000E-03 0.  1.
         11   -1    0    0    0    0 -0.00000000000E+00 -0.00000000000E+00 -0.45593999997E+02  0.45594000000E+02  0.51100000000E-03 0. -1.
    9900012    2    1    2    0    0 -0.36055942462E+02  0.26517552645E+02 -0.50893812711E+01  0.46142318888E+02  0.10000010277E+02 0.  0.
         12    1    1    2    0    0  0.36055942462E+02 -0.26517552645E+02  0.50893812711E+01  0.45045681112E+02  0.00000000000E+00 0. -1.
         11    1    3    3    0    0 -0.68064814325E+01  0.19221603398E+01 -0.90513455142E+00  0.71303687619E+01  0.51100000000E-03 0. -1.
        -11    1    3    3    0    0 -0.18668638866E+02  0.13847322107E+02  0.40424151522E+00  0.23247146451E+02  0.51100000000E-03 0.  1.
         12    1    3    3    0    0 -0.10580822164E+02  0.10748070198E+02 -0.45884882349E+01  0.15764803676E+02  0.00000000000E+00 0. -1.
</event>
<event>
 7    1  0.4452647E-009  0.4614232E+02  0.7816164E-02  0.1320468E+00
        -11   -1    0    0    0    0  0.00000000000E+00  0.00000000000E+00  0.45593999997E+02  0.45594000000E+02  0.51100000000E-03 0. -1.
         11   -1    0    0    0    0 -0.00000000000E+00 -0.00000000000E+00 -0.45593999997E+02  0.45594000000E+02  0.51100000000E-03 0.  1.
    9900012    2    1    2    0    0 -0.19034288320E+02 -0.40154116509E+01  0.40628633122E+02  0.46142317721E+02  0.99999996351E+01 0.  0.
        -12    1    1    2    0    0  0.19034288320E+02  0.40154116509E+01 -0.40628633122E+02  0.45045682279E+02  0.00000000000E+00 0.  1.
         11    1    3    3    0    0 -0.10064924898E+02 -0.43720336510E+01  0.27299150790E+02  0.29422117965E+02  0.51100000000E-03 0. -1.
        -11    1    3    3    0    0 -0.50601202738E+01  0.88755120145E+00  0.37508228134E+01  0.63609147423E+01  0.51100000000E-03 0.  1.
         12    1    3    3    0    0 -0.39092431489E+01 -0.53092920134E+00  0.95786595190E+01  0.10359285014E+02  0.00000000000E+00 0. -1.
</event>
<event>
 7    1  0.4452647E-009  0.4614233E+02  0.7816164E-02  0.1320468E+00
        -11   -1    0    0    0    0  0.00000000000E+00  0.00000000000E+00  0.45593999997E+02  0.45594000000E+02  0.51100000000E-03 0. -1.
         11   -1    0    0    0    0 -0.00000000000E+00 -0.00000000000E+00 -0.45593999997E+02  0.45594000000E+02  0.51100000000E-03 0.  1.
    9900012    2    1    2    0    0 -0.20687761814E+02 -0.10657645475E+02  0.38568681348E+02  0.46142333428E+02  0.10000142866E+02 0.  0.
        -12    1    1    2    0    0  0.20687761814E+02  0.10657645475E+02 -0.38568681348E+02  0.45045666572E+02  0.00000000000E+00 0.  1.
         11    1    3    3    0    0 -0.55914202056E+01 -0.54189387879E+01  0.10967314329E+02  0.13450310827E+02  0.51100000000E-03 0. -1.
        -11    1    3    3    0    0 -0.92479497796E+01 -0.34864652940E+00  0.19402511359E+02  0.21496594540E+02  0.51100000000E-03 0.  1.
        -12    1    3    3    0    0 -0.58483918289E+01 -0.48900601579E+01  0.81988556605E+01  0.11195428061E+02  0.00000000000E+00 0.  1.
</event>
<event>
 7    1  0.4452647E-009  0.4614232E+02  0.7816164E-02  0.1320468E+00
        -11   -1    0    0    0    0  0.00000000000E+00  0.00000000000E+00  0.45593999997E+02  0.45594000000E+02  0.51100000000E-03 0. -1.
         11   -1    0    0    0    0 -0.00000000000E+00 -0.00000000000E+00 -0.45593999997E+02  0.45594000000E+02  0.51100000000E-03 0.  1.
    9900012    2    1    2    0    0  0.13994491893E+02 -0.24173698586E+02  0.35339779854E+02  0.46142317113E+02  0.99999940868E+01 0.  0.
        -12    1    1    2    0    0 -0.13994491893E+02  0.24173698586E+02 -0.35339779854E+02  0.45045682887E+02  0.00000000000E+00 0.  1.
         11    1    3    3    0    0  0.31585578101E+01 -0.65027981737E+01  0.12841670510E+02  0.14736735502E+02  0.51100000000E-03 0. -1.
        -11    1    3    3    0    0  0.61264059437E+01 -0.15383908244E+02  0.18423372752E+02  0.24771317011E+02  0.51100000000E-03 0.  1.
        -12    1    3    3    0    0  0.47095281396E+01 -0.22869921678E+01  0.40747365922E+01  0.66342645990E+01  0.00000000000E+00 0.  1.
</event>
<event>
 7    1  0.4452647E-009  0.4614232E+02  0.7816164E-02  0.1320468E+00
        -11   -1    0    0    0    0  0.00000000000E+00  0.00000000000E+00  0.45593999997E+02  0.45594000000E+02  0.51100000000E-03 0. -1.
         11   -1    0    0    0    0 -0.00000000000E+00 -0.00000000000E+00 -0.45593999997E+02  0.45594000000E+02  0.51100000000E-03 0.  1.
    9900012    2    1    2    0    0 -0.43232961867E+01  0.29759892206E+02  0.33537612105E+02  0.46142317635E+02  0.99999988507E+01 0.  0.
        -12    1    1    2    0    0  0.43232961867E+01 -0.29759892206E+02 -0.33537612105E+02  0.45045682365E+02  0.00000000000E+00 0.  1.
         11    1    3    3    0    0  0.95473144533E+00  0.54080844835E+01  0.52307103746E+01  0.75841427464E+01  0.51100000000E-03 0. -1.
        -11    1    3    3    0    0 -0.12330039245E+01  0.13207184981E+02  0.94604139145E+01  0.16292619970E+02  0.51100000000E-03 0.  1.
        -12    1    3    3    0    0 -0.40450237076E+01  0.11144622742E+02  0.18846487816E+02  0.22265554919E+02  0.00000000000E+00 0.  1.
</event>
<event>
 7    1  0.4452647E-009  0.4614232E+02  0.7816164E-02  0.1320468E+00
        -11   -1    0    0    0    0  0.00000000000E+00  0.00000000000E+00  0.45593999997E+02  0.45594000000E+02  0.51100000000E-03 0.  1.
         11   -1    0    0    0    0 -0.00000000000E+00 -0.00000000000E+00 -0.45593999997E+02  0.45594000000E+02  0.51100000000E-03 0. -1.
    9900012    2    1    2    0    0  0.41637523599E+02 -0.20420953437E+01  0.17066338060E+02  0.46142318524E+02  0.10000006959E+02 0.  0.
        -12    1    1    2    0    0 -0.41637523599E+02  0.20420953437E+01 -0.17066338060E+02  0.45045681476E+02  0.00000000000E+00 0.  1.
         11    1    3    3    0    0  0.21586659780E+02  0.47756585424E+00  0.44052352720E+01  0.22036743127E+02  0.51100000000E-03 0. -1.
        -11    1    3    3    0    0  0.38626366112E+01 -0.14482397191E+01  0.38547811473E+01  0.56459452555E+01  0.51100000000E-03 0.  1.
        -12    1    3    3    0    0  0.16188227207E+02 -0.10714214789E+01  0.88063216412E+01  0.18459630141E+02  0.00000000000E+00 0.  1.
</event>
<event>
 7    1  0.4452647E-009  0.4614232E+02  0.7816164E-02  0.1320468E+00
        -11   -1    0    0    0    0  0.00000000000E+00  0.00000000000E+00  0.45593999997E+02  0.45594000000E+02  0.51100000000E-03 0. -1.
         11   -1    0    0    0    0 -0.00000000000E+00 -0.00000000000E+00 -0.45593999997E+02  0.45594000000E+02  0.51100000000E-03 0.  1.
    9900012    2    1    2    0    0  0.19052620251E+02 -0.95071704489E+01  0.39695398649E+02  0.46142319827E+02  0.10000018834E+02 0.  0.
        -12    1    1    2    0    0 -0.19052620251E+02  0.95071704489E+01 -0.39695398649E+02  0.45045680173E+02  0.00000000000E+00 0.  1.
         11    1    3    3    0    0  0.78351407660E+01 -0.76542821193E+00  0.10927947938E+02  0.13468309381E+02  0.51100000000E-03 0. -1.
        -11    1    3    3    0    0  0.69211502374E+01 -0.87214930668E+01  0.19392831111E+02  0.22361767835E+02  0.51100000000E-03 0.  1.
         12    1    3    3    0    0  0.42963292479E+01 -0.20249170094E-01  0.93746195998E+01  0.10312242611E+02  0.00000000000E+00 0. -1.
</event>
<event>
 7    1  0.4452647E-009  0.4614232E+02  0.7816164E-02  0.1320468E+00
        -11   -1    0    0    0    0  0.00000000000E+00  0.00000000000E+00  0.45593999997E+02  0.45594000000E+02  0.51100000000E-03 0.  1.
         11   -1    0    0    0    0 -0.00000000000E+00 -0.00000000000E+00 -0.45593999997E+02  0.45594000000E+02  0.51100000000E-03 0. -1.
    9900012    2    1    2    0    0 -0.25073516251E+02 -0.23255743693E+02  0.29318983959E+02  0.46142315941E+02  0.99999834066E+01 0.  0.
        -12    1    1    2    0    0  0.25073516251E+02  0.23255743693E+02 -0.29318983959E+02  0.45045684059E+02  0.00000000000E+00 0.  1.
         11    1    3    3    0    0 -0.19092678028E+02 -0.19618630152E+02  0.21193505154E+02  0.34620595955E+02  0.51100000000E-03 0. -1.
        -11    1    3    3    0    0 -0.22644621519E+01 -0.34027621754E+01  0.25516900091E+01  0.48184750101E+01  0.51100000000E-03 0.  1.
         12    1    3    3    0    0 -0.37163760715E+01 -0.23435136535E+00  0.55737887957E+01  0.67032449758E+01  0.00000000000E+00 0. -1.
</event>
<event>
 7    1  0.4452647E-009  0.4614232E+02  0.7816164E-02  0.1320468E+00
        -11   -1    0    0    0    0  0.00000000000E+00  0.00000000000E+00  0.45593999997E+02  0.45594000000E+02  0.51100000000E-03 0. -1.
         11   -1    0    0    0    0 -0.00000000000E+00 -0.00000000000E+00 -0.45593999997E+02  0.45594000000E+02  0.51100000000E-03 0.  1.
    9900012    2    1    2    0    0  0.79758344016E+01 -0.28811542354E+02 -0.33695616942E+02  0.46142317540E+02  0.99999979800E+01 0.  0.
         12    1    1    2    0    0 -0.79758344016E+01  0.28811542354E+02  0.33695616942E+02  0.45045682460E+02  0.00000000000E+00 0. -1.
         11    1    3    3    0    0  0.52172884938E+01 -0.20261443257E+02 -0.22518583957E+02  0.30738132763E+02  0.51100000000E-03 0.  1.
        -11    1    3    3    0    0 -0.12718768657E+01 -0.45319625004E+01 -0.35899788101E+01  0.59198228845E+01  0.51100000000E-03 0. -1.
         12    1    3    3    0    0  0.40304227734E+01 -0.40181365971E+01 -0.75870541751E+01  0.94843618921E+01  0.00000000000E+00 0. -1.
</event>
<event>
 7    1  0.4452647E-009  0.4614232E+02  0.7816164E-02  0.1320468E+00
        -11   -1    0    0    0    0  0.00000000000E+00  0.00000000000E+00  0.45593999997E+02  0.45594000000E+02  0.51100000000E-03 0. -1.
         11   -1    0    0    0    0 -0.00000000000E+00 -0.00000000000E+00 -0.45593999997E+02  0.45594000000E+02  0.51100000000E-03 0.  1.
    9900012    2    1    2    0    0  0.47508754894E+01  0.16901223502E+02 -0.41483627622E+02  0.46142317249E+02  0.99999953346E+01 0.  0.
         12    1    1    2    0    0 -0.47508754894E+01 -0.16901223502E+02  0.41483627622E+02  0.45045682751E+02  0.00000000000E+00 0. -1.
         11    1    3    3    0    0  0.19003544183E+01  0.46224933652E+01 -0.50654822497E+01  0.71160313736E+01  0.51100000000E-03 0. -1.
        -11    1    3    3    0    0  0.12500838557E+01  0.49654485354E+01 -0.23883287085E+02  0.24426006449E+02  0.51100000000E-03 0.  1.
        -12    1    3    3    0    0  0.16004372154E+01  0.73132816010E+01 -0.12534858287E+02  0.14600279427E+02  0.00000000000E+00 0.  1.
</event>
<event>
 7    1  0.4452647E-009  0.4614232E+02  0.7816164E-02  0.1320468E+00
        -11   -1    0    0    0    0  0.00000000000E+00  0.00000000000E+00  0.45593999997E+02  0.45594000000E+02  0.51100000000E-03 0. -1.
         11   -1    0    0    0    0 -0.00000000000E+00 -0.00000000000E+00 -0.45593999997E+02  0.45594000000E+02  0.51100000000E-03 0.  1.
    9900012    2    1    2    0    0  0.36560766189E+02  0.24906966402E+02  0.84892206984E+01  0.46142317990E+02  0.10000002083E+02 0.  0.
        -12    1    1    2    0    0 -0.36560766189E+02 -0.24906966402E+02 -0.84892206984E+01  0.45045682010E+02  0.00000000000E+00 0.  1.
         11    1    3    3    0    0  0.72628629644E+01  0.17654720303E+01  0.21877562106E+01  0.77879616992E+01  0.51100000000E-03 0. -1.
        -11    1    3    3    0    0  0.50716234439E+01  0.71842748835E+01  0.21108926186E+01  0.90438397745E+01  0.51100000000E-03 0.  1.
         12    1    3    3    0    0  0.24226279781E+02  0.15957219489E+02  0.41905718692E+01  0.29310516516E+02  0.00000000000E+00 0. -1.
</event>
<event>
 7    1  0.4452647E-009  0.4614232E+02  0.7816164E-02  0.1320468E+00
        -11   -1    0    0    0    0  0.00000000000E+00  0.00000000000E+00  0.45593999997E+02  0.45594000000E+02  0.51100000000E-03 0.  1.
         11   -1    0    0    0    0 -0.00000000000E+00 -0.00000000000E+00 -0.45593999997E+02  0.45594000000E+02  0.51100000000E-03 0. -1.
    9900012    2    1    2    0    0  0.19873208130E+02 -0.39271008085E+02 -0.95894201514E+01  0.46142318118E+02  0.10000003257E+02 0.  0.
         12    1    1    2    0    0 -0.19873208130E+02  0.39271008085E+02  0.95894201514E+01  0.45045681882E+02  0.00000000000E+00 0. -1.
         11    1    3    3    0    0  0.48598889645E+01 -0.18725114011E+02 -0.33411200615E+01  0.19631900036E+02  0.51100000000E-03 0.  1.
        -11    1    3    3    0    0  0.13681327201E+02 -0.19713146409E+02 -0.66283544272E+01  0.24894214950E+02  0.51100000000E-03 0. -1.
         12    1    3    3    0    0  0.13319919645E+01 -0.83274766430E+00  0.38005433722E+00  0.16162031324E+01  0.00000000000E+00 0. -1.
</event>
<event>
 7    1  0.4452647E-009  0.4614232E+02  0.7816164E-02  0.1320468E+00
        -11   -1    0    0    0    0  0.00000000000E+00  0.00000000000E+00  0.45593999997E+02  0.45594000000E+02  0.51100000000E-03 0. -1.
         11   -1    0    0    0    0 -0.00000000000E+00 -0.00000000000E+00 -0.45593999997E+02  0.45594000000E+02  0.51100000000E-03 0.  1.
    9900012    2    1    2    0    0 -0.11481388337E+02  0.15028195944E+02 -0.40883302388E+02  0.46142319124E+02  0.10000012429E+02 0.  0.
         12    1    1    2    0    0  0.11481388337E+02 -0.15028195944E+02  0.40883302388E+02  0.45045680876E+02  0.00000000000E+00 0. -1.
         11    1    3    3    0    0  0.78877372035E+00  0.43840464423E+01 -0.12517719341E+02  0.13286659661E+02  0.51100000000E-03 0. -1.
        -11    1    3    3    0    0 -0.59723587041E+01  0.66511701571E+01 -0.17865587204E+02  0.19977145425E+02  0.51100000000E-03 0.  1.
         12    1    3    3    0    0 -0.62978033530E+01  0.39929793441E+01 -0.10499995843E+02  0.12878514038E+02  0.00000000000E+00 0. -1.
</event>
<event>
 7    1  0.4452647E-009  0.4614232E+02  0.7816164E-02  0.1320468E+00
        -11   -1    0    0    0    0  0.00000000000E+00  0.00000000000E+00  0.45593999997E+02  0.45594000000E+02  0.51100000000E-03 0. -1.
         11   -1    0    0    0    0 -0.00000000000E+00 -0.00000000000E+00 -0.45593999997E+02  0.45594000000E+02  0.51100000000E-03 0.  1.
    9900012    2    1    2    0    0 -0.78133506591E+01  0.10419556434E+02 -0.43121895803E+02  0.46142317605E+02  0.99999985732E+01 0.  0.
         12    1    1    2    0    0  0.78133506591E+01 -0.10419556434E+02  0.43121895803E+02  0.45045682395E+02  0.00000000000E+00 0. -1.
         11    1    3    3    0    0 -0.46632752367E+01  0.47150232356E+01 -0.25590687999E+02  0.26435977239E+02  0.51100000000E-03 0. -1.
        -11    1    3    3    0    0 -0.13563698868E+00  0.17218026092E+01 -0.12492917766E+02  0.12611740411E+02  0.51100000000E-03 0.  1.
         12    1    3    3    0    0 -0.30144384337E+01  0.39827305892E+01 -0.50382900386E+01  0.70945999556E+01  0.00000000000E+00 0. -1.
</event>
<event>
 7    1  0.4452647E-009  0.4614232E+02  0.7816164E-02  0.1320468E+00
        -11   -1    0    0    0    0  0.00000000000E+00  0.00000000000E+00  0.45593999997E+02  0.45594000000E+02  0.51100000000E-03 0. -1.
         11   -1    0    0    0    0 -0.00000000000E+00 -0.00000000000E+00 -0.45593999997E+02  0.45594000000E+02  0.51100000000E-03 0.  1.
    9900012    2    1    2    0    0  0.75541036875E+01 -0.54629337080E+01 -0.44070458109E+02  0.46142318685E+02  0.10000008424E+02 0.  0.
         12    1    1    2    0    0 -0.75541036875E+01  0.54629337080E+01  0.44070458109E+02  0.45045681315E+02  0.00000000000E+00 0. -1.
         11    1    3    3    0    0 -0.11869378417E+01  0.51822081469E+00 -0.15674611131E+01  0.20332999915E+01  0.51100000000E-03 0.  1.
        -11    1    3    3    0    0  0.38846395936E+01  0.15774459626E+00 -0.16597377587E+02  0.17046649265E+02  0.51100000000E-03 0. -1.
        -12    1    3    3    0    0  0.48564019356E+01 -0.61388991190E+01 -0.25905619408E+02  0.27062369428E+02  0.00000000000E+00 0.  1.
</event>
<event>
 7    1  0.4452647E-009  0.4614232E+02  0.7816164E-02  0.1320468E+00
        -11   -1    0    0    0    0  0.00000000000E+00  0.00000000000E+00  0.45593999997E+02  0.45594000000E+02  0.51100000000E-03 0. -1.
         11   -1    0    0    0    0 -0.00000000000E+00 -0.00000000000E+00 -0.45593999997E+02  0.45594000000E+02  0.51100000000E-03 0.  1.
    9900012    2    1    2    0    0 -0.29365859645E+02 -0.16707865928E+02 -0.29792734274E+02  0.46142317498E+02  0.99999975992E+01 0.  0.
         12    1    1    2    0    0  0.29365859645E+02  0.16707865928E+02  0.29792734274E+02  0.45045682502E+02  0.00000000000E+00 0. -1.
         11    1    3    3    0    0 -0.10889852373E+02 -0.17946963664E+01 -0.95860588179E+01  0.14618561614E+02  0.51100000000E-03 0. -1.
        -11    1    3    3    0    0 -0.13815922151E+02 -0.91323243900E+01 -0.11970285955E+02  0.20434451296E+02  0.51100000000E-03 0.  1.
         12    1    3    3    0    0 -0.46600851218E+01 -0.57808451715E+01 -0.82363895007E+01  0.11089304588E+02  0.00000000000E+00 0. -1.
</event>
<event>
 7    1  0.4452647E-009  0.4614232E+02  0.7816164E-02  0.1320468E+00
        -11   -1    0    0    0    0  0.00000000000E+00  0.00000000000E+00  0.45593999997E+02  0.45594000000E+02  0.51100000000E-03 0.  1.
         11   -1    0    0    0    0 -0.00000000000E+00 -0.00000000000E+00 -0.45593999997E+02  0.45594000000E+02  0.51100000000E-03 0. -1.
    9900012    2    1    2    0    0 -0.44321891556E+02  0.78959819251E+01  0.15286946971E+01  0.46142317531E+02  0.99999978989E+01 0.  0.
        -12    1    1    2    0    0  0.44321891556E+02 -0.78959819251E+01 -0.15286946971E+01  0.45045682469E+02  0.00000000000E+00 0.  1.
         11    1    3    3    0    0 -0.17469853427E+02 -0.10189165269E+01  0.40868469545E+00  0.17504313557E+02  0.51100000000E-03 0. -1.
        -11    1    3    3    0    0 -0.70438498369E+01  0.42571137188E+01  0.98514617169E+00  0.82891103853E+01  0.51100000000E-03 0.  1.
         12    1    3    3    0    0 -0.19808188292E+02  0.46577847332E+01  0.13486382995E+00  0.20348893589E+02  0.00000000000E+00 0. -1.
</event>
<event>
 7    1  0.4452647E-009  0.4614232E+02  0.7816164E-02  0.1320468E+00
        -11   -1    0    0    0    0  0.00000000000E+00  0.00000000000E+00  0.45593999997E+02  0.45594000000E+02  0.51100000000E-03 0. -1.
         11   -1    0    0    0    0 -0.00000000000E+00 -0.00000000000E+00 -0.45593999997E+02  0.45594000000E+02  0.51100000000E-03 0.  1.
    9900012    2    1    2    0    0  0.20410866821E+02  0.11184653282E+02  0.38567000363E+02  0.46142317960E+02  0.10000001813E+02 0.  0.
        -12    1    1    2    0    0 -0.20410866821E+02 -0.11184653282E+02 -0.38567000363E+02  0.45045682040E+02  0.00000000000E+00 0.  1.
         11    1    3    3    0    0  0.53446655975E+01  0.42878152633E+00  0.11397989212E+02  0.12596168555E+02  0.51100000000E-03 0.  1.
        -11    1    3    3    0    0  0.97502943098E+00 -0.29026301480E+00  0.11275380077E-01  0.10173801671E+01  0.51100000000E-03 0. -1.
         12    1    3    3    0    0  0.14091171793E+02  0.11046134770E+02  0.27157735772E+02  0.32528769237E+02  0.00000000000E+00 0. -1.
</event>
<event>
 7    1  0.4452647E-009  0.4614231E+02  0.7816164E-02  0.1320468E+00
        -11   -1    0    0    0    0  0.00000000000E+00  0.00000000000E+00  0.45593999997E+02  0.45594000000E+02  0.51100000000E-03 0. -1.
         11   -1    0    0    0    0 -0.00000000000E+00 -0.00000000000E+00 -0.45593999997E+02  0.45594000000E+02  0.51100000000E-03 0.  1.
    9900012    2    1    2    0    0 -0.31029379080E+02 -0.55300130032E+01 -0.32182454671E+02  0.46142314319E+02  0.99999686076E+01 0.  0.
         12    1    1    2    0    0  0.31029379080E+02  0.55300130032E+01  0.32182454671E+02  0.45045685681E+02  0.00000000000E+00 0. -1.
         11    1    3    3    0    0 -0.38505029926E+01  0.11657226645E+01 -0.42132875355E+01  0.58255535998E+01  0.51100000000E-03 0. -1.
        -11    1    3    3    0    0 -0.20043994959E+02 -0.28763215928E+01 -0.15717309696E+02  0.25633352964E+02  0.51100000000E-03 0.  1.
         12    1    3    3    0    0 -0.71348811279E+01 -0.38194140750E+01 -0.12251857439E+02  0.14683407755E+02  0.00000000000E+00 0. -1.
</event>
<event>
 7    1  0.4452647E-009  0.4614232E+02  0.7816164E-02  0.1320468E+00
        -11   -1    0    0    0    0  0.00000000000E+00  0.00000000000E+00  0.45593999997E+02  0.45594000000E+02  0.51100000000E-03 0. -1.
         11   -1    0    0    0    0 -0.00000000000E+00 -0.00000000000E+00 -0.45593999997E+02  0.45594000000E+02  0.51100000000E-03 0.  1.
    9900012    2    1    2    0    0  0.25505495718E+02 -0.19809760649E+02  0.31403125905E+02  0.46142320458E+02  0.10000024593E+02 0.  0.
        -12    1    1    2    0    0 -0.25505495718E+02  0.19809760649E+02 -0.31403125905E+02  0.45045679542E+02  0.00000000000E+00 0.  1.
         11    1    3    3    0    0  0.60610544000E+01 -0.40368463143E+01  0.43994127995E+01  0.85080750965E+01  0.51100000000E-03 0. -1.
        -11    1    3    3    0    0  0.13606975290E+02 -0.13750972023E+02  0.23814938042E+02  0.30682084061E+02  0.51100000000E-03 0.  1.
        -12    1    3    3    0    0  0.58374660285E+01 -0.20219423118E+01  0.31887750630E+01  0.69521613005E+01  0.00000000000E+00 0.  1.
</event>
<event>
 7    1  0.4452647E-009  0.4614232E+02  0.7816164E-02  0.1320468E+00
        -11   -1    0    0    0    0  0.00000000000E+00  0.00000000000E+00  0.45593999997E+02  0.45594000000E+02  0.51100000000E-03 0. -1.
         11   -1    0    0    0    0 -0.00000000000E+00 -0.00000000000E+00 -0.45593999997E+02  0.45594000000E+02  0.51100000000E-03 0.  1.
    9900012    2    1    2    0    0 -0.60152747093E+01  0.24291336994E+02  0.37454785302E+02  0.46142317357E+02  0.99999963119E+01 0.  0.
        -12    1    1    2    0    0  0.60152747093E+01 -0.24291336994E+02 -0.37454785302E+02  0.45045682643E+02  0.00000000000E+00 0.  1.
         11    1    3    3    0    0 -0.24757349426E+01  0.88525247863E+01  0.64439373269E+01  0.11225898055E+02  0.51100000000E-03 0. -1.
        -11    1    3    3    0    0 -0.64287678537E+00  0.41249777243E+01  0.10726205563E+02  0.11510005118E+02  0.51100000000E-03 0.  1.
         12    1    3    3    0    0 -0.28966629813E+01  0.11313834483E+02  0.20284642413E+02  0.23406414184E+02  0.00000000000E+00 0. -1.
</event>
<event>
 7    1  0.4452647E-009  0.4614232E+02  0.7816164E-02  0.1320468E+00
        -11   -1    0    0    0    0  0.00000000000E+00  0.00000000000E+00  0.45593999997E+02  0.45594000000E+02  0.51100000000E-03 0. -1.
         11   -1    0    0    0    0 -0.00000000000E+00 -0.00000000000E+00 -0.45593999997E+02  0.45594000000E+02  0.51100000000E-03 0.  1.
    9900012    2    1    2    0    0  0.28574993500E+02  0.10314430465E+02  0.33259520034E+02  0.46142318717E+02  0.10000008714E+02 0.  0.
        -12    1    1    2    0    0 -0.28574993500E+02 -0.10314430465E+02 -0.33259520034E+02  0.45045681283E+02  0.00000000000E+00 0.  1.
         11    1    3    3    0    0  0.10667372176E+02 -0.23876536751E+00  0.13519744888E+02  0.17223046773E+02  0.51100000000E-03 0. -1.
        -11    1    3    3    0    0  0.10486560384E+02  0.80754011779E+01  0.13565666463E+02  0.18952766545E+02  0.51100000000E-03 0.  1.
         12    1    3    3    0    0  0.74210609403E+01  0.24777946543E+01  0.61741086834E+01  0.99665053987E+01  0.00000000000E+00 0. -1.
</event>
<event>
 7    1  0.4452647E-009  0.4614232E+02  0.7816164E-02  0.1320468E+00
        -11   -1    0    0    0    0  0.00000000000E+00  0.00000000000E+00  0.45593999997E+02  0.45594000000E+02  0.51100000000E-03 0. -1.
         11   -1    0    0    0    0 -0.00000000000E+00 -0.00000000000E+00 -0.45593999997E+02  0.45594000000E+02  0.51100000000E-03 0.  1.
    9900012    2    1    2    0    0  0.32184146244E+02 -0.45692042022E+00 -0.31513258343E+02  0.46142317664E+02  0.99999991158E+01 0.  0.
         12    1    1    2    0    0 -0.32184146244E+02  0.45692042022E+00  0.31513258343E+02  0.45045682336E+02  0.00000000000E+00 0. -1.
         11    1    3    3    0    0  0.14037001679E+01  0.21138241114E+01 -0.40612424512E+01  0.47887698884E+01  0.51100000000E-03 0. -1.
        -11    1    3    3    0    0  0.21335144223E+02 -0.13086172437E+01 -0.18244909043E+02  0.28102981414E+02  0.51100000000E-03 0.  1.
         12    1    3    3    0    0  0.94453018535E+01 -0.12621272880E+01 -0.92071068483E+01  0.13250566362E+02  0.00000000000E+00 0. -1.
</event>
<event>
 7    1  0.4452647E-009  0.4614232E+02  0.7816164E-02  0.1320468E+00
        -11   -1    0    0    0    0  0.00000000000E+00  0.00000000000E+00  0.45593999997E+02  0.45594000000E+02  0.51100000000E-03 0. -1.
         11   -1    0    0    0    0 -0.00000000000E+00 -0.00000000000E+00 -0.45593999997E+02  0.45594000000E+02  0.51100000000E-03 0.  1.
    9900012    2    1    2    0    0 -0.35832390204E+02 -0.17834960565E+02  0.20665610861E+02  0.46142317872E+02  0.10000001016E+02 0.  0.
        -12    1    1    2    0    0  0.35832390204E+02  0.17834960565E+02 -0.20665610861E+02  0.45045682128E+02  0.00000000000E+00 0.  1.
         11    1    3    3    0    0 -0.56555518298E+01 -0.11676612513E+01  0.58497805410E+01  0.82200141080E+01  0.51100000000E-03 0. -1.
        -11    1    3    3    0    0 -0.21363554533E+02 -0.11321991043E+02  0.76168911271E+01  0.25349674044E+02  0.51100000000E-03 0.  1.
         12    1    3    3    0    0 -0.88132838412E+01 -0.53453082713E+01  0.71989391926E+01  0.12572629720E+02  0.00000000000E+00 0. -1.
</event>
<event>
 7    1  0.4452647E-009  0.4614232E+02  0.7816164E-02  0.1320468E+00
        -11   -1    0    0    0    0  0.00000000000E+00  0.00000000000E+00  0.45593999997E+02  0.45594000000E+02  0.51100000000E-03 0. -1.
         11   -1    0    0    0    0 -0.00000000000E+00 -0.00000000000E+00 -0.45593999997E+02  0.45594000000E+02  0.51100000000E-03 0.  1.
    9900012    2    1    2    0    0  0.15244497391E+02  0.38671150042E+02  0.17356876851E+02  0.46142315186E+02  0.99999765220E+01 0.  0.
        -12    1    1    2    0    0 -0.15244497391E+02 -0.38671150042E+02 -0.17356876851E+02  0.45045684814E+02  0.00000000000E+00 0.  1.
         11    1    3    3    0    0  0.83295270582E+01  0.22669330149E+02  0.95746263910E+01  0.25979857991E+02  0.51100000000E-03 0. -1.
        -11    1    3    3    0    0 -0.56812473497E+00  0.62993393815E+01  0.31189170111E+01  0.70520979815E+01  0.51100000000E-03 0.  1.
         12    1    3    3    0    0  0.74830950676E+01  0.97024805117E+01  0.46633334492E+01  0.13110359214E+02  0.00000000000E+00 0. -1.
</event>
<event>
 7    1  0.4452647E-009  0.4614232E+02  0.7816164E-02  0.1320468E+00
        -11   -1    0    0    0    0  0.00000000000E+00  0.00000000000E+00  0.45593999997E+02  0.45594000000E+02  0.51100000000E-03 0. -1.
         11   -1    0    0    0    0 -0.00000000000E+00 -0.00000000000E+00 -0.45593999997E+02  0.45594000000E+02  0.51100000000E-03 0.  1.
    9900012    2    1    2    0    0  0.15090544634E+02 -0.27382266103E+02 -0.32428392291E+02  0.46142315846E+02  0.99999825377E+01 0.  0.
         12    1    1    2    0    0 -0.15090544634E+02  0.27382266103E+02  0.32428392291E+02  0.45045684154E+02  0.00000000000E+00 0. -1.
         11    1    3    3    0    0  0.88198279173E+01 -0.87756902683E+01 -0.16699003001E+02  0.20824476120E+02  0.51100000000E-03 0. -1.
        -11    1    3    3    0    0  0.21169629447E+00 -0.36321817190E+01 -0.35885843620E+01  0.51103324105E+01  0.51100000000E-03 0.  1.
         12    1    3    3    0    0  0.60590204220E+01 -0.14974394116E+02 -0.12140804928E+02  0.20207507316E+02  0.00000000000E+00 0. -1.
</event>
<event>
 7    1  0.4452647E-009  0.4614232E+02  0.7816164E-02  0.1320468E+00
        -11   -1    0    0    0    0  0.00000000000E+00  0.00000000000E+00  0.45593999997E+02  0.45594000000E+02  0.51100000000E-03 0. -1.
         11   -1    0    0    0    0 -0.00000000000E+00 -0.00000000000E+00 -0.45593999997E+02  0.45594000000E+02  0.51100000000E-03 0.  1.
    9900012    2    1    2    0    0 -0.21138077658E+02  0.89307650360E+00 -0.39768047412E+02  0.46142317547E+02  0.99999980457E+01 0.  0.
         12    1    1    2    0    0  0.21138077658E+02 -0.89307650360E+00  0.39768047412E+02  0.45045682453E+02  0.00000000000E+00 0. -1.
         11    1    3    3    0    0 -0.12449520976E+02  0.40847572463E+01 -0.17724985405E+02  0.22042026272E+02  0.51100000000E-03 0. -1.
        -11    1    3    3    0    0 -0.50909148921E+01 -0.73802173801E+00 -0.14564506607E+02  0.15446259855E+02  0.51100000000E-03 0.  1.
         12    1    3    3    0    0 -0.35976417899E+01 -0.24536590047E+01 -0.74785553999E+01  0.86540314206E+01  0.00000000000E+00 0. -1.
</event>
<event>
 7    1  0.4452647E-009  0.4614232E+02  0.7816164E-02  0.1320468E+00
        -11   -1    0    0    0    0  0.00000000000E+00  0.00000000000E+00  0.45593999997E+02  0.45594000000E+02  0.51100000000E-03 0. -1.
         11   -1    0    0    0    0 -0.00000000000E+00 -0.00000000000E+00 -0.45593999997E+02  0.45594000000E+02  0.51100000000E-03 0.  1.
    9900012    2    1    2    0    0  0.39223643454E+02 -0.14196041634E+02  0.17002698355E+02  0.46142317019E+02  0.99999932331E+01 0.  0.
        -12    1    1    2    0    0 -0.39223643454E+02  0.14196041634E+02 -0.17002698355E+02  0.45045682981E+02  0.00000000000E+00 0.  1.
         11    1    3    3    0    0  0.14391038808E+02 -0.48219326099E+01  0.92624796650E+01  0.17780510732E+02  0.51100000000E-03 0. -1.
        -11    1    3    3    0    0  0.22685291811E+02 -0.10304048478E+02  0.66993316673E+01  0.25800715584E+02  0.51100000000E-03 0.  1.
         12    1    3    3    0    0  0.21473128343E+01  0.92993945387E+00  0.10408870231E+01  0.25610907034E+01  0.00000000000E+00 0. -1.
</event>
<event>
 7    1  0.4452647E-009  0.4614232E+02  0.7816164E-02  0.1320468E+00
        -11   -1    0    0    0    0  0.00000000000E+00  0.00000000000E+00  0.45593999997E+02  0.45594000000E+02  0.51100000000E-03 0. -1.
         11   -1    0    0    0    0 -0.00000000000E+00 -0.00000000000E+00 -0.45593999997E+02  0.45594000000E+02  0.51100000000E-03 0.  1.
    9900012    2    1    2    0    0  0.34845682544E+02 -0.97862644487E+01  0.26816430543E+02  0.46142317511E+02  0.99999977215E+01 0.  0.
        -12    1    1    2    0    0 -0.34845682544E+02  0.97862644487E+01 -0.26816430543E+02  0.45045682489E+02  0.00000000000E+00 0.  1.
         11    1    3    3    0    0  0.23975179169E+02 -0.23617367145E+01  0.14645691056E+02  0.28193674526E+02  0.51100000000E-03 0. -1.
        -11    1    3    3    0    0  0.35960395971E+01 -0.24591475040E+01  0.45856328565E+01  0.63251036502E+01  0.51100000000E-03 0.  1.
         12    1    3    3    0    0  0.72744637781E+01 -0.49653802302E+01  0.75851066305E+01  0.11623539336E+02  0.00000000000E+00 0. -1.
</event>
<event>
 7    1  0.4452647E-009  0.4614232E+02  0.7816164E-02  0.1320468E+00
        -11   -1    0    0    0    0  0.00000000000E+00  0.00000000000E+00  0.45593999997E+02  0.45594000000E+02  0.51100000000E-03 0. -1.
         11   -1    0    0    0    0 -0.00000000000E+00 -0.00000000000E+00 -0.45593999997E+02  0.45594000000E+02  0.51100000000E-03 0.  1.
    9900012    2    1    2    0    0 -0.38125251043E+02  0.95078575190E+01  0.22026788761E+02  0.46142317134E+02  0.99999942832E+01 0.  0.
        -12    1    1    2    0    0  0.38125251043E+02 -0.95078575190E+01 -0.22026788761E+02  0.45045682866E+02  0.00000000000E+00 0.  1.
         11    1    3    3    0    0 -0.21369868049E+02  0.76905794392E+01  0.17092299011E+02  0.28424689238E+02  0.51100000000E-03 0. -1.
        -11    1    3    3    0    0 -0.90062579737E+01  0.21535363144E+01  0.26648839966E+01  0.96359746950E+01  0.51100000000E-03 0.  1.
         12    1    3    3    0    0 -0.77491250205E+01 -0.33625823459E+00  0.22696057534E+01  0.80816532009E+01  0.00000000000E+00 0. -1.
</event>
<event>
 7    1  0.4452647E-009  0.4614232E+02  0.7816164E-02  0.1320468E+00
        -11   -1    0    0    0    0  0.00000000000E+00  0.00000000000E+00  0.45593999997E+02  0.45594000000E+02  0.51100000000E-03 0. -1.
         11   -1    0    0    0    0 -0.00000000000E+00 -0.00000000000E+00 -0.45593999997E+02  0.45594000000E+02  0.51100000000E-03 0.  1.
    9900012    2    1    2    0    0  0.35736942505E+02  0.45018733219E+01 -0.27050278080E+02  0.46142317996E+02  0.10000002143E+02 0.  0.
         12    1    1    2    0    0 -0.35736942505E+02 -0.45018733219E+01  0.27050278080E+02  0.45045682004E+02  0.00000000000E+00 0. -1.
         11    1    3    3    0    0  0.31962810275E-01 -0.10225431514E+01 -0.12071179552E+01  0.15823242830E+01  0.51100000000E-03 0. -1.
        -11    1    3    3    0    0  0.12599685557E+02  0.12891315480E+01 -0.71864763521E+01  0.14562258716E+02  0.51100000000E-03 0.  1.
         12    1    3    3    0    0  0.23105294137E+02  0.42352849254E+01 -0.18656683772E+02  0.29997734997E+02  0.00000000000E+00 0. -1.
</event>
<event>
 7    1  0.7518527E-009  0.4614232E+02  0.7816164E-02  0.1320468E+00
        -11   -1    0    0    0    0  0.00000000000E+00  0.00000000000E+00  0.45593999997E+02  0.45594000000E+02  0.51100000000E-03 0. -1.
         11   -1    0    0    0    0 -0.00000000000E+00 -0.00000000000E+00 -0.45593999997E+02  0.45594000000E+02  0.51100000000E-03 0.  1.
    9900012    2    1    2    0    0  0.64197587976E+01 -0.18521953188E+02  0.40556595491E+02  0.46142317735E+02  0.99999997594E+01 0.  0.
        -12    1    1    2    0    0 -0.64197587976E+01  0.18521953188E+02 -0.40556595491E+02  0.45045682265E+02  0.00000000000E+00 0.  1.
         11    1    3    3    0    0  0.30600262350E+00 -0.12072347444E+02  0.28898682738E+02  0.31320425838E+02  0.51100000000E-03 0. -1.
        -11    1    3    3    0    0  0.42351851852E+01 -0.32846582582E+01  0.57433410643E+01  0.78556820371E+01  0.51100000000E-03 0.  1.
         12    1    3    3    0    0  0.18785709889E+01 -0.31649474858E+01  0.59145716889E+01  0.69662098599E+01  0.00000000000E+00 0. -1.
</event>
<event>
 7    1  0.4452647E-009  0.4614232E+02  0.7816164E-02  0.1320468E+00
        -11   -1    0    0    0    0  0.00000000000E+00  0.00000000000E+00  0.45593999997E+02  0.45594000000E+02  0.51100000000E-03 0. -1.
         11   -1    0    0    0    0 -0.00000000000E+00 -0.00000000000E+00 -0.45593999997E+02  0.45594000000E+02  0.51100000000E-03 0.  1.
    9900012    2    1    2    0    0 -0.31498836275E+02  0.16193434789E+02  0.27833604616E+02  0.46142316935E+02  0.99999924639E+01 0.  0.
        -12    1    1    2    0    0  0.31498836275E+02 -0.16193434789E+02 -0.27833604616E+02  0.45045683065E+02  0.00000000000E+00 0.  1.
         11    1    3    3    0    0 -0.20484441423E+02  0.52267746754E+01  0.17652478162E+02  0.27541632113E+02  0.51100000000E-03 0. -1.
        -11    1    3    3    0    0 -0.19520644819E+01  0.21952229380E+01  0.15871143883E+01  0.33389357334E+01  0.51100000000E-03 0.  1.
         12    1    3    3    0    0 -0.90623303695E+01  0.87714371758E+01  0.85940120653E+01  0.15261749088E+02  0.00000000000E+00 0. -1.
</event>
<event>
 7    1  0.4452647E-009  0.4614232E+02  0.7816164E-02  0.1320468E+00
        -11   -1    0    0    0    0  0.00000000000E+00  0.00000000000E+00  0.45593999997E+02  0.45594000000E+02  0.51100000000E-03 0. -1.
         11   -1    0    0    0    0 -0.00000000000E+00 -0.00000000000E+00 -0.45593999997E+02  0.45594000000E+02  0.51100000000E-03 0.  1.
    9900012    2    1    2    0    0 -0.78814518344E+01 -0.25219544561E+02  0.36482472070E+02  0.46142317862E+02  0.10000000924E+02 0.  0.
        -12    1    1    2    0    0  0.78814518344E+01  0.25219544561E+02 -0.36482472070E+02  0.45045682138E+02  0.00000000000E+00 0.  1.
         11    1    3    3    0    0 -0.63695620083E+00 -0.83556016348E+00 -0.50371481036E+00  0.11651621603E+01  0.51100000000E-03 0.  1.
        -11    1    3    3    0    0 -0.66586370068E+01 -0.21466655859E+02  0.30978999433E+02  0.38273400250E+02  0.51100000000E-03 0. -1.
        -12    1    3    3    0    0 -0.58585862680E+00 -0.29173285385E+01  0.60071874477E+01  0.67037554523E+01  0.00000000000E+00 0.  1.
</event>
<event>
 7    1  0.4452647E-009  0.4614232E+02  0.7816164E-02  0.1320468E+00
        -11   -1    0    0    0    0  0.00000000000E+00  0.00000000000E+00  0.45593999997E+02  0.45594000000E+02  0.51100000000E-03 0. -1.
         11   -1    0    0    0    0 -0.00000000000E+00 -0.00000000000E+00 -0.45593999997E+02  0.45594000000E+02  0.51100000000E-03 0.  1.
    9900012    2    1    2    0    0  0.11149330158E+02  0.43545612677E+02  0.29301137091E+01  0.46142317490E+02  0.99999975298E+01 0.  0.
         12    1    1    2    0    0 -0.11149330158E+02 -0.43545612677E+02 -0.29301137091E+01  0.45045682510E+02  0.00000000000E+00 0. -1.
         11    1    3    3    0    0 -0.67457448326E+00  0.10176846145E+00 -0.33390432788E-01  0.68302469599E+00  0.51100000000E-03 0. -1.
        -11    1    3    3    0    0  0.46120582623E+01  0.26040466637E+02  0.41314351857E+00  0.26448963532E+02  0.51100000000E-03 0.  1.
        -12    1    3    3    0    0  0.72118463791E+01  0.17403377579E+02  0.25503606233E+01  0.19010329262E+02  0.00000000000E+00 0.  1.
</event>
<event>
 7    1  0.4452647E-009  0.4614231E+02  0.7816164E-02  0.1320468E+00
        -11   -1    0    0    0    0  0.00000000000E+00  0.00000000000E+00  0.45593999997E+02  0.45594000000E+02  0.51100000000E-03 0. -1.
         11   -1    0    0    0    0 -0.00000000000E+00 -0.00000000000E+00 -0.45593999997E+02  0.45594000000E+02  0.51100000000E-03 0.  1.
    9900012    2    1    2    0    0 -0.13654483405E+02 -0.18593700298E+01  0.42886033691E+02  0.46142311420E+02  0.99999421735E+01 0.  0.
        -12    1    1    2    0    0  0.13654483405E+02  0.18593700298E+01 -0.42886033691E+02  0.45045688580E+02  0.00000000000E+00 0.  1.
         11    1    3    3    0    0 -0.11118469006E+02 -0.50360955840E+01  0.27539500768E+02  0.30123192304E+02  0.51100000000E-03 0. -1.
        -11    1    3    3    0    0 -0.22207179586E+01  0.17501423438E+01  0.12542964223E+02  0.12857703459E+02  0.51100000000E-03 0.  1.
         12    1    3    3    0    0 -0.31529643986E+00  0.14265832104E+01  0.28035687000E+01  0.31614156571E+01  0.00000000000E+00 0. -1.
</event>
<event>
 7    1  0.4452647E-009  0.4614232E+02  0.7816164E-02  0.1320468E+00
        -11   -1    0    0    0    0  0.00000000000E+00  0.00000000000E+00  0.45593999997E+02  0.45594000000E+02  0.51100000000E-03 0. -1.
         11   -1    0    0    0    0 -0.00000000000E+00 -0.00000000000E+00 -0.45593999997E+02  0.45594000000E+02  0.51100000000E-03 0.  1.
    9900012    2    1    2    0    0 -0.62970360716E+01  0.44326350565E+02  0.49634094253E+01  0.46142318178E+02  0.10000003803E+02 0.  0.
         12    1    1    2    0    0  0.62970360716E+01 -0.44326350565E+02 -0.49634094253E+01  0.45045681822E+02  0.00000000000E+00 0. -1.
         11    1    3    3    0    0  0.17230160626E+01  0.10796376129E+02  0.17660134009E+01  0.11074715593E+02  0.51100000000E-03 0. -1.
        -11    1    3    3    0    0 -0.56676912928E+00  0.12938752241E+02  0.10406533741E+00  0.12951577768E+02  0.51100000000E-03 0.  1.
         12    1    3    3    0    0 -0.74532830049E+01  0.20591222194E+02  0.30933306869E+01  0.22116024818E+02  0.00000000000E+00 0. -1.
</event>
<event>
 7    1  0.4452647E-009  0.4614232E+02  0.7816164E-02  0.1320468E+00
        -11   -1    0    0    0    0  0.00000000000E+00  0.00000000000E+00  0.45593999997E+02  0.45594000000E+02  0.51100000000E-03 0.  1.
         11   -1    0    0    0    0 -0.00000000000E+00 -0.00000000000E+00 -0.45593999997E+02  0.45594000000E+02  0.51100000000E-03 0. -1.
    9900012    2    1    2    0    0  0.35340097892E+02 -0.16362428843E+02 -0.22637626504E+02  0.46142315074E+02  0.99999755013E+01 0.  0.
         12    1    1    2    0    0 -0.35340097892E+02  0.16362428843E+02  0.22637626504E+02  0.45045684926E+02  0.00000000000E+00 0. -1.
         11    1    3    3    0    0  0.64204849203E+01 -0.30218180544E+00 -0.40215517373E+01  0.75820062709E+01  0.51100000000E-03 0. -1.
        -11    1    3    3    0    0 -0.32154497183E+00 -0.46567221454E+00 -0.65757972408E+00  0.86755583967E+00  0.51100000000E-03 0.  1.
        -12    1    3    3    0    0  0.29241157943E+02 -0.15594574823E+02 -0.17958495043E+02  0.37692752964E+02  0.00000000000E+00 0.  1.
</event>
<event>
 7    1  0.4452647E-009  0.4614232E+02  0.7816164E-02  0.1320468E+00
        -11   -1    0    0    0    0  0.00000000000E+00  0.00000000000E+00  0.45593999997E+02  0.45594000000E+02  0.51100000000E-03 0. -1.
         11   -1    0    0    0    0 -0.00000000000E+00 -0.00000000000E+00 -0.45593999997E+02  0.45594000000E+02  0.51100000000E-03 0.  1.
    9900012    2    1    2    0    0 -0.10731012031E+02 -0.16649739698E+02 -0.40456705544E+02  0.46142317913E+02  0.10000001384E+02 0.  0.
         12    1    1    2    0    0  0.10731012031E+02  0.16649739698E+02  0.40456705544E+02  0.45045682087E+02  0.00000000000E+00 0. -1.
         11    1    3    3    0    0 -0.10967895030E+01 -0.58329926376E+00 -0.45042986867E+01  0.46724610394E+01  0.51100000000E-03 0. -1.
        -11    1    3    3    0    0 -0.37737252986E+01 -0.13535290507E+02 -0.27452731437E+02  0.30839869574E+02  0.51100000000E-03 0.  1.
        -12    1    3    3    0    0 -0.58604972295E+01 -0.25311499268E+01 -0.84996754204E+01  0.10629987299E+02  0.00000000000E+00 0.  1.
</event>
<event>
 7    1  0.4452647E-009  0.4614231E+02  0.7816164E-02  0.1320468E+00
        -11   -1    0    0    0    0  0.00000000000E+00  0.00000000000E+00  0.45593999997E+02  0.45594000000E+02  0.51100000000E-03 0. -1.
         11   -1    0    0    0    0 -0.00000000000E+00 -0.00000000000E+00 -0.45593999997E+02  0.45594000000E+02  0.51100000000E-03 0.  1.
    9900012    2    1    2    0    0  0.23840547631E+02  0.15973399632E+02 -0.34721643649E+02  0.46142314914E+02  0.99999740388E+01 0.  0.
         12    1    1    2    0    0 -0.23840547631E+02 -0.15973399632E+02  0.34721643649E+02  0.45045685086E+02  0.00000000000E+00 0. -1.
         11    1    3    3    0    0  0.83784021572E+01  0.68247658129E+01 -0.65386415365E+01  0.12630474437E+02  0.51100000000E-03 0. -1.
        -11    1    3    3    0    0  0.10002123014E+02  0.55617694020E+01 -0.19977497096E+02  0.23023382335E+02  0.51100000000E-03 0.  1.
         12    1    3    3    0    0  0.54600224596E+01  0.35868644166E+01 -0.82055050166E+01  0.10488458141E+02  0.00000000000E+00 0. -1.
</event>
<event>
 7    1  0.4452647E-009  0.4614232E+02  0.7816164E-02  0.1320468E+00
        -11   -1    0    0    0    0  0.00000000000E+00  0.00000000000E+00  0.45593999997E+02  0.45594000000E+02  0.51100000000E-03 0.  1.
         11   -1    0    0    0    0 -0.00000000000E+00 -0.00000000000E+00 -0.45593999997E+02  0.45594000000E+02  0.51100000000E-03 0. -1.
    9900012    2    1    2    0    0  0.13874384736E+02  0.39934797338E+02 -0.15550781147E+02  0.46142318913E+02  0.10000010507E+02 0.  0.
         12    1    1    2    0    0 -0.13874384736E+02 -0.39934797338E+02  0.15550781147E+02  0.45045681087E+02  0.00000000000E+00 0. -1.
         11    1    3    3    0    0  0.14970905427E+01  0.54318983067E+01 -0.38266544220E+01  0.68110266212E+01  0.51100000000E-03 0. -1.
        -11    1    3    3    0    0  0.93470311906E+01  0.15283369198E+02 -0.37477025608E+01  0.18302831499E+02  0.51100000000E-03 0.  1.
        -12    1    3    3    0    0  0.30302630032E+01  0.19219529834E+02 -0.79764241644E+01  0.21028460793E+02  0.00000000000E+00 0.  1.
</event>
<event>
 7    1  0.4452647E-009  0.4614232E+02  0.7816164E-02  0.1320468E+00
        -11   -1    0    0    0    0  0.00000000000E+00  0.00000000000E+00  0.45593999997E+02  0.45594000000E+02  0.51100000000E-03 0.  1.
         11   -1    0    0    0    0 -0.00000000000E+00 -0.00000000000E+00 -0.45593999997E+02  0.45594000000E+02  0.51100000000E-03 0. -1.
    9900012    2    1    2    0    0  0.22742074781E+01  0.43656549199E+02 -0.10864951302E+02  0.46142317917E+02  0.10000001417E+02 0.  0.
         12    1    1    2    0    0 -0.22742074781E+01 -0.43656549199E+02  0.10864951302E+02  0.45045682083E+02  0.00000000000E+00 0. -1.
         11    1    3    3    0    0  0.12301011035E+01  0.16372129499E+02 -0.79556751451E+01  0.18244246773E+02  0.51100000000E-03 0. -1.
        -11    1    3    3    0    0  0.76416670109E+00  0.26183511084E+02 -0.37810836531E+01  0.26466144360E+02  0.51100000000E-03 0.  1.
         12    1    3    3    0    0  0.27993967350E+00  0.11009086163E+01  0.87180749674E+00  0.14319267836E+01  0.00000000000E+00 0. -1.
</event>
<event>
 7    1  0.4452647E-009  0.4614232E+02  0.7816164E-02  0.1320468E+00
        -11   -1    0    0    0    0  0.00000000000E+00  0.00000000000E+00  0.45593999997E+02  0.45594000000E+02  0.51100000000E-03 0. -1.
         11   -1    0    0    0    0 -0.00000000000E+00 -0.00000000000E+00 -0.45593999997E+02  0.45594000000E+02  0.51100000000E-03 0.  1.
    9900012    2    1    2    0    0  0.26907114797E+02  0.26522828927E+02 -0.24528764494E+02  0.46142316871E+02  0.99999918800E+01 0.  0.
         12    1    1    2    0    0 -0.26907114797E+02 -0.26522828927E+02  0.24528764494E+02  0.45045683129E+02  0.00000000000E+00 0. -1.
         11    1    3    3    0    0  0.19868698819E+02  0.22719364529E+02 -0.21009502791E+02  0.36774093124E+02  0.51100000000E-03 0. -1.
        -11    1    3    3    0    0  0.32575740949E+01  0.30670440314E+01 -0.32046905038E+01  0.55035070237E+01  0.51100000000E-03 0.  1.
         12    1    3    3    0    0  0.37808418837E+01  0.73642036667E+00 -0.31457119917E+00  0.38647167225E+01  0.00000000000E+00 0. -1.
</event>
<event>
 7    1  0.4452647E-009  0.4614232E+02  0.7816164E-02  0.1320468E+00
        -11   -1    0    0    0    0  0.00000000000E+00  0.00000000000E+00  0.45593999997E+02  0.45594000000E+02  0.51100000000E-03 0.  1.
         11   -1    0    0    0    0 -0.00000000000E+00 -0.00000000000E+00 -0.45593999997E+02  0.45594000000E+02  0.51100000000E-03 0. -1.
    9900012    2    1    2    0    0  0.43620525335E+02  0.10995922070E+02  0.23351566864E+01  0.46142317749E+02  0.99999998906E+01 0.  0.
         12    1    1    2    0    0 -0.43620525335E+02 -0.10995922070E+02 -0.23351566864E+01  0.45045682251E+02  0.00000000000E+00 0. -1.
         11    1    3    3    0    0  0.13421816948E+02 -0.52887449845E+00 -0.29416768006E+00  0.13435453595E+02  0.51100000000E-03 0. -1.
        -11    1    3    3    0    0  0.22238575216E+02  0.72227610996E+01  0.38884424067E+00  0.23385330992E+02  0.51100000000E-03 0.  1.
         12    1    3    3    0    0  0.79601331718E+01  0.43020354693E+01  0.22404801258E+01  0.93215331618E+01  0.00000000000E+00 0. -1.
</event>
<event>
 7    1  0.4452647E-009  0.4614232E+02  0.7816164E-02  0.1320468E+00
        -11   -1    0    0    0    0  0.00000000000E+00  0.00000000000E+00  0.45593999997E+02  0.45594000000E+02  0.51100000000E-03 0. -1.
         11   -1    0    0    0    0 -0.00000000000E+00 -0.00000000000E+00 -0.45593999997E+02  0.45594000000E+02  0.51100000000E-03 0.  1.
    9900012    2    1    2    0    0 -0.30979702348E+02  0.23731621473E+02 -0.22498482256E+02  0.46142317419E+02  0.99999968809E+01 0.  0.
         12    1    1    2    0    0  0.30979702348E+02 -0.23731621473E+02  0.22498482256E+02  0.45045682581E+02  0.00000000000E+00 0. -1.
         11    1    3    3    0    0 -0.12416113933E+01  0.83406581382E+00 -0.29575234294E+01  0.33142434628E+01  0.51100000000E-03 0. -1.
        -11    1    3    3    0    0 -0.18930027152E+02  0.17560107398E+02 -0.15494675497E+02  0.30112925278E+02  0.51100000000E-03 0.  1.
        -12    1    3    3    0    0 -0.10808063803E+02  0.53374482618E+01 -0.40462833298E+01  0.12715148678E+02  0.00000000000E+00 0.  1.
</event>
<event>
 7    1  0.4452647E-009  0.4614232E+02  0.7816164E-02  0.1320468E+00
        -11   -1    0    0    0    0  0.00000000000E+00  0.00000000000E+00  0.45593999997E+02  0.45594000000E+02  0.51100000000E-03 0. -1.
         11   -1    0    0    0    0 -0.00000000000E+00 -0.00000000000E+00 -0.45593999997E+02  0.45594000000E+02  0.51100000000E-03 0.  1.
    9900012    2    1    2    0    0 -0.47923260453E+01 -0.11010867728E+02  0.43415525879E+02  0.46142317805E+02  0.10000000405E+02 0.  0.
        -12    1    1    2    0    0  0.47923260453E+01  0.11010867728E+02 -0.43415525879E+02  0.45045682195E+02  0.00000000000E+00 0.  1.
         11    1    3    3    0    0 -0.39697114743E+01 -0.37032505918E+01  0.15292128305E+02  0.16227195152E+02  0.51100000000E-03 0. -1.
        -11    1    3    3    0    0  0.46932506283E+00 -0.62629940973E+01  0.27386805457E+02  0.28097730770E+02  0.51100000000E-03 0.  1.
        -12    1    3    3    0    0 -0.12919396338E+01 -0.10446230386E+01  0.73659211721E+00  0.18173918832E+01  0.00000000000E+00 0.  1.
</event>
<event>
 7    1  0.5235194E-009  0.4614232E+02  0.7816164E-02  0.1320468E+00
        -11   -1    0    0    0    0  0.00000000000E+00  0.00000000000E+00  0.45593999997E+02  0.45594000000E+02  0.51100000000E-03 0. -1.
         11   -1    0    0    0    0 -0.00000000000E+00 -0.00000000000E+00 -0.45593999997E+02  0.45594000000E+02  0.51100000000E-03 0.  1.
    9900012    2    1    2    0    0 -0.25155200189E+01  0.20202982406E+02  0.40182397269E+02  0.46142318860E+02  0.10000010024E+02 0.  0.
        -12    1    1    2    0    0  0.25155200189E+01 -0.20202982406E+02 -0.40182397269E+02  0.45045681140E+02  0.00000000000E+00 0.  1.
         11    1    3    3    0    0  0.30833793470E+01  0.85832030608E+01  0.17207990147E+02  0.19475459638E+02  0.51100000000E-03 0. -1.
        -11    1    3    3    0    0 -0.55883840332E+01  0.10501732243E+02  0.22502073291E+02  0.25453088591E+02  0.51100000000E-03 0.  1.
         12    1    3    3    0    0 -0.10515332775E-01  0.11180471023E+01  0.47233383156E+00  0.12137706306E+01  0.00000000000E+00 0. -1.
</event>
<event>
 7    1  0.4452647E-009  0.4614232E+02  0.7816164E-02  0.1320468E+00
        -11   -1    0    0    0    0  0.00000000000E+00  0.00000000000E+00  0.45593999997E+02  0.45594000000E+02  0.51100000000E-03 0. -1.
         11   -1    0    0    0    0 -0.00000000000E+00 -0.00000000000E+00 -0.45593999997E+02  0.45594000000E+02  0.51100000000E-03 0.  1.
    9900012    2    1    2    0    0 -0.15993259085E+02 -0.26141482102E+01 -0.42029694866E+02  0.46142319213E+02  0.10000013239E+02 0.  0.
         12    1    1    2    0    0  0.15993259085E+02  0.26141482102E+01  0.42029694866E+02  0.45045680787E+02  0.00000000000E+00 0. -1.
         11    1    3    3    0    0 -0.48464562163E+01 -0.20000943022E+01 -0.18660760266E+02  0.19383304389E+02  0.51100000000E-03 0. -1.
        -11    1    3    3    0    0 -0.80563921874E+01  0.54070478918E+00 -0.21502431326E+02  0.22968508222E+02  0.51100000000E-03 0.  1.
         12    1    3    3    0    0 -0.30904106809E+01 -0.11547586972E+01 -0.18665032741E+01  0.37905066017E+01  0.00000000000E+00 0. -1.
</event>
<event>
 7    1  0.4452647E-009  0.4614231E+02  0.7816164E-02  0.1320468E+00
        -11   -1    0    0    0    0  0.00000000000E+00  0.00000000000E+00  0.45593999997E+02  0.45594000000E+02  0.51100000000E-03 0. -1.
         11   -1    0    0    0    0 -0.00000000000E+00 -0.00000000000E+00 -0.45593999997E+02  0.45594000000E+02  0.51100000000E-03 0.  1.
    9900012    2    1    2    0    0 -0.16819166557E+02 -0.41329270881E+02 -0.61742158789E+01  0.46142312782E+02  0.99999545925E+01 0.  0.
        -12    1    1    2    0    0  0.16819166557E+02  0.41329270881E+02  0.61742158789E+01  0.45045687218E+02  0.00000000000E+00 0.  1.
         11    1    3    3    0    0 -0.71450654783E+01 -0.11649183326E+02  0.96562010145E+00  0.13699921726E+02  0.51100000000E-03 0.  1.
        -11    1    3    3    0    0 -0.86334952088E+01 -0.26432727479E+02 -0.45871508668E+01  0.28182765564E+02  0.51100000000E-03 0. -1.
        -12    1    3    3    0    0 -0.10406058702E+01 -0.32473600771E+01 -0.25526851135E+01  0.42596254925E+01  0.00000000000E+00 0.  1.
</event>
<event>
 7    1  0.4452647E-009  0.4614232E+02  0.7816164E-02  0.1320468E+00
        -11   -1    0    0    0    0  0.00000000000E+00  0.00000000000E+00  0.45593999997E+02  0.45594000000E+02  0.51100000000E-03 0. -1.
         11   -1    0    0    0    0 -0.00000000000E+00 -0.00000000000E+00 -0.45593999997E+02  0.45594000000E+02  0.51100000000E-03 0.  1.
    9900012    2    1    2    0    0  0.96832901784E+01 -0.19451141626E+02 -0.39458844442E+02  0.46142318476E+02  0.10000006522E+02 0.  0.
         12    1    1    2    0    0 -0.96832901784E+01  0.19451141626E+02  0.39458844442E+02  0.45045681524E+02  0.00000000000E+00 0. -1.
         11    1    3    3    0    0  0.16048072599E+01 -0.23032661081E+01 -0.12525157454E+02  0.12835887605E+02  0.51100000000E-03 0. -1.
        -11    1    3    3    0    0  0.65642554470E+01 -0.82391024271E+01 -0.15288070832E+02  0.18566027265E+02  0.51100000000E-03 0.  1.
         12    1    3    3    0    0  0.15142274715E+01 -0.89087730905E+01 -0.11645616156E+02  0.14740403606E+02  0.00000000000E+00 0. -1.
</event>
<event>
 7    1  0.4452647E-009  0.4614232E+02  0.7816164E-02  0.1320468E+00
        -11   -1    0    0    0    0  0.00000000000E+00  0.00000000000E+00  0.45593999997E+02  0.45594000000E+02  0.51100000000E-03 0. -1.
         11   -1    0    0    0    0 -0.00000000000E+00 -0.00000000000E+00 -0.45593999997E+02  0.45594000000E+02  0.51100000000E-03 0.  1.
    9900012    2    1    2    0    0  0.16804976441E+02 -0.20517967665E+02  0.36410420699E+02  0.46142323562E+02  0.10000052898E+02 0.  0.
        -12    1    1    2    0    0 -0.16804976441E+02  0.20517967665E+02 -0.36410420699E+02  0.45045676438E+02  0.00000000000E+00 0.  1.
         11    1    3    3    0    0  0.87463061953E+01 -0.60611648205E+01  0.14993207289E+02  0.18385642663E+02  0.51100000000E-03 0. -1.
        -11    1    3    3    0    0 -0.77243744538E+00 -0.28393454766E+01  0.49074181052E+01  0.57220009667E+01  0.51100000000E-03 0.  1.
        -12    1    3    3    0    0  0.88311076910E+01 -0.11617457368E+02  0.16509795304E+02  0.22034679933E+02  0.00000000000E+00 0.  1.
</event>
<event>
 7    1  0.4452647E-009  0.4614232E+02  0.7816164E-02  0.1320468E+00
        -11   -1    0    0    0    0  0.00000000000E+00  0.00000000000E+00  0.45593999997E+02  0.45594000000E+02  0.51100000000E-03 0. -1.
         11   -1    0    0    0    0 -0.00000000000E+00 -0.00000000000E+00 -0.45593999997E+02  0.45594000000E+02  0.51100000000E-03 0.  1.
    9900012    2    1    2    0    0  0.60797795028E+01 -0.17255291773E+02 -0.41163146245E+02  0.46142318500E+02  0.10000006741E+02 0.  0.
         12    1    1    2    0    0 -0.60797795028E+01  0.17255291773E+02  0.41163146245E+02  0.45045681500E+02  0.00000000000E+00 0. -1.
         11    1    3    3    0    0  0.48068046880E+01 -0.17812988414E+01 -0.11399018534E+02  0.12498640753E+02  0.51100000000E-03 0. -1.
        -11    1    3    3    0    0  0.11219039148E+01 -0.37804431029E+01 -0.86714117527E+01  0.95259540464E+01  0.51100000000E-03 0.  1.
         12    1    3    3    0    0  0.15107089991E+00 -0.11693549829E+02 -0.21092715958E+02  0.24117723701E+02  0.00000000000E+00 0. -1.
</event>
<event>
 7    1  0.4452647E-009  0.4614233E+02  0.7816164E-02  0.1320468E+00
        -11   -1    0    0    0    0  0.00000000000E+00  0.00000000000E+00  0.45593999997E+02  0.45594000000E+02  0.51100000000E-03 0.  1.
         11   -1    0    0    0    0 -0.00000000000E+00 -0.00000000000E+00 -0.45593999997E+02  0.45594000000E+02  0.51100000000E-03 0. -1.
    9900012    2    1    2    0    0 -0.43156870486E+02  0.10797998240E+02  0.70711075997E+01  0.46142325415E+02  0.10000069795E+02 0.  0.
        -12    1    1    2    0    0  0.43156870486E+02 -0.10797998240E+02 -0.70711075997E+01  0.45045674585E+02  0.00000000000E+00 0.  1.
         11    1    3    3    0    0 -0.14149852263E+02  0.19101276688E+01  0.30466001184E+01  0.14599612301E+02  0.51100000000E-03 0. -1.
        -11    1    3    3    0    0 -0.21994540263E+02  0.96500124022E+01  0.15531783821E+01  0.24068545949E+02  0.51100000000E-03 0.  1.
        -12    1    3    3    0    0 -0.70124779596E+01 -0.76214183091E+00  0.24713290991E+01  0.74741671656E+01  0.00000000000E+00 0.  1.
</event>
<event>
 7    1  0.4452647E-009  0.4614232E+02  0.7816164E-02  0.1320468E+00
        -11   -1    0    0    0    0  0.00000000000E+00  0.00000000000E+00  0.45593999997E+02  0.45594000000E+02  0.51100000000E-03 0. -1.
         11   -1    0    0    0    0 -0.00000000000E+00 -0.00000000000E+00 -0.45593999997E+02  0.45594000000E+02  0.51100000000E-03 0.  1.
    9900012    2    1    2    0    0 -0.63565416640E+01 -0.22585644831E+02  0.38452523403E+02  0.46142317295E+02  0.99999957453E+01 0.  0.
        -12    1    1    2    0    0  0.63565416640E+01  0.22585644831E+02 -0.38452523403E+02  0.45045682705E+02  0.00000000000E+00 0.  1.
         11    1    3    3    0    0 -0.19925596309E+01 -0.98403431367E+01  0.13873265536E+02  0.17125131936E+02  0.51100000000E-03 0. -1.
        -11    1    3    3    0    0 -0.34219914254E+01 -0.71460322338E+01  0.20634647944E+02  0.22103495154E+02  0.51100000000E-03 0.  1.
        -12    1    3    3    0    0 -0.94199060773E+00 -0.55992694607E+01  0.39446099226E+01  0.69136902042E+01  0.00000000000E+00 0.  1.
</event>
<event>
 7    1  0.4452647E-009  0.4614232E+02  0.7816164E-02  0.1320468E+00
        -11   -1    0    0    0    0  0.00000000000E+00  0.00000000000E+00  0.45593999997E+02  0.45594000000E+02  0.51100000000E-03 0. -1.
         11   -1    0    0    0    0 -0.00000000000E+00 -0.00000000000E+00 -0.45593999997E+02  0.45594000000E+02  0.51100000000E-03 0.  1.
    9900012    2    1    2    0    0  0.25053472875E+02  0.12900989670E+02  0.35142586740E+02  0.46142318294E+02  0.10000004859E+02 0.  0.
        -12    1    1    2    0    0 -0.25053472875E+02 -0.12900989670E+02 -0.35142586740E+02  0.45045681706E+02  0.00000000000E+00 0.  1.
         11    1    3    3    0    0  0.11575613447E+02  0.68020815924E+01  0.12337956727E+02  0.18234262176E+02  0.51100000000E-03 0. -1.
        -11    1    3    3    0    0 -0.52086645880E+00  0.87213569113E+00  0.72772980880E+00  0.12496053246E+01  0.51100000000E-03 0.  1.
        -12    1    3    3    0    0  0.13998725887E+02  0.52267723869E+01  0.22076900205E+02  0.26658450793E+02  0.00000000000E+00 0.  1.
</event>
<event>
 7    1  0.4452647E-009  0.4614232E+02  0.7816164E-02  0.1320468E+00
        -11   -1    0    0    0    0  0.00000000000E+00  0.00000000000E+00  0.45593999997E+02  0.45594000000E+02  0.51100000000E-03 0. -1.
         11   -1    0    0    0    0 -0.00000000000E+00 -0.00000000000E+00 -0.45593999997E+02  0.45594000000E+02  0.51100000000E-03 0.  1.
    9900012    2    1    2    0    0 -0.14543571780E+01  0.17980331695E+02  0.41275971987E+02  0.46142319340E+02  0.10000014398E+02 0.  0.
        -12    1    1    2    0    0  0.14543571780E+01 -0.17980331695E+02 -0.41275971987E+02  0.45045680660E+02  0.00000000000E+00 0.  1.
         11    1    3    3    0    0  0.55139109529E+00  0.97116858729E+01  0.19424807471E+02  0.21724272604E+02  0.51100000000E-03 0. -1.
        -11    1    3    3    0    0 -0.24207582809E+01  0.44951032440E+01  0.50054306591E+01  0.71498503602E+01  0.51100000000E-03 0.  1.
         12    1    3    3    0    0  0.41501000759E+00  0.37735425783E+01  0.16845733857E+02  0.17268196376E+02  0.00000000000E+00 0. -1.
</event>
<event>
 7    1  0.4452647E-009  0.4614232E+02  0.7816164E-02  0.1320468E+00
        -11   -1    0    0    0    0  0.00000000000E+00  0.00000000000E+00  0.45593999997E+02  0.45594000000E+02  0.51100000000E-03 0. -1.
         11   -1    0    0    0    0 -0.00000000000E+00 -0.00000000000E+00 -0.45593999997E+02  0.45594000000E+02  0.51100000000E-03 0.  1.
    9900012    2    1    2    0    0  0.77469321953E+01  0.42208720848E+02 -0.13693887843E+02  0.46142316097E+02  0.99999848210E+01 0.  0.
         12    1    1    2    0    0 -0.77469321953E+01 -0.42208720848E+02  0.13693887843E+02  0.45045683903E+02  0.00000000000E+00 0. -1.
         11    1    3    3    0    0  0.15529925357E+01  0.43561166451E+01 -0.26724717937E+01  0.53413147999E+01  0.51100000000E-03 0. -1.
        -11    1    3    3    0    0  0.12785627133E+01  0.98208876691E+01 -0.68396456444E+01  0.12036000583E+02  0.51100000000E-03 0.  1.
        -12    1    3    3    0    0  0.49153769463E+01  0.28031716534E+02 -0.41817704046E+01  0.28765000714E+02  0.00000000000E+00 0.  1.
</event>
<event>
 7    1  0.4452647E-009  0.4614232E+02  0.7816164E-02  0.1320468E+00
        -11   -1    0    0    0    0  0.00000000000E+00  0.00000000000E+00  0.45593999997E+02  0.45594000000E+02  0.51100000000E-03 0. -1.
         11   -1    0    0    0    0 -0.00000000000E+00 -0.00000000000E+00 -0.45593999997E+02  0.45594000000E+02  0.51100000000E-03 0.  1.
    9900012    2    1    2    0    0 -0.10305777273E+02 -0.91199703645E+01 -0.42892080528E+02  0.46142317891E+02  0.10000001186E+02 0.  0.
         12    1    1    2    0    0  0.10305777273E+02  0.91199703645E+01  0.42892080528E+02  0.45045682109E+02  0.00000000000E+00 0. -1.
         11    1    3    3    0    0  0.28371389012E+00  0.12067471573E+01 -0.22798215653E+01  0.25950566283E+01  0.51100000000E-03 0. -1.
        -11    1    3    3    0    0 -0.78310705193E+01 -0.10263860333E+02 -0.34669374340E+02  0.36995107944E+02  0.51100000000E-03 0.  1.
        -12    1    3    3    0    0 -0.27584206436E+01 -0.62857188391E-01 -0.59428846226E+01  0.65521533186E+01  0.00000000000E+00 0.  1.
</event>
<event>
 7    1  0.4452647E-009  0.4614232E+02  0.7816164E-02  0.1320468E+00
        -11   -1    0    0    0    0  0.00000000000E+00  0.00000000000E+00  0.45593999997E+02  0.45594000000E+02  0.51100000000E-03 0. -1.
         11   -1    0    0    0    0 -0.00000000000E+00 -0.00000000000E+00 -0.45593999997E+02  0.45594000000E+02  0.51100000000E-03 0.  1.
    9900012    2    1    2    0    0  0.58258557255E+01 -0.89353463044E+01 -0.43764508882E+02  0.46142320449E+02  0.10000024509E+02 0.  0.
         12    1    1    2    0    0 -0.58258557255E+01  0.89353463044E+01  0.43764508882E+02  0.45045679551E+02  0.00000000000E+00 0. -1.
         11    1    3    3    0    0  0.34558504677E+00 -0.24469799048E+00  0.27812631124E+00  0.50661685446E+00  0.51100000000E-03 0. -1.
        -11    1    3    3    0    0 -0.14947500141E+00 -0.29210523721E+01 -0.21440070728E+02  0.21638658064E+02  0.51100000000E-03 0.  1.
         12    1    3    3    0    0  0.56297456801E+01 -0.57695959419E+01 -0.22602564466E+02  0.23997045530E+02  0.00000000000E+00 0. -1.
</event>
<event>
 7    1  0.4452647E-009  0.4614232E+02  0.7816164E-02  0.1320468E+00
        -11   -1    0    0    0    0  0.00000000000E+00  0.00000000000E+00  0.45593999997E+02  0.45594000000E+02  0.51100000000E-03 0. -1.
         11   -1    0    0    0    0 -0.00000000000E+00 -0.00000000000E+00 -0.45593999997E+02  0.45594000000E+02  0.51100000000E-03 0.  1.
    9900012    2    1    2    0    0 -0.26724145526E+02  0.78904052878E+01  0.35393149511E+02  0.46142317831E+02  0.10000000641E+02 0.  0.
        -12    1    1    2    0    0  0.26724145526E+02 -0.78904052878E+01 -0.35393149511E+02  0.45045682169E+02  0.00000000000E+00 0.  1.
         11    1    3    3    0    0 -0.16616217333E+02  0.62281037527E+01  0.23636337449E+02  0.29556122937E+02  0.51100000000E-03 0. -1.
        -11    1    3    3    0    0 -0.65272049407E+01 -0.16091297978E+01  0.56071889144E+01  0.87541002294E+01  0.51100000000E-03 0.  1.
        -12    1    3    3    0    0 -0.35807232520E+01  0.32714313330E+01  0.61496231478E+01  0.78320946645E+01  0.00000000000E+00 0.  1.
</event>
<event>
 7    1  0.4452647E-009  0.4614232E+02  0.7816164E-02  0.1320468E+00
        -11   -1    0    0    0    0  0.00000000000E+00  0.00000000000E+00  0.45593999997E+02  0.45594000000E+02  0.51100000000E-03 0. -1.
         11   -1    0    0    0    0 -0.00000000000E+00 -0.00000000000E+00 -0.45593999997E+02  0.45594000000E+02  0.51100000000E-03 0.  1.
    9900012    2    1    2    0    0  0.55340601235E+01  0.49386836581E+01 -0.44430812748E+02  0.46142317197E+02  0.99999948545E+01 0.  0.
         12    1    1    2    0    0 -0.55340601235E+01 -0.49386836581E+01  0.44430812748E+02  0.45045682803E+02  0.00000000000E+00 0. -1.
         11    1    3    3    0    0  0.27993736301E+01 -0.89308103540E+00 -0.80528111995E+01  0.85721557926E+01  0.51100000000E-03 0. -1.
        -11    1    3    3    0    0  0.37899078837E+01  0.57974944460E+00 -0.11511646427E+02  0.12133322500E+02  0.51100000000E-03 0.  1.
        -12    1    3    3    0    0 -0.10552213903E+01  0.52520152489E+01 -0.24866355122E+02  0.25436838904E+02  0.00000000000E+00 0.  1.
</event>
<event>
 7    1  0.4452647E-009  0.4614232E+02  0.7816164E-02  0.1320468E+00
        -11   -1    0    0    0    0  0.00000000000E+00  0.00000000000E+00  0.45593999997E+02  0.45594000000E+02  0.51100000000E-03 0. -1.
         11   -1    0    0    0    0 -0.00000000000E+00 -0.00000000000E+00 -0.45593999997E+02  0.45594000000E+02  0.51100000000E-03 0.  1.
    9900012    2    1    2    0    0 -0.23274819995E+02 -0.11832499414E+02 -0.36706787026E+02  0.46142317610E+02  0.99999986238E+01 0.  0.
         12    1    1    2    0    0  0.23274819995E+02  0.11832499414E+02  0.36706787026E+02  0.45045682390E+02  0.00000000000E+00 0. -1.
         11    1    3    3    0    0 -0.29519125624E+01  0.14864206779E+01 -0.25774085078E+01  0.41912133190E+01  0.51100000000E-03 0. -1.
        -11    1    3    3    0    0 -0.13537378875E+02 -0.99759510305E+01 -0.22878049379E+02  0.28393403625E+02  0.51100000000E-03 0.  1.
        -12    1    3    3    0    0 -0.67855285572E+01 -0.33429690612E+01 -0.11251329139E+02  0.13557700666E+02  0.00000000000E+00 0.  1.
</event>
<event>
 7    1  0.4452647E-009  0.4614232E+02  0.7816164E-02  0.1320468E+00
        -11   -1    0    0    0    0  0.00000000000E+00  0.00000000000E+00  0.45593999997E+02  0.45594000000E+02  0.51100000000E-03 0. -1.
         11   -1    0    0    0    0 -0.00000000000E+00 -0.00000000000E+00 -0.45593999997E+02  0.45594000000E+02  0.51100000000E-03 0.  1.
    9900012    2    1    2    0    0 -0.21801593426E+02  0.22973665535E+02 -0.32031466911E+02  0.46142315895E+02  0.99999829822E+01 0.  0.
         12    1    1    2    0    0  0.21801593426E+02 -0.22973665535E+02  0.32031466911E+02  0.45045684105E+02  0.00000000000E+00 0. -1.
         11    1    3    3    0    0 -0.80361047404E+01  0.49610750221E+01 -0.11686908440E+02  0.15025813586E+02  0.51100000000E-03 0. -1.
        -11    1    3    3    0    0 -0.59093088469E+01  0.32029744561E+01 -0.68348035880E+01  0.95861106171E+01  0.51100000000E-03 0.  1.
        -12    1    3    3    0    0 -0.78561798390E+01  0.14809616057E+02 -0.13509754883E+02  0.21530391692E+02  0.00000000000E+00 0.  1.
</event>
<event>
 7    1  0.4452647E-009  0.4614232E+02  0.7816164E-02  0.1320468E+00
        -11   -1    0    0    0    0  0.00000000000E+00  0.00000000000E+00  0.45593999997E+02  0.45594000000E+02  0.51100000000E-03 0.  1.
         11   -1    0    0    0    0 -0.00000000000E+00 -0.00000000000E+00 -0.45593999997E+02  0.45594000000E+02  0.51100000000E-03 0. -1.
    9900012    2    1    2    0    0 -0.29865689298E+02  0.33505500054E+02 -0.38125566342E+01  0.46142317419E+02  0.99999968820E+01 0.  0.
        -12    1    1    2    0    0  0.29865689298E+02 -0.33505500054E+02  0.38125566342E+01  0.45045682581E+02  0.00000000000E+00 0.  1.
         11    1    3    3    0    0 -0.24688514775E+02  0.27029963792E+02 -0.61306610399E+01  0.37117741168E+02  0.51100000000E-03 0. -1.
        -11    1    3    3    0    0 -0.55018528935E+01  0.62391316862E+01  0.22479570376E+01  0.86168706944E+01  0.51100000000E-03 0.  1.
         12    1    3    3    0    0  0.32467837052E+00  0.23640457535E+00  0.70147368096E-01  0.40770555648E+00  0.00000000000E+00 0. -1.
</event>
<event>
 7    1  0.4452647E-009  0.4614232E+02  0.7816164E-02  0.1320468E+00
        -11   -1    0    0    0    0  0.00000000000E+00  0.00000000000E+00  0.45593999997E+02  0.45594000000E+02  0.51100000000E-03 0. -1.
         11   -1    0    0    0    0 -0.00000000000E+00 -0.00000000000E+00 -0.45593999997E+02  0.45594000000E+02  0.51100000000E-03 0.  1.
    9900012    2    1    2    0    0  0.32410739625E+02  0.90063456770E+01  0.29959026810E+02  0.46142316601E+02  0.99999894227E+01 0.  0.
        -12    1    1    2    0    0 -0.32410739625E+02 -0.90063456770E+01 -0.29959026810E+02  0.45045683399E+02  0.00000000000E+00 0.  1.
         11    1    3    3    0    0  0.26371608306E+02  0.10890351002E+02  0.26407774323E+02  0.38877139999E+02  0.51100000000E-03 0. -1.
        -11    1    3    3    0    0  0.70261453242E+00 -0.31159750003E+00  0.32920819842E+00  0.83614501267E+00  0.51100000000E-03 0.  1.
         12    1    3    3    0    0  0.53365167861E+01 -0.15724078245E+01  0.32220442887E+01  0.64290315890E+01  0.00000000000E+00 0. -1.
</event>
<event>
 7    1  0.4452647E-009  0.4614231E+02  0.7816164E-02  0.1320468E+00
        -11   -1    0    0    0    0  0.00000000000E+00  0.00000000000E+00  0.45593999997E+02  0.45594000000E+02  0.51100000000E-03 0. -1.
         11   -1    0    0    0    0 -0.00000000000E+00 -0.00000000000E+00 -0.45593999997E+02  0.45594000000E+02  0.51100000000E-03 0.  1.
    9900012    2    1    2    0    0 -0.43859766283E+01 -0.85431332357E+00  0.44823516306E+02  0.46142309238E+02  0.99999222775E+01 0.  0.
        -12    1    1    2    0    0  0.43859766283E+01  0.85431332357E+00 -0.44823516306E+02  0.45045690762E+02  0.00000000000E+00 0.  1.
         11    1    3    3    0    0 -0.13177679960E+01 -0.20022272694E+01  0.19663611352E+02  0.19809165510E+02  0.51100000000E-03 0. -1.
        -11    1    3    3    0    0  0.13889431855E+01  0.27133785816E+01  0.99872604274E+01  0.10442076307E+02  0.51100000000E-03 0.  1.
        -12    1    3    3    0    0 -0.44571518178E+01 -0.15654646358E+01  0.15172644526E+02  0.15891067420E+02  0.00000000000E+00 0.  1.
</event>
<event>
 7    1  0.4452647E-009  0.4614232E+02  0.7816164E-02  0.1320468E+00
        -11   -1    0    0    0    0  0.00000000000E+00  0.00000000000E+00  0.45593999997E+02  0.45594000000E+02  0.51100000000E-03 0. -1.
         11   -1    0    0    0    0 -0.00000000000E+00 -0.00000000000E+00 -0.45593999997E+02  0.45594000000E+02  0.51100000000E-03 0.  1.
    9900012    2    1    2    0    0 -0.28675447701E+02  0.30712764786E+02  0.16234477388E+02  0.46142317880E+02  0.10000001082E+02 0.  0.
        -12    1    1    2    0    0  0.28675447701E+02 -0.30712764786E+02 -0.16234477388E+02  0.45045682120E+02  0.00000000000E+00 0.  1.
         11    1    3    3    0    0 -0.16777175596E+02  0.15506412478E+02  0.64737529751E+01  0.23745145330E+02  0.51100000000E-03 0. -1.
        -11    1    3    3    0    0 -0.74533089078E+01  0.94755452517E+01  0.91194780732E+01  0.15116304181E+02  0.51100000000E-03 0.  1.
        -12    1    3    3    0    0 -0.44449631970E+01  0.57308070561E+01  0.64124633963E+00  0.72808683689E+01  0.00000000000E+00 0.  1.
</event>
<event>
 7    1  0.4452647E-009  0.4614232E+02  0.7816164E-02  0.1320468E+00
        -11   -1    0    0    0    0  0.00000000000E+00  0.00000000000E+00  0.45593999997E+02  0.45594000000E+02  0.51100000000E-03 0. -1.
         11   -1    0    0    0    0 -0.00000000000E+00 -0.00000000000E+00 -0.45593999997E+02  0.45594000000E+02  0.51100000000E-03 0.  1.
    9900012    2    1    2    0    0 -0.12254329265E+02 -0.36497493904E+02  0.23385421200E+02  0.46142316836E+02  0.99999915653E+01 0.  0.
        -12    1    1    2    0    0  0.12254329265E+02  0.36497493904E+02 -0.23385421200E+02  0.45045683164E+02  0.00000000000E+00 0.  1.
         11    1    3    3    0    0  0.95025926945E+00 -0.15773680541E+01  0.24881098299E+01  0.30954439818E+01  0.51100000000E-03 0. -1.
        -11    1    3    3    0    0 -0.27610295704E+00 -0.38398208354E+01  0.32575689490E+01  0.50430360508E+01  0.51100000000E-03 0.  1.
         12    1    3    3    0    0 -0.12928485578E+02 -0.31080305015E+02  0.17639742421E+02  0.38003836804E+02  0.00000000000E+00 0. -1.
</event>
<event>
 7    1  0.9254892E-009  0.4614232E+02  0.7816164E-02  0.1320468E+00
        -11   -1    0    0    0    0  0.00000000000E+00  0.00000000000E+00  0.45593999997E+02  0.45594000000E+02  0.51100000000E-03 0. -1.
         11   -1    0    0    0    0 -0.00000000000E+00 -0.00000000000E+00 -0.45593999997E+02  0.45594000000E+02  0.51100000000E-03 0.  1.
    9900012    2    1    2    0    0 -0.13553574366E+02  0.12694305970E+02  0.41039843535E+02  0.46142317193E+02  0.99999948218E+01 0.  0.
        -12    1    1    2    0    0  0.13553574366E+02 -0.12694305970E+02 -0.41039843535E+02  0.45045682807E+02  0.00000000000E+00 0.  1.
         11    1    3    3    0    0 -0.11514142325E+02  0.12774398713E+02  0.39952612697E+02  0.43496804452E+02  0.51100000000E-03 0. -1.
        -11    1    3    3    0    0 -0.22876905713E+00 -0.50043737738E+00  0.19629531983E+00  0.58421311513E+00  0.51100000000E-03 0.  1.
         12    1    3    3    0    0 -0.18106629834E+01  0.42034463435E+00  0.89093551837E+00  0.20612996262E+01  0.00000000000E+00 0. -1.
</event>
<event>
 7    1  0.4452647E-009  0.4614232E+02  0.7816164E-02  0.1320468E+00
        -11   -1    0    0    0    0  0.00000000000E+00  0.00000000000E+00  0.45593999997E+02  0.45594000000E+02  0.51100000000E-03 0. -1.
         11   -1    0    0    0    0 -0.00000000000E+00 -0.00000000000E+00 -0.45593999997E+02  0.45594000000E+02  0.51100000000E-03 0.  1.
    9900012    2    1    2    0    0  0.31773605280E+01 -0.30428874450E+02  0.33062086033E+02  0.46142317043E+02  0.99999934495E+01 0.  0.
        -12    1    1    2    0    0 -0.31773605280E+01  0.30428874450E+02 -0.33062086033E+02  0.45045682957E+02  0.00000000000E+00 0.  1.
         11    1    3    3    0    0  0.66152254060E+00 -0.86471094556E+00  0.26185361163E+01  0.28358541473E+01  0.51100000000E-03 0. -1.
        -11    1    3    3    0    0  0.44760734026E+01 -0.14405734092E+02  0.18731062663E+02  0.24050220718E+02  0.51100000000E-03 0.  1.
        -12    1    3    3    0    0 -0.19602354152E+01 -0.15158429412E+02  0.11712487254E+02  0.19256242177E+02  0.00000000000E+00 0.  1.
</event>
<event>
 7    1  0.4452647E-009  0.4614232E+02  0.7816164E-02  0.1320468E+00
        -11   -1    0    0    0    0  0.00000000000E+00  0.00000000000E+00  0.45593999997E+02  0.45594000000E+02  0.51100000000E-03 0. -1.
         11   -1    0    0    0    0 -0.00000000000E+00 -0.00000000000E+00 -0.45593999997E+02  0.45594000000E+02  0.51100000000E-03 0.  1.
    9900012    2    1    2    0    0  0.10752963084E+02  0.22398690580E+02  0.37573736812E+02  0.46142320376E+02  0.10000023842E+02 0.  0.
        -12    1    1    2    0    0 -0.10752963084E+02 -0.22398690580E+02 -0.37573736812E+02  0.45045679624E+02  0.00000000000E+00 0.  1.
         11    1    3    3    0    0  0.77441801755E+00  0.10154098812E+02  0.17684878928E+02  0.20407361145E+02  0.51100000000E-03 0. -1.
        -11    1    3    3    0    0  0.29971099788E+01  0.11642405551E+01  0.44414350547E+01  0.54831076865E+01  0.51100000000E-03 0.  1.
        -12    1    3    3    0    0  0.69814350881E+01  0.11080351214E+02  0.15447422829E+02  0.20251851544E+02  0.00000000000E+00 0.  1.
</event>
<event>
 7    1  0.4452647E-009  0.4614232E+02  0.7816164E-02  0.1320468E+00
        -11   -1    0    0    0    0  0.00000000000E+00  0.00000000000E+00  0.45593999997E+02  0.45594000000E+02  0.51100000000E-03 0. -1.
         11   -1    0    0    0    0 -0.00000000000E+00 -0.00000000000E+00 -0.45593999997E+02  0.45594000000E+02  0.51100000000E-03 0.  1.
    9900012    2    1    2    0    0  0.28263391628E+01 -0.27378794119E+02  0.35658467874E+02  0.46142324385E+02  0.10000060398E+02 0.  0.
        -12    1    1    2    0    0 -0.28263391628E+01  0.27378794119E+02 -0.35658467874E+02  0.45045675615E+02  0.00000000000E+00 0.  1.
         11    1    3    3    0    0  0.24333022741E+01 -0.26018403813E+02  0.32767896671E+02  0.41911971434E+02  0.51100000000E-03 0. -1.
        -11    1    3    3    0    0 -0.11678134018E+01 -0.59037790270E+00  0.15807385303E+01  0.20520888801E+01  0.51100000000E-03 0.  1.
        -12    1    3    3    0    0  0.15608502905E+01 -0.77001240341E+00  0.13098326727E+01  0.21782640706E+01  0.00000000000E+00 0.  1.
</event>
<event>
 7    1  0.5260920E-009  0.4614232E+02  0.7816164E-02  0.1320468E+00
        -11   -1    0    0    0    0  0.00000000000E+00  0.00000000000E+00  0.45593999997E+02  0.45594000000E+02  0.51100000000E-03 0. -1.
         11   -1    0    0    0    0 -0.00000000000E+00 -0.00000000000E+00 -0.45593999997E+02  0.45594000000E+02  0.51100000000E-03 0.  1.
    9900012    2    1    2    0    0  0.14126854280E+01 -0.23429756897E+01  0.44962521503E+02  0.46142317021E+02  0.99999932485E+01 0.  0.
        -12    1    1    2    0    0 -0.14126854280E+01  0.23429756897E+01 -0.44962521503E+02  0.45045682979E+02  0.00000000000E+00 0.  1.
         11    1    3    3    0    0  0.51946216155E+01 -0.35185388792E+01  0.30869450164E+02  0.31500589887E+02  0.51100000000E-03 0. -1.
        -11    1    3    3    0    0 -0.26195521049E+01  0.81384368061E+00  0.92642152128E+01  0.96617844385E+01  0.51100000000E-03 0.  1.
         12    1    3    3    0    0 -0.11623840826E+01  0.36171950885E+00  0.48288561258E+01  0.49799426947E+01  0.00000000000E+00 0. -1.
</event>
<event>
 7    1  0.4452647E-009  0.4614232E+02  0.7816164E-02  0.1320468E+00
        -11   -1    0    0    0    0  0.00000000000E+00  0.00000000000E+00  0.45593999997E+02  0.45594000000E+02  0.51100000000E-03 0. -1.
         11   -1    0    0    0    0 -0.00000000000E+00 -0.00000000000E+00 -0.45593999997E+02  0.45594000000E+02  0.51100000000E-03 0.  1.
    9900012    2    1    2    0    0  0.19827470294E+02  0.12396543176E+02 -0.38500785903E+02  0.46142319007E+02  0.10000011359E+02 0.  0.
         12    1    1    2    0    0 -0.19827470294E+02 -0.12396543176E+02  0.38500785903E+02  0.45045680993E+02  0.00000000000E+00 0. -1.
         11    1    3    3    0    0  0.57909202984E+01  0.81900817590E+01 -0.16946088803E+02  0.19692184315E+02  0.51100000000E-03 0. -1.
        -11    1    3    3    0    0  0.12349300769E+02  0.19612312759E+01 -0.17099928243E+02  0.21183937400E+02  0.51100000000E-03 0.  1.
        -12    1    3    3    0    0  0.16872492266E+01  0.22452301412E+01 -0.44547688574E+01  0.52661972915E+01  0.00000000000E+00 0.  1.
</event>
<event>
 7    1  0.4452647E-009  0.4614232E+02  0.7816164E-02  0.1320468E+00
        -11   -1    0    0    0    0  0.00000000000E+00  0.00000000000E+00  0.45593999997E+02  0.45594000000E+02  0.51100000000E-03 0. -1.
         11   -1    0    0    0    0 -0.00000000000E+00 -0.00000000000E+00 -0.45593999997E+02  0.45594000000E+02  0.51100000000E-03 0.  1.
    9900012    2    1    2    0    0 -0.18262332631E+02 -0.49545079476E+00 -0.41174690138E+02  0.46142319047E+02  0.10000011721E+02 0.  0.
         12    1    1    2    0    0  0.18262332631E+02  0.49545079476E+00  0.41174690138E+02  0.45045680953E+02  0.00000000000E+00 0. -1.
         11    1    3    3    0    0 -0.90981793405E+01  0.40837639897E+01 -0.18300302907E+02  0.20841187163E+02  0.51100000000E-03 0. -1.
        -11    1    3    3    0    0 -0.73303865068E+01 -0.49764748855E+01 -0.19916632231E+02  0.21798442795E+02  0.51100000000E-03 0.  1.
        -12    1    3    3    0    0 -0.18337667832E+01  0.39726010103E+00 -0.29577550004E+01  0.35026890877E+01  0.00000000000E+00 0.  1.
</event>
<event>
 7    1  0.6129964E-009  0.4614232E+02  0.7816164E-02  0.1320468E+00
        -11   -1    0    0    0    0  0.00000000000E+00  0.00000000000E+00  0.45593999997E+02  0.45594000000E+02  0.51100000000E-03 0. -1.
         11   -1    0    0    0    0 -0.00000000000E+00 -0.00000000000E+00 -0.45593999997E+02  0.45594000000E+02  0.51100000000E-03 0.  1.
    9900012    2    1    2    0    0 -0.24183725222E+01 -0.30598424726E+02  0.32969702657E+02  0.46142318579E+02  0.10000007460E+02 0.  0.
        -12    1    1    2    0    0  0.24183725222E+01  0.30598424726E+02 -0.32969702657E+02  0.45045681421E+02  0.00000000000E+00 0.  1.
         11    1    3    3    0    0 -0.31745423080E+01 -0.12009040213E+02  0.90683573327E+01  0.15379527648E+02  0.51100000000E-03 0. -1.
        -11    1    3    3    0    0  0.27928580574E-01 -0.41520056276E+01  0.94522035952E+01  0.10323956790E+02  0.51100000000E-03 0.  1.
         12    1    3    3    0    0  0.72824120521E+00 -0.14437378885E+02  0.14449141729E+02  0.20438834141E+02  0.00000000000E+00 0. -1.
</event>
<event>
 7    1  0.4452647E-009  0.4614232E+02  0.7816164E-02  0.1320468E+00
        -11   -1    0    0    0    0  0.00000000000E+00  0.00000000000E+00  0.45593999997E+02  0.45594000000E+02  0.51100000000E-03 0.  1.
         11   -1    0    0    0    0 -0.00000000000E+00 -0.00000000000E+00 -0.45593999997E+02  0.45594000000E+02  0.51100000000E-03 0. -1.
    9900012    2    1    2    0    0  0.29010152313E+02 -0.29024122591E+02  0.18577537834E+02  0.46142317172E+02  0.99999946309E+01 0.  0.
        -12    1    1    2    0    0 -0.29010152313E+02  0.29024122591E+02 -0.18577537834E+02  0.45045682828E+02  0.00000000000E+00 0.  1.
         11    1    3    3    0    0  0.67242880945E+01 -0.62597950371E+01  0.58934676028E+01  0.10914854325E+02  0.51100000000E-03 0. -1.
        -11    1    3    3    0    0  0.62354537569E+00 -0.22441031625E+01  0.31203602679E+01  0.38937714753E+01  0.51100000000E-03 0.  1.
        -12    1    3    3    0    0  0.21662318843E+02 -0.20520224391E+02  0.95637099633E+01  0.31333691372E+02  0.00000000000E+00 0.  1.
</event>
<event>
 7    1  0.4452647E-009  0.4614232E+02  0.7816164E-02  0.1320468E+00
        -11   -1    0    0    0    0  0.00000000000E+00  0.00000000000E+00  0.45593999997E+02  0.45594000000E+02  0.51100000000E-03 0. -1.
         11   -1    0    0    0    0 -0.00000000000E+00 -0.00000000000E+00 -0.45593999997E+02  0.45594000000E+02  0.51100000000E-03 0.  1.
    9900012    2    1    2    0    0  0.21804024809E+02  0.30657237052E+02  0.24775629711E+02  0.46142317531E+02  0.99999978992E+01 0.  0.
        -12    1    1    2    0    0 -0.21804024809E+02 -0.30657237052E+02 -0.24775629711E+02  0.45045682469E+02  0.00000000000E+00 0.  1.
         11    1    3    3    0    0  0.15229021967E+02  0.15327754198E+02  0.11887953611E+02  0.24661439539E+02  0.51100000000E-03 0. -1.
        -11    1    3    3    0    0  0.47812950222E+01  0.13166787565E+02  0.12228950608E+02  0.18594953888E+02  0.51100000000E-03 0.  1.
        -12    1    3    3    0    0  0.17937078198E+01  0.21626952898E+01  0.65872549200E+00  0.28859241039E+01  0.00000000000E+00 0.  1.
</event>
<event>
 7    1  0.4452647E-009  0.4614232E+02  0.7816164E-02  0.1320468E+00
        -11   -1    0    0    0    0  0.00000000000E+00  0.00000000000E+00  0.45593999997E+02  0.45594000000E+02  0.51100000000E-03 0. -1.
         11   -1    0    0    0    0 -0.00000000000E+00 -0.00000000000E+00 -0.45593999997E+02  0.45594000000E+02  0.51100000000E-03 0.  1.
    9900012    2    1    2    0    0 -0.11028942162E+02 -0.12911732862E+02  0.41722452172E+02  0.46142318454E+02  0.10000006317E+02 0.  0.
        -12    1    1    2    0    0  0.11028942162E+02  0.12911732862E+02 -0.41722452172E+02  0.45045681546E+02  0.00000000000E+00 0.  1.
         11    1    3    3    0    0 -0.62945408408E+01 -0.48164564424E+01  0.85587931886E+01  0.11665009137E+02  0.51100000000E-03 0.  1.
        -11    1    3    3    0    0 -0.26464957028E+01 -0.51805919561E+01  0.19314059222E+02  0.20171151588E+02  0.51100000000E-03 0. -1.
        -12    1    3    3    0    0 -0.20879056185E+01 -0.29146844632E+01  0.13849599762E+02  0.14306157728E+02  0.00000000000E+00 0.  1.
</event>
<event>
 7    1  0.4452647E-009  0.4614232E+02  0.7816164E-02  0.1320468E+00
        -11   -1    0    0    0    0  0.00000000000E+00  0.00000000000E+00  0.45593999997E+02  0.45594000000E+02  0.51100000000E-03 0. -1.
         11   -1    0    0    0    0 -0.00000000000E+00 -0.00000000000E+00 -0.45593999997E+02  0.45594000000E+02  0.51100000000E-03 0.  1.
    9900012    2    1    2    0    0  0.16435592313E+02  0.19170226236E+02 -0.37302643291E+02  0.46142318019E+02  0.10000002356E+02 0.  0.
         12    1    1    2    0    0 -0.16435592313E+02 -0.19170226236E+02  0.37302643291E+02  0.45045681981E+02  0.00000000000E+00 0. -1.
         11    1    3    3    0    0  0.89271157857E+00  0.75310545168E+00  0.50944804870E+00  0.12742210795E+01  0.51100000000E-03 0. -1.
        -11    1    3    3    0    0  0.11521309201E+02  0.12521948198E+02 -0.26858161878E+02  0.31794663264E+02  0.51100000000E-03 0.  1.
        -12    1    3    3    0    0  0.40215715332E+01  0.58951725872E+01 -0.10953929461E+02  0.13073433676E+02  0.00000000000E+00 0.  1.
</event>
<event>
 7    1  0.4452647E-009  0.4614232E+02  0.7816164E-02  0.1320468E+00
        -11   -1    0    0    0    0  0.00000000000E+00  0.00000000000E+00  0.45593999997E+02  0.45594000000E+02  0.51100000000E-03 0. -1.
         11   -1    0    0    0    0 -0.00000000000E+00 -0.00000000000E+00 -0.45593999997E+02  0.45594000000E+02  0.51100000000E-03 0.  1.
    9900012    2    1    2    0    0  0.94280301233E+01  0.20403682809E+02  0.39037360304E+02  0.46142317370E+02  0.99999964290E+01 0.  0.
        -12    1    1    2    0    0 -0.94280301233E+01 -0.20403682809E+02 -0.39037360304E+02  0.45045682630E+02  0.00000000000E+00 0.  1.
         11    1    3    3    0    0  0.16785686789E+01  0.60945353219E+00  0.60481648791E+01  0.63062924990E+01  0.51100000000E-03 0.  1.
        -11    1    3    3    0    0  0.61041643609E+01  0.73928745917E+01  0.11515544171E+02  0.14984097407E+02  0.51100000000E-03 0. -1.
         12    1    3    3    0    0  0.16452970836E+01  0.12401354685E+02  0.21473651254E+02  0.24851927464E+02  0.00000000000E+00 0. -1.
</event>
<event>
 7    1  0.4452647E-009  0.4614232E+02  0.7816164E-02  0.1320468E+00
        -11   -1    0    0    0    0  0.00000000000E+00  0.00000000000E+00  0.45593999997E+02  0.45594000000E+02  0.51100000000E-03 0.  1.
         11   -1    0    0    0    0 -0.00000000000E+00 -0.00000000000E+00 -0.45593999997E+02  0.45594000000E+02  0.51100000000E-03 0. -1.
    9900012    2    1    2    0    0 -0.21225273359E+01 -0.44995357403E+02 -0.16101597664E+00  0.46142320559E+02  0.10000025516E+02 0.  0.
         12    1    1    2    0    0  0.21225273359E+01  0.44995357403E+02  0.16101597664E+00  0.45045679441E+02  0.00000000000E+00 0. -1.
         11    1    3    3    0    0  0.89247169616E+00 -0.14504550520E+02  0.15684944598E+01  0.14616383501E+02  0.51100000000E-03 0. -1.
        -11    1    3    3    0    0  0.12469404845E+01 -0.20630369132E+02 -0.21221362206E+01  0.20776680522E+02  0.51100000000E-03 0.  1.
        -12    1    3    3    0    0 -0.42619395165E+01 -0.98604377514E+01  0.39262578411E+00  0.10749256537E+02  0.00000000000E+00 0.  1.
</event>
<event>
 7    1  0.4452647E-009  0.4614232E+02  0.7816164E-02  0.1320468E+00
        -11   -1    0    0    0    0  0.00000000000E+00  0.00000000000E+00  0.45593999997E+02  0.45594000000E+02  0.51100000000E-03 0. -1.
         11   -1    0    0    0    0 -0.00000000000E+00 -0.00000000000E+00 -0.45593999997E+02  0.45594000000E+02  0.51100000000E-03 0.  1.
    9900012    2    1    2    0    0  0.18619177757E+01  0.27982496690E+02  0.35250910928E+02  0.46142316743E+02  0.99999907132E+01 0.  0.
        -12    1    1    2    0    0 -0.18619177757E+01 -0.27982496690E+02 -0.35250910928E+02  0.45045683257E+02  0.00000000000E+00 0.  1.
         11    1    3    3    0    0 -0.67517872599E+00  0.46428307892E+01  0.17153160366E+01  0.49954032285E+01  0.51100000000E-03 0. -1.
        -11    1    3    3    0    0  0.35870130470E+01  0.19423299268E+02  0.28634850897E+02  0.34786289012E+02  0.51100000000E-03 0.  1.
        -12    1    3    3    0    0 -0.10499165453E+01  0.39163666327E+01  0.49007439950E+01  0.63606245023E+01  0.00000000000E+00 0.  1.
</event>
<event>
 7    1  0.4452647E-009  0.4614232E+02  0.7816164E-02  0.1320468E+00
        -11   -1    0    0    0    0  0.00000000000E+00  0.00000000000E+00  0.45593999997E+02  0.45594000000E+02  0.51100000000E-03 0. -1.
         11   -1    0    0    0    0 -0.00000000000E+00 -0.00000000000E+00 -0.45593999997E+02  0.45594000000E+02  0.51100000000E-03 0.  1.
    9900012    2    1    2    0    0 -0.79549994408E+01 -0.30869698751E+02  0.31825984291E+02  0.46142316597E+02  0.99999893888E+01 0.  0.
        -12    1    1    2    0    0  0.79549994408E+01  0.30869698751E+02 -0.31825984291E+02  0.45045683403E+02  0.00000000000E+00 0.  1.
         11    1    3    3    0    0  0.70385975140E+00 -0.62525590993E+01  0.75452757166E+01  0.98245152419E+01  0.51100000000E-03 0. -1.
        -11    1    3    3    0    0 -0.10244341635E+01 -0.12633536445E+02  0.97179708113E+01  0.15971683237E+02  0.51100000000E-03 0.  1.
         12    1    3    3    0    0 -0.76344250286E+01 -0.11983603207E+02  0.14562737763E+02  0.20346118119E+02  0.00000000000E+00 0. -1.
</event>
<event>
 7    1  0.4452647E-009  0.4614232E+02  0.7816164E-02  0.1320468E+00
        -11   -1    0    0    0    0  0.00000000000E+00  0.00000000000E+00  0.45593999997E+02  0.45594000000E+02  0.51100000000E-03 0. -1.
         11   -1    0    0    0    0 -0.00000000000E+00 -0.00000000000E+00 -0.45593999997E+02  0.45594000000E+02  0.51100000000E-03 0.  1.
    9900012    2    1    2    0    0  0.72882571421E+00  0.32822949319E+02 -0.30842120938E+02  0.46142316380E+02  0.99999874031E+01 0.  0.
         12    1    1    2    0    0 -0.72882571421E+00 -0.32822949319E+02  0.30842120938E+02  0.45045683620E+02  0.00000000000E+00 0. -1.
         11    1    3    3    0    0 -0.23260322498E+01  0.52097233812E+01 -0.74372174016E+01  0.93735717138E+01  0.51100000000E-03 0. -1.
        -11    1    3    3    0    0  0.27120311338E+01  0.67263238249E+01 -0.81002084137E+01  0.10872530601E+02  0.51100000000E-03 0.  1.
         12    1    3    3    0    0  0.34282683019E+00  0.20886902113E+02 -0.15304695122E+02  0.25896214065E+02  0.00000000000E+00 0. -1.
</event>
<event>
 7    1  0.4452647E-009  0.4614231E+02  0.7816164E-02  0.1320468E+00
        -11   -1    0    0    0    0  0.00000000000E+00  0.00000000000E+00  0.45593999997E+02  0.45594000000E+02  0.51100000000E-03 0.  1.
         11   -1    0    0    0    0 -0.00000000000E+00 -0.00000000000E+00 -0.45593999997E+02  0.45594000000E+02  0.51100000000E-03 0. -1.
    9900012    2    1    2    0    0 -0.60978420526E+01  0.43042621612E+02 -0.11800970057E+02  0.46142313778E+02  0.99999636789E+01 0.  0.
        -12    1    1    2    0    0  0.60978420526E+01 -0.43042621612E+02  0.11800970057E+02  0.45045686222E+02  0.00000000000E+00 0.  1.
         11    1    3    3    0    0 -0.41630748053E+01  0.29237625304E+02 -0.82861176285E+01  0.30672946889E+02  0.51100000000E-03 0. -1.
        -11    1    3    3    0    0 -0.36528046166E+01  0.10810482018E+02 -0.37438871407E+01  0.12009421060E+02  0.51100000000E-03 0.  1.
        -12    1    3    3    0    0  0.17180373693E+01  0.29945142902E+01  0.22903471215E+00  0.34599458285E+01  0.00000000000E+00 0.  1.
</event>
<event>
 7    1  0.4452647E-009  0.4614232E+02  0.7816164E-02  0.1320468E+00
        -11   -1    0    0    0    0  0.00000000000E+00  0.00000000000E+00  0.45593999997E+02  0.45594000000E+02  0.51100000000E-03 0. -1.
         11   -1    0    0    0    0 -0.00000000000E+00 -0.00000000000E+00 -0.45593999997E+02  0.45594000000E+02  0.51100000000E-03 0.  1.
    9900012    2    1    2    0    0  0.18544950692E+02  0.66425635598E+01 -0.40510179451E+02  0.46142317787E+02  0.10000000240E+02 0.  0.
         12    1    1    2    0    0 -0.18544950692E+02 -0.66425635598E+01  0.40510179451E+02  0.45045682213E+02  0.00000000000E+00 0. -1.
         11    1    3    3    0    0  0.65977600322E+00  0.17285904047E+01 -0.10816501620E+02  0.10973606368E+02  0.51100000000E-03 0. -1.
        -11    1    3    3    0    0  0.16448506918E+02  0.40978234533E+01 -0.28383163853E+02  0.33059787166E+02  0.51100000000E-03 0.  1.
        -12    1    3    3    0    0  0.14366677708E+01  0.81614970186E+00 -0.13105139776E+01  0.21089242530E+01  0.00000000000E+00 0.  1.
</event>
<event>
 7    1  0.4452647E-009  0.4614232E+02  0.7816164E-02  0.1320468E+00
        -11   -1    0    0    0    0  0.00000000000E+00  0.00000000000E+00  0.45593999997E+02  0.45594000000E+02  0.51100000000E-03 0. -1.
         11   -1    0    0    0    0 -0.00000000000E+00 -0.00000000000E+00 -0.45593999997E+02  0.45594000000E+02  0.51100000000E-03 0.  1.
    9900012    2    1    2    0    0  0.17324040832E+02  0.24168901283E+02 -0.33835710958E+02  0.46142317455E+02  0.99999972084E+01 0.  0.
         12    1    1    2    0    0 -0.17324040832E+02 -0.24168901283E+02  0.33835710958E+02  0.45045682545E+02  0.00000000000E+00 0. -1.
         11    1    3    3    0    0  0.40994761226E+00  0.48247731286E+00  0.59272886593E+00  0.86727687151E+00  0.51100000000E-03 0. -1.
        -11    1    3    3    0    0  0.84901516544E+01  0.12448084518E+02 -0.14638608561E+02  0.21007768662E+02  0.51100000000E-03 0.  1.
        -12    1    3    3    0    0  0.84239415649E+01  0.11238339451E+02 -0.19789831262E+02  0.24267271921E+02  0.00000000000E+00 0.  1.
</event>
<event>
 7    1  0.4452647E-009  0.4614232E+02  0.7816164E-02  0.1320468E+00
        -11   -1    0    0    0    0  0.00000000000E+00  0.00000000000E+00  0.45593999997E+02  0.45594000000E+02  0.51100000000E-03 0. -1.
         11   -1    0    0    0    0 -0.00000000000E+00 -0.00000000000E+00 -0.45593999997E+02  0.45594000000E+02  0.51100000000E-03 0.  1.
    9900012    2    1    2    0    0 -0.12861846377E+02  0.12940350801E+02 -0.41185357055E+02  0.46142318666E+02  0.10000008251E+02 0.  0.
         12    1    1    2    0    0  0.12861846377E+02 -0.12940350801E+02  0.41185357055E+02  0.45045681334E+02  0.00000000000E+00 0. -1.
         11    1    3    3    0    0 -0.96141696987E+00  0.35571176820E+01 -0.24701243197E+01  0.44360932372E+01  0.51100000000E-03 0. -1.
        -11    1    3    3    0    0 -0.91044615931E+01  0.82141666242E+01 -0.33509335949E+02  0.35682479597E+02  0.51100000000E-03 0.  1.
         12    1    3    3    0    0 -0.27959678140E+01  0.11690664948E+01 -0.52058967869E+01  0.60237458315E+01  0.00000000000E+00 0. -1.
</event>
<event>
 7    1  0.4452647E-009  0.4614232E+02  0.7816164E-02  0.1320468E+00
        -11   -1    0    0    0    0  0.00000000000E+00  0.00000000000E+00  0.45593999997E+02  0.45594000000E+02  0.51100000000E-03 0. -1.
         11   -1    0    0    0    0 -0.00000000000E+00 -0.00000000000E+00 -0.45593999997E+02  0.45594000000E+02  0.51100000000E-03 0.  1.
    9900012    2    1    2    0    0  0.26836432534E+02  0.24570840211E+02 -0.26555474012E+02  0.46142317634E+02  0.99999988422E+01 0.  0.
         12    1    1    2    0    0 -0.26836432534E+02 -0.24570840211E+02  0.26555474012E+02  0.45045682366E+02  0.00000000000E+00 0. -1.
         11    1    3    3    0    0  0.59481252985E+01  0.63259265095E+01 -0.19665268874E+01  0.89030763801E+01  0.51100000000E-03 0. -1.
        -11    1    3    3    0    0  0.14010603924E+02  0.10189357632E+02 -0.16335886041E+02  0.23811367124E+02  0.51100000000E-03 0.  1.
         12    1    3    3    0    0  0.68777033107E+01  0.80555560689E+01 -0.82530610835E+01  0.13427874130E+02  0.00000000000E+00 0. -1.
</event>
<event>
 7    1  0.4452647E-009  0.4614232E+02  0.7816164E-02  0.1320468E+00
        -11   -1    0    0    0    0  0.00000000000E+00  0.00000000000E+00  0.45593999997E+02  0.45594000000E+02  0.51100000000E-03 0. -1.
         11   -1    0    0    0    0 -0.00000000000E+00 -0.00000000000E+00 -0.45593999997E+02  0.45594000000E+02  0.51100000000E-03 0.  1.
    9900012    2    1    2    0    0  0.11280032947E+02  0.59927630553E+01 -0.43196774761E+02  0.46142315389E+02  0.99999783655E+01 0.  0.
         12    1    1    2    0    0 -0.11280032947E+02 -0.59927630553E+01  0.43196774761E+02  0.45045684611E+02  0.00000000000E+00 0. -1.
         11    1    3    3    0    0  0.11412834521E+02  0.36485233953E+01 -0.33704213988E+02  0.35770638177E+02  0.51100000000E-03 0. -1.
        -11    1    3    3    0    0  0.10537178888E+01  0.17612833764E+01 -0.84280898531E+01  0.86743956190E+01  0.51100000000E-03 0.  1.
         12    1    3    3    0    0 -0.11865194629E+01  0.58295628356E+00 -0.10644709200E+01  0.16972815924E+01  0.00000000000E+00 0. -1.
</event>
<event>
 7    1  0.4452647E-009  0.4614232E+02  0.7816164E-02  0.1320468E+00
        -11   -1    0    0    0    0  0.00000000000E+00  0.00000000000E+00  0.45593999997E+02  0.45594000000E+02  0.51100000000E-03 0. -1.
         11   -1    0    0    0    0 -0.00000000000E+00 -0.00000000000E+00 -0.45593999997E+02  0.45594000000E+02  0.51100000000E-03 0.  1.
    9900012    2    1    2    0    0 -0.96143178768E+01  0.22596807712E+02 -0.37763245340E+02  0.46142317348E+02  0.99999962343E+01 0.  0.
         12    1    1    2    0    0  0.96143178768E+01 -0.22596807712E+02  0.37763245340E+02  0.45045682652E+02  0.00000000000E+00 0. -1.
         11    1    3    3    0    0 -0.33472265654E+01  0.32567014884E+01 -0.51498366770E+01  0.69520391487E+01  0.51100000000E-03 0. -1.
        -11    1    3    3    0    0 -0.44578955219E+01  0.14754227205E+02 -0.29707186810E+02  0.33467551469E+02  0.51100000000E-03 0.  1.
        -12    1    3    3    0    0 -0.18091957895E+01  0.45858790183E+01 -0.29062218526E+01  0.57227267305E+01  0.00000000000E+00 0.  1.
</event>
<event>
 7    1  0.4452647E-009  0.4614232E+02  0.7816164E-02  0.1320468E+00
        -11   -1    0    0    0    0  0.00000000000E+00  0.00000000000E+00  0.45593999997E+02  0.45594000000E+02  0.51100000000E-03 0. -1.
         11   -1    0    0    0    0 -0.00000000000E+00 -0.00000000000E+00 -0.45593999997E+02  0.45594000000E+02  0.51100000000E-03 0.  1.
    9900012    2    1    2    0    0  0.44723579951E+02  0.18400537683E+01  0.50526292719E+01  0.46142318031E+02  0.10000002460E+02 0.  0.
         12    1    1    2    0    0 -0.44723579951E+02 -0.18400537683E+01 -0.50526292719E+01  0.45045681969E+02  0.00000000000E+00 0. -1.
         11    1    3    3    0    0  0.26345708024E+02 -0.23525827678E+01 -0.61639438380E+00  0.26457719464E+02  0.51100000000E-03 0. -1.
        -11    1    3    3    0    0  0.90003936297E+01  0.20267289209E+01  0.28456294154E+01  0.96546529010E+01  0.51100000000E-03 0.  1.
         12    1    3    3    0    0  0.93774782975E+01  0.21659076153E+01  0.28233942403E+01  0.10029945666E+02  0.00000000000E+00 0. -1.
</event>
<event>
 7    1  0.4452647E-009  0.4614231E+02  0.7816164E-02  0.1320468E+00
        -11   -1    0    0    0    0  0.00000000000E+00  0.00000000000E+00  0.45593999997E+02  0.45594000000E+02  0.51100000000E-03 0. -1.
         11   -1    0    0    0    0 -0.00000000000E+00 -0.00000000000E+00 -0.45593999997E+02  0.45594000000E+02  0.51100000000E-03 0.  1.
    9900012    2    1    2    0    0  0.47780645469E+01 -0.34375605155E+01  0.44659456750E+02  0.46142314299E+02  0.99999684289E+01 0.  0.
        -12    1    1    2    0    0 -0.47780645469E+01  0.34375605155E+01 -0.44659456750E+02  0.45045685701E+02  0.00000000000E+00 0.  1.
         11    1    3    3    0    0  0.84394300184E+00  0.60872721554E+00  0.18337656471E+02  0.18367156386E+02  0.51100000000E-03 0. -1.
        -11    1    3    3    0    0  0.29643284963E+01  0.90540829660E+00  0.15861126004E+02  0.16161136284E+02  0.51100000000E-03 0.  1.
        -12    1    3    3    0    0  0.96979304879E+00 -0.49516960276E+01  0.10460674275E+02  0.11614021629E+02  0.00000000000E+00 0.  1.
</event>
<event>
 7    1  0.4452647E-009  0.4614232E+02  0.7816164E-02  0.1320468E+00
        -11   -1    0    0    0    0  0.00000000000E+00  0.00000000000E+00  0.45593999997E+02  0.45594000000E+02  0.51100000000E-03 0. -1.
         11   -1    0    0    0    0 -0.00000000000E+00 -0.00000000000E+00 -0.45593999997E+02  0.45594000000E+02  0.51100000000E-03 0.  1.
    9900012    2    1    2    0    0 -0.46101092658E+01  0.31761022788E+02 -0.31608506082E+02  0.46142319488E+02  0.10000015749E+02 0.  0.
         12    1    1    2    0    0  0.46101092658E+01 -0.31761022788E+02  0.31608506082E+02  0.45045680512E+02  0.00000000000E+00 0. -1.
         11    1    3    3    0    0 -0.15469716848E+00 -0.27716730239E+00 -0.12067451506E+01  0.12477928702E+01  0.51100000000E-03 0. -1.
        -11    1    3    3    0    0 -0.61947478921E+01  0.22665904326E+02 -0.21965003457E+02  0.32164879877E+02  0.51100000000E-03 0.  1.
         12    1    3    3    0    0  0.17393357947E+01  0.93722857649E+01 -0.84367574751E+01  0.12729646741E+02  0.00000000000E+00 0. -1.
</event>
<event>
 7    1  0.4452647E-009  0.4614232E+02  0.7816164E-02  0.1320468E+00
        -11   -1    0    0    0    0  0.00000000000E+00  0.00000000000E+00  0.45593999997E+02  0.45594000000E+02  0.51100000000E-03 0. -1.
         11   -1    0    0    0    0 -0.00000000000E+00 -0.00000000000E+00 -0.45593999997E+02  0.45594000000E+02  0.51100000000E-03 0.  1.
    9900012    2    1    2    0    0 -0.38128605819E+02  0.46630393103E+01 -0.23528260714E+02  0.46142316860E+02  0.99999917795E+01 0.  0.
         12    1    1    2    0    0  0.38128605819E+02 -0.46630393103E+01  0.23528260714E+02  0.45045683140E+02  0.00000000000E+00 0. -1.
         11    1    3    3    0    0 -0.37716808802E+01 -0.11391093869E+01 -0.34132920565E+01  0.52128408552E+01  0.51100000000E-03 0. -1.
        -11    1    3    3    0    0 -0.13642584061E+02  0.37273664247E+01 -0.12132331626E+02  0.18633486825E+02  0.51100000000E-03 0.  1.
        -12    1    3    3    0    0 -0.20714340878E+02  0.20747822726E+01 -0.79826370320E+01  0.22295989179E+02  0.00000000000E+00 0.  1.
</event>
<event>
 7    1  0.4452647E-009  0.4614232E+02  0.7816164E-02  0.1320468E+00
        -11   -1    0    0    0    0  0.00000000000E+00  0.00000000000E+00  0.45593999997E+02  0.45594000000E+02  0.51100000000E-03 0. -1.
         11   -1    0    0    0    0 -0.00000000000E+00 -0.00000000000E+00 -0.45593999997E+02  0.45594000000E+02  0.51100000000E-03 0.  1.
    9900012    2    1    2    0    0 -0.51273835745E+01 -0.22305839463E+02 -0.38797847502E+02  0.46142317552E+02  0.99999980912E+01 0.  0.
         12    1    1    2    0    0  0.51273835745E+01  0.22305839463E+02  0.38797847502E+02  0.45045682448E+02  0.00000000000E+00 0. -1.
         11    1    3    3    0    0 -0.46662735613E+01 -0.18308186020E+02 -0.23215772560E+02  0.29932188027E+02  0.51100000000E-03 0.  1.
        -11    1    3    3    0    0  0.31579981516E+00 -0.67096943734E+00 -0.58307129938E+01  0.58776818378E+01  0.51100000000E-03 0. -1.
        -12    1    3    3    0    0 -0.77690982836E+00 -0.33266840053E+01 -0.97513619483E+01  0.10332447687E+02  0.00000000000E+00 0.  1.
</event>
<event>
 7    1  0.4452647E-009  0.4614232E+02  0.7816164E-02  0.1320468E+00
        -11   -1    0    0    0    0  0.00000000000E+00  0.00000000000E+00  0.45593999997E+02  0.45594000000E+02  0.51100000000E-03 0. -1.
         11   -1    0    0    0    0 -0.00000000000E+00 -0.00000000000E+00 -0.45593999997E+02  0.45594000000E+02  0.51100000000E-03 0.  1.
    9900012    2    1    2    0    0  0.16117421446E+01 -0.34079876763E+02 -0.29412203744E+02  0.46142318276E+02  0.10000004696E+02 0.  0.
         12    1    1    2    0    0 -0.16117421446E+01  0.34079876763E+02  0.29412203744E+02  0.45045681724E+02  0.00000000000E+00 0. -1.
         11    1    3    3    0    0 -0.16265597497E+01 -0.46654470053E+01 -0.10209327815E+01  0.50452350177E+01  0.51100000000E-03 0. -1.
        -11    1    3    3    0    0  0.35328190412E+01 -0.21084525999E+02 -0.20490747694E+02  0.29612645750E+02  0.51100000000E-03 0.  1.
         12    1    3    3    0    0 -0.29451714700E+00 -0.83299037581E+01 -0.79005232679E+01  0.11484437508E+02  0.00000000000E+00 0. -1.
</event>
<event>
 7    1  0.4452647E-009  0.4614232E+02  0.7816164E-02  0.1320468E+00
        -11   -1    0    0    0    0  0.00000000000E+00  0.00000000000E+00  0.45593999997E+02  0.45594000000E+02  0.51100000000E-03 0. -1.
         11   -1    0    0    0    0 -0.00000000000E+00 -0.00000000000E+00 -0.45593999997E+02  0.45594000000E+02  0.51100000000E-03 0.  1.
    9900012    2    1    2    0    0  0.33563767861E+02 -0.27443767472E+02  0.12224015967E+02  0.46142318160E+02  0.10000003636E+02 0.  0.
        -12    1    1    2    0    0 -0.33563767861E+02  0.27443767472E+02 -0.12224015967E+02  0.45045681840E+02  0.00000000000E+00 0.  1.
         11    1    3    3    0    0  0.31219075228E+02 -0.27299729720E+02  0.12712182370E+02  0.43376323977E+02  0.51100000000E-03 0. -1.
        -11    1    3    3    0    0  0.92526369359E+00 -0.30685652216E+00 -0.84866284162E+00  0.12924792872E+01  0.51100000000E-03 0.  1.
         12    1    3    3    0    0  0.14194289393E+01  0.16281877020E+00  0.36049643894E+00  0.14735148958E+01  0.00000000000E+00 0. -1.
</event>
<event>
 7    1  0.4452647E-009  0.4614233E+02  0.7816164E-02  0.1320468E+00
        -11   -1    0    0    0    0  0.00000000000E+00  0.00000000000E+00  0.45593999997E+02  0.45594000000E+02  0.51100000000E-03 0. -1.
         11   -1    0    0    0    0 -0.00000000000E+00 -0.00000000000E+00 -0.45593999997E+02  0.45594000000E+02  0.51100000000E-03 0.  1.
    9900012    2    1    2    0    0  0.22251822193E+02  0.32600976457E+02  0.21705882789E+02  0.46142327572E+02  0.10000089463E+02 0.  0.
        -12    1    1    2    0    0 -0.22251822193E+02 -0.32600976457E+02 -0.21705882789E+02  0.45045672428E+02  0.00000000000E+00 0.  1.
         11    1    3    3    0    0  0.76175380018E+01  0.43066482882E+01  0.56486611743E+01  0.10415444206E+02  0.51100000000E-03 0.  1.
        -11    1    3    3    0    0  0.11192703105E+02  0.20651143157E+02  0.12645658141E+02  0.26676937354E+02  0.51100000000E-03 0. -1.
        -12    1    3    3    0    0  0.34415810866E+01  0.76431850112E+01  0.34115634739E+01  0.90499460124E+01  0.00000000000E+00 0.  1.
</event>
<event>
 7    1  0.4452647E-009  0.4614231E+02  0.7816164E-02  0.1320468E+00
        -11   -1    0    0    0    0  0.00000000000E+00  0.00000000000E+00  0.45593999997E+02  0.45594000000E+02  0.51100000000E-03 0. -1.
         11   -1    0    0    0    0 -0.00000000000E+00 -0.00000000000E+00 -0.45593999997E+02  0.45594000000E+02  0.51100000000E-03 0.  1.
    9900012    2    1    2    0    0  0.10555189543E+01 -0.14695008171E+02 -0.42568265241E+02  0.46142305521E+02  0.99998883860E+01 0.  0.
         12    1    1    2    0    0 -0.10555189543E+01  0.14695008171E+02  0.42568265241E+02  0.45045694479E+02  0.00000000000E+00 0. -1.
         11    1    3    3    0    0  0.20371054422E+01 -0.13734096926E+02 -0.27485969570E+02  0.30793728914E+02  0.51100000000E-03 0. -1.
        -11    1    3    3    0    0  0.84447840392E+00 -0.28572142896E+00 -0.42124771950E+01  0.43057804042E+01  0.51100000000E-03 0.  1.
         12    1    3    3    0    0 -0.18260648919E+01 -0.67518981666E+00 -0.10869818476E+02  0.11042796203E+02  0.00000000000E+00 0. -1.
</event>
<event>
 7    1  0.4452647E-009  0.4614232E+02  0.7816164E-02  0.1320468E+00
        -11   -1    0    0    0    0  0.00000000000E+00  0.00000000000E+00  0.45593999997E+02  0.45594000000E+02  0.51100000000E-03 0. -1.
         11   -1    0    0    0    0 -0.00000000000E+00 -0.00000000000E+00 -0.45593999997E+02  0.45594000000E+02  0.51100000000E-03 0.  1.
    9900012    2    1    2    0    0 -0.19908403412E+02  0.30094696609E+02  0.26964387841E+02  0.46142317609E+02  0.99999986154E+01 0.  0.
        -12    1    1    2    0    0  0.19908403412E+02 -0.30094696609E+02 -0.26964387841E+02  0.45045682391E+02  0.00000000000E+00 0.  1.
         11    1    3    3    0    0 -0.62843937110E+01  0.68219764806E+01  0.10270117808E+02  0.13838651938E+02  0.51100000000E-03 0. -1.
        -11    1    3    3    0    0 -0.79551723406E+01  0.18677530674E+02  0.11348671624E+02  0.23257843127E+02  0.51100000000E-03 0.  1.
        -12    1    3    3    0    0 -0.56688373604E+01  0.45951894546E+01  0.53455984088E+01  0.90458225436E+01  0.00000000000E+00 0.  1.
</event>
<event>
 7    1  0.4452647E-009  0.4614232E+02  0.7816164E-02  0.1320468E+00
        -11   -1    0    0    0    0  0.00000000000E+00  0.00000000000E+00  0.45593999997E+02  0.45594000000E+02  0.51100000000E-03 0. -1.
         11   -1    0    0    0    0 -0.00000000000E+00 -0.00000000000E+00 -0.45593999997E+02  0.45594000000E+02  0.51100000000E-03 0.  1.
    9900012    2    1    2    0    0  0.38862098625E+01 -0.16157993033E+02  0.41868007745E+02  0.46142318315E+02  0.10000005051E+02 0.  0.
        -12    1    1    2    0    0 -0.38862098625E+01  0.16157993033E+02 -0.41868007745E+02  0.45045681685E+02  0.00000000000E+00 0.  1.
         11    1    3    3    0    0  0.25874013879E+01 -0.13109764604E+01  0.72405281790E+01  0.77999072939E+01  0.51100000000E-03 0. -1.
        -11    1    3    3    0    0  0.33784407924E+00 -0.76535640935E+01  0.25806728467E+02  0.26919851716E+02  0.51100000000E-03 0.  1.
        -12    1    3    3    0    0  0.96096439538E+00 -0.71934524794E+01  0.88207510985E+01  0.11422559305E+02  0.00000000000E+00 0.  1.
</event>
<event>
 7    1  0.4452647E-009  0.4614232E+02  0.7816164E-02  0.1320468E+00
        -11   -1    0    0    0    0  0.00000000000E+00  0.00000000000E+00  0.45593999997E+02  0.45594000000E+02  0.51100000000E-03 0. -1.
         11   -1    0    0    0    0 -0.00000000000E+00 -0.00000000000E+00 -0.45593999997E+02  0.45594000000E+02  0.51100000000E-03 0.  1.
    9900012    2    1    2    0    0 -0.24318687572E+02  0.21846530347E+02  0.30991028149E+02  0.46142320083E+02  0.10000021169E+02 0.  0.
        -12    1    1    2    0    0  0.24318687572E+02 -0.21846530347E+02 -0.30991028149E+02  0.45045679917E+02  0.00000000000E+00 0.  1.
         11    1    3    3    0    0 -0.11077331825E+02  0.12919239141E+02  0.15481667728E+02  0.23006435105E+02  0.51100000000E-03 0. -1.
        -11    1    3    3    0    0  0.57723145081E+00  0.31142575389E+00  0.12302119278E-01  0.65599828601E+00  0.51100000000E-03 0.  1.
         12    1    3    3    0    0 -0.13818587198E+02  0.86158654529E+01  0.15497058302E+02  0.22479886692E+02  0.00000000000E+00 0. -1.
</event>
<event>
 7    1  0.4452647E-009  0.4614232E+02  0.7816164E-02  0.1320468E+00
        -11   -1    0    0    0    0  0.00000000000E+00  0.00000000000E+00  0.45593999997E+02  0.45594000000E+02  0.51100000000E-03 0. -1.
         11   -1    0    0    0    0 -0.00000000000E+00 -0.00000000000E+00 -0.45593999997E+02  0.45594000000E+02  0.51100000000E-03 0.  1.
    9900012    2    1    2    0    0 -0.11328832381E+02  0.27850516460E+02  0.33542806870E+02  0.46142316490E+02  0.99999884056E+01 0.  0.
        -12    1    1    2    0    0  0.11328832381E+02 -0.27850516460E+02 -0.33542806870E+02  0.45045683510E+02  0.00000000000E+00 0.  1.
         11    1    3    3    0    0 -0.91957300662E+01  0.25513634014E+02  0.29084869168E+02  0.39767280355E+02  0.51100000000E-03 0. -1.
        -11    1    3    3    0    0 -0.43500611215E+00 -0.57556317450E+00 -0.75546027007E-01  0.72540385219E+00  0.51100000000E-03 0.  1.
        -12    1    3    3    0    0 -0.16980962023E+01  0.29124456200E+01  0.45334837296E+01  0.56496322826E+01  0.00000000000E+00 0.  1.
</event>
<event>
 7    1  0.4452647E-009  0.4614232E+02  0.7816164E-02  0.1320468E+00
        -11   -1    0    0    0    0  0.00000000000E+00  0.00000000000E+00  0.45593999997E+02  0.45594000000E+02  0.51100000000E-03 0. -1.
         11   -1    0    0    0    0 -0.00000000000E+00 -0.00000000000E+00 -0.45593999997E+02  0.45594000000E+02  0.51100000000E-03 0.  1.
    9900012    2    1    2    0    0 -0.40670285890E+02 -0.17957335998E+02  0.72508863632E+01  0.46142318480E+02  0.10000006554E+02 0.  0.
        -12    1    1    2    0    0  0.40670285890E+02  0.17957335998E+02 -0.72508863632E+01  0.45045681520E+02  0.00000000000E+00 0.  1.
         11    1    3    3    0    0 -0.36525191422E+02 -0.15434941420E+02  0.36350926004E+01  0.39818851359E+02  0.51100000000E-03 0. -1.
        -11    1    3    3    0    0 -0.84981071275E+00  0.29572003534E-01  0.13057175425E+01  0.15581884715E+01  0.51100000000E-03 0.  1.
         12    1    3    3    0    0 -0.32952837554E+01 -0.25519665816E+01  0.23100762203E+01  0.47652786493E+01  0.00000000000E+00 0. -1.
</event>
<event>
 7    1  0.4452647E-009  0.4614232E+02  0.7816164E-02  0.1320468E+00
        -11   -1    0    0    0    0  0.00000000000E+00  0.00000000000E+00  0.45593999997E+02  0.45594000000E+02  0.51100000000E-03 0. -1.
         11   -1    0    0    0    0 -0.00000000000E+00 -0.00000000000E+00 -0.45593999997E+02  0.45594000000E+02  0.51100000000E-03 0.  1.
    9900012    2    1    2    0    0  0.31709948945E+02 -0.23969717048E+02 -0.21190688378E+02  0.46142317949E+02  0.10000001717E+02 0.  0.
         12    1    1    2    0    0 -0.31709948945E+02  0.23969717048E+02  0.21190688378E+02  0.45045682051E+02  0.00000000000E+00 0. -1.
         11    1    3    3    0    0  0.39351778993E+01 -0.26778542208E+01 -0.59084278164E+01  0.75872292604E+01  0.51100000000E-03 0. -1.
        -11    1    3    3    0    0  0.21347724020E+02 -0.18252998374E+02 -0.10494025625E+02  0.29983692977E+02  0.51100000000E-03 0.  1.
        -12    1    3    3    0    0  0.64270470259E+01 -0.30388644537E+01 -0.47882349370E+01  0.85713957121E+01  0.00000000000E+00 0.  1.
</event>
<event>
 7    1  0.4452647E-009  0.4614232E+02  0.7816164E-02  0.1320468E+00
        -11   -1    0    0    0    0  0.00000000000E+00  0.00000000000E+00  0.45593999997E+02  0.45594000000E+02  0.51100000000E-03 0. -1.
         11   -1    0    0    0    0 -0.00000000000E+00 -0.00000000000E+00 -0.45593999997E+02  0.45594000000E+02  0.51100000000E-03 0.  1.
    9900012    2    1    2    0    0 -0.28649776472E+02  0.33689111488E+02 -0.85643242555E+01  0.46142316803E+02  0.99999912646E+01 0.  0.
         12    1    1    2    0    0  0.28649776472E+02 -0.33689111488E+02  0.85643242555E+01  0.45045683197E+02  0.00000000000E+00 0. -1.
         11    1    3    3    0    0 -0.77159635503E+01  0.12527963057E+02 -0.58676727195E+01  0.15840313610E+02  0.51100000000E-03 0.  1.
        -11    1    3    3    0    0 -0.62475666003E+01  0.45169577200E+01  0.10837197007E+01  0.77852067487E+01  0.51100000000E-03 0. -1.
        -12    1    3    3    0    0 -0.14686246321E+02  0.16644190711E+02 -0.37803712366E+01  0.22516796444E+02  0.00000000000E+00 0.  1.
</event>
<event>
 7    1  0.4452647E-009  0.4614232E+02  0.7816164E-02  0.1320468E+00
        -11   -1    0    0    0    0  0.00000000000E+00  0.00000000000E+00  0.45593999997E+02  0.45594000000E+02  0.51100000000E-03 0. -1.
         11   -1    0    0    0    0 -0.00000000000E+00 -0.00000000000E+00 -0.45593999997E+02  0.45594000000E+02  0.51100000000E-03 0.  1.
    9900012    2    1    2    0    0  0.37787365251E+01 -0.32818774074E+02  0.30622911451E+02  0.46142317774E+02  0.10000000120E+02 0.  0.
        -12    1    1    2    0    0 -0.37787365251E+01  0.32818774074E+02 -0.30622911451E+02  0.45045682226E+02  0.00000000000E+00 0.  1.
         11    1    3    3    0    0 -0.16046623158E+01 -0.12819156370E+02  0.80667828777E+01  0.15230846905E+02  0.51100000000E-03 0. -1.
        -11    1    3    3    0    0  0.26894517094E+01 -0.87763582439E+01  0.13070562184E+02  0.15971762914E+02  0.51100000000E-03 0.  1.
         12    1    3    3    0    0  0.26939471315E+01 -0.11223259460E+02  0.94855663894E+01  0.14939707955E+02  0.00000000000E+00 0. -1.
</event>
<event>
 7    1  0.4621940E-009  0.4614232E+02  0.7816164E-02  0.1320468E+00
        -11   -1    0    0    0    0  0.00000000000E+00  0.00000000000E+00  0.45593999997E+02  0.45594000000E+02  0.51100000000E-03 0. -1.
         11   -1    0    0    0    0 -0.00000000000E+00 -0.00000000000E+00 -0.45593999997E+02  0.45594000000E+02  0.51100000000E-03 0.  1.
    9900012    2    1    2    0    0 -0.34142661288E+02  0.27971418454E+02  0.89995508965E+01  0.46142317782E+02  0.10000000186E+02 0.  0.
        -12    1    1    2    0    0  0.34142661288E+02 -0.27971418454E+02 -0.89995508965E+01  0.45045682218E+02  0.00000000000E+00 0.  1.
         11    1    3    3    0    0 -0.22913076313E+02  0.19478575842E+02  0.29922851672E+01  0.30222140125E+02  0.51100000000E-03 0. -1.
        -11    1    3    3    0    0  0.19848809238E+00  0.10074928018E+01  0.79370753469E+00  0.12978486739E+01  0.51100000000E-03 0.  1.
         12    1    3    3    0    0 -0.11428073068E+02  0.74853498106E+01  0.52135581947E+01  0.14622328983E+02  0.00000000000E+00 0. -1.
</event>
<event>
 7    1  0.4452647E-009  0.4614232E+02  0.7816164E-02  0.1320468E+00
        -11   -1    0    0    0    0  0.00000000000E+00  0.00000000000E+00  0.45593999997E+02  0.45594000000E+02  0.51100000000E-03 0. -1.
         11   -1    0    0    0    0 -0.00000000000E+00 -0.00000000000E+00 -0.45593999997E+02  0.45594000000E+02  0.51100000000E-03 0.  1.
    9900012    2    1    2    0    0 -0.29545652449E+02  0.15015163466E+02 -0.30507586714E+02  0.46142316970E+02  0.99999927842E+01 0.  0.
         12    1    1    2    0    0  0.29545652449E+02 -0.15015163466E+02  0.30507586714E+02  0.45045683030E+02  0.00000000000E+00 0. -1.
         11    1    3    3    0    0 -0.17141527925E+02  0.54745142953E+01 -0.13723472165E+02  0.22630421447E+02  0.51100000000E-03 0. -1.
        -11    1    3    3    0    0 -0.16818169486E+01  0.23068536152E+01 -0.82926479676E+00  0.29728374013E+01  0.51100000000E-03 0.  1.
        -12    1    3    3    0    0 -0.10722307576E+02  0.72337955552E+01 -0.15954849752E+02  0.20539058121E+02  0.00000000000E+00 0.  1.
</event>
<event>
 7    1  0.4452647E-009  0.4614232E+02  0.7816164E-02  0.1320468E+00
        -11   -1    0    0    0    0  0.00000000000E+00  0.00000000000E+00  0.45593999997E+02  0.45594000000E+02  0.51100000000E-03 0. -1.
         11   -1    0    0    0    0 -0.00000000000E+00 -0.00000000000E+00 -0.45593999997E+02  0.45594000000E+02  0.51100000000E-03 0.  1.
    9900012    2    1    2    0    0 -0.65810051074E-01  0.27402521175E+02 -0.35752078433E+02  0.46142316412E+02  0.99999876950E+01 0.  0.
         12    1    1    2    0    0  0.65810051074E-01 -0.27402521175E+02  0.35752078433E+02  0.45045683588E+02  0.00000000000E+00 0. -1.
         11    1    3    3    0    0 -0.14724233829E+01  0.45609443495E+01 -0.32129178969E+01  0.57700160876E+01  0.51100000000E-03 0. -1.
        -11    1    3    3    0    0  0.35725868300E+01  0.13838876489E+02 -0.22992407880E+02  0.27072655937E+02  0.51100000000E-03 0.  1.
        -12    1    3    3    0    0 -0.21659734982E+01  0.90027003365E+01 -0.95467526558E+01  0.13299644387E+02  0.00000000000E+00 0.  1.
</event>
<event>
 7    1  0.4452647E-009  0.4614232E+02  0.7816164E-02  0.1320468E+00
        -11   -1    0    0    0    0  0.00000000000E+00  0.00000000000E+00  0.45593999997E+02  0.45594000000E+02  0.51100000000E-03 0. -1.
         11   -1    0    0    0    0 -0.00000000000E+00 -0.00000000000E+00 -0.45593999997E+02  0.45594000000E+02  0.51100000000E-03 0.  1.
    9900012    2    1    2    0    0 -0.19919997429E+02 -0.21627298615E+02  0.34125755967E+02  0.46142316930E+02  0.99999924176E+01 0.  0.
        -12    1    1    2    0    0  0.19919997429E+02  0.21627298615E+02 -0.34125755967E+02  0.45045683070E+02  0.00000000000E+00 0.  1.
         11    1    3    3    0    0 -0.36060459258E+01 -0.40251899392E+01  0.90218389367E+01  0.10516620147E+02  0.51100000000E-03 0. -1.
        -11    1    3    3    0    0 -0.11641836307E+02 -0.16449154034E+02  0.17850696723E+02  0.26921262875E+02  0.51100000000E-03 0.  1.
        -12    1    3    3    0    0 -0.46721151971E+01 -0.11529546418E+01  0.72532203070E+01  0.87044339070E+01  0.00000000000E+00 0.  1.
</event>
<event>
 7    1  0.4452647E-009  0.4614232E+02  0.7816164E-02  0.1320468E+00
        -11   -1    0    0    0    0  0.00000000000E+00  0.00000000000E+00  0.45593999997E+02  0.45594000000E+02  0.51100000000E-03 0.  1.
         11   -1    0    0    0    0 -0.00000000000E+00 -0.00000000000E+00 -0.45593999997E+02  0.45594000000E+02  0.51100000000E-03 0. -1.
    9900012    2    1    2    0    0 -0.26323884596E+01  0.42586170276E+02 -0.14443071691E+02  0.46142315549E+02  0.99999798321E+01 0.  0.
         12    1    1    2    0    0  0.26323884596E+01 -0.42586170276E+02  0.14443071691E+02  0.45045684451E+02  0.00000000000E+00 0. -1.
         11    1    3    3    0    0 -0.17230913112E+01  0.30410694638E+01  0.28647512913E+00  0.35070237255E+01  0.51100000000E-03 0. -1.
        -11    1    3    3    0    0  0.31187325954E+00  0.37402750853E+02 -0.12904823029E+02  0.39567631897E+02  0.51100000000E-03 0.  1.
        -12    1    3    3    0    0 -0.12211704080E+01  0.21423499590E+01 -0.18247237908E+01  0.30676599265E+01  0.00000000000E+00 0.  1.
</event>
<event>
 7    1  0.4452647E-009  0.4614232E+02  0.7816164E-02  0.1320468E+00
        -11   -1    0    0    0    0  0.00000000000E+00  0.00000000000E+00  0.45593999997E+02  0.45594000000E+02  0.51100000000E-03 0. -1.
         11   -1    0    0    0    0 -0.00000000000E+00 -0.00000000000E+00 -0.45593999997E+02  0.45594000000E+02  0.51100000000E-03 0.  1.
    9900012    2    1    2    0    0  0.15424827564E+02 -0.12740749152E+01  0.42303250097E+02  0.46142317177E+02  0.99999946707E+01 0.  0.
        -12    1    1    2    0    0 -0.15424827564E+02  0.12740749152E+01 -0.42303250097E+02  0.45045682823E+02  0.00000000000E+00 0.  1.
         11    1    3    3    0    0  0.46267862341E+01 -0.46422932382E+01  0.20282341058E+02  0.21315050937E+02  0.51100000000E-03 0. -1.
        -11    1    3    3    0    0  0.10255230246E+02  0.35872016914E+01  0.20573740994E+02  0.23266211168E+02  0.51100000000E-03 0.  1.
         12    1    3    3    0    0  0.54281108386E+00 -0.21898336838E+00  0.14471680449E+01  0.15610550723E+01  0.00000000000E+00 0. -1.
</event>
<event>
 7    1  0.4452647E-009  0.4614233E+02  0.7816164E-02  0.1320468E+00
        -11   -1    0    0    0    0  0.00000000000E+00  0.00000000000E+00  0.45593999997E+02  0.45594000000E+02  0.51100000000E-03 0. -1.
         11   -1    0    0    0    0 -0.00000000000E+00 -0.00000000000E+00 -0.45593999997E+02  0.45594000000E+02  0.51100000000E-03 0.  1.
    9900012    2    1    2    0    0  0.24476322678E+01  0.56382208899E+01 -0.44624347396E+02  0.46142325190E+02  0.10000067745E+02 0.  0.
         12    1    1    2    0    0 -0.24476322678E+01 -0.56382208899E+01  0.44624347396E+02  0.45045674810E+02  0.00000000000E+00 0. -1.
         11    1    3    3    0    0  0.18262651480E+01  0.39962271851E+01 -0.79472920959E+01  0.90809981844E+01  0.51100000000E-03 0. -1.
        -11    1    3    3    0    0 -0.84738887789E+00 -0.15557512019E+01 -0.10420443322E+02  0.10569960691E+02  0.51100000000E-03 0.  1.
        -12    1    3    3    0    0  0.14687559976E+01  0.31977449067E+01 -0.26256611978E+02  0.26491366315E+02  0.00000000000E+00 0.  1.
</event>
<event>
 7    1  0.4452647E-009  0.4614232E+02  0.7816164E-02  0.1320468E+00
        -11   -1    0    0    0    0  0.00000000000E+00  0.00000000000E+00  0.45593999997E+02  0.45594000000E+02  0.51100000000E-03 0. -1.
         11   -1    0    0    0    0 -0.00000000000E+00 -0.00000000000E+00 -0.45593999997E+02  0.45594000000E+02  0.51100000000E-03 0.  1.
    9900012    2    1    2    0    0 -0.71461210801E+00 -0.14087758503E+02 -0.42780111117E+02  0.46142317440E+02  0.99999970716E+01 0.  0.
         12    1    1    2    0    0  0.71461210801E+00  0.14087758503E+02  0.42780111117E+02  0.45045682560E+02  0.00000000000E+00 0. -1.
         11    1    3    3    0    0 -0.31013565573E+01 -0.23857522899E+01 -0.12694828629E+02  0.13284159765E+02  0.51100000000E-03 0. -1.
        -11    1    3    3    0    0  0.14521771595E+00 -0.72321949261E+01 -0.11285859437E+02  0.13405086913E+02  0.51100000000E-03 0.  1.
        -12    1    3    3    0    0  0.22415267333E+01 -0.44698112866E+01 -0.18799423051E+02  0.19453070763E+02  0.00000000000E+00 0.  1.
</event>
<event>
 7    1  0.4452647E-009  0.4614232E+02  0.7816164E-02  0.1320468E+00
        -11   -1    0    0    0    0  0.00000000000E+00  0.00000000000E+00  0.45593999997E+02  0.45594000000E+02  0.51100000000E-03 0. -1.
         11   -1    0    0    0    0 -0.00000000000E+00 -0.00000000000E+00 -0.45593999997E+02  0.45594000000E+02  0.51100000000E-03 0.  1.
    9900012    2    1    2    0    0 -0.39012214637E+00 -0.36861030108E+02 -0.25888716768E+02  0.46142318833E+02  0.10000009775E+02 0.  0.
         12    1    1    2    0    0  0.39012214637E+00  0.36861030108E+02  0.25888716768E+02  0.45045681167E+02  0.00000000000E+00 0. -1.
         11    1    3    3    0    0  0.26486121907E+00 -0.99659393061E+01 -0.23808532520E+01  0.10249807812E+02  0.51100000000E-03 0. -1.
        -11    1    3    3    0    0  0.18680058817E+00 -0.19584686000E+02 -0.18853140169E+02  0.27185211323E+02  0.51100000000E-03 0.  1.
        -12    1    3    3    0    0 -0.84178395361E+00 -0.73104048023E+01 -0.46547233465E+01  0.87072996980E+01  0.00000000000E+00 0.  1.
</event>
<event>
 7    1  0.4452647E-009  0.4614232E+02  0.7816164E-02  0.1320468E+00
        -11   -1    0    0    0    0  0.00000000000E+00  0.00000000000E+00  0.45593999997E+02  0.45594000000E+02  0.51100000000E-03 0. -1.
         11   -1    0    0    0    0 -0.00000000000E+00 -0.00000000000E+00 -0.45593999997E+02  0.45594000000E+02  0.51100000000E-03 0.  1.
    9900012    2    1    2    0    0  0.67367656194E+01  0.18082951179E+02  0.40703026676E+02  0.46142317466E+02  0.99999973103E+01 0.  0.
        -12    1    1    2    0    0 -0.67367656194E+01 -0.18082951179E+02 -0.40703026676E+02  0.45045682534E+02  0.00000000000E+00 0.  1.
         11    1    3    3    0    0  0.30171188013E+01  0.43748496461E+01  0.21443008373E+02  0.22091738809E+02  0.51100000000E-03 0. -1.
        -11    1    3    3    0    0  0.38565928719E+01  0.12271835331E+02  0.16360638097E+02  0.20812057326E+02  0.51100000000E-03 0.  1.
        -12    1    3    3    0    0 -0.13694605381E+00  0.14362662025E+01  0.28993802064E+01  0.32385213304E+01  0.00000000000E+00 0.  1.
</event>
<event>
 7    1  0.4452647E-009  0.4614233E+02  0.7816164E-02  0.1320468E+00
        -11   -1    0    0    0    0  0.00000000000E+00  0.00000000000E+00  0.45593999997E+02  0.45594000000E+02  0.51100000000E-03 0.  1.
         11   -1    0    0    0    0 -0.00000000000E+00 -0.00000000000E+00 -0.45593999997E+02  0.45594000000E+02  0.51100000000E-03 0. -1.
    9900012    2    1    2    0    0  0.77477641229E+01 -0.43029730281E+02  0.10840988370E+02  0.46142328002E+02  0.10000093381E+02 0.  0.
        -12    1    1    2    0    0 -0.77477641229E+01  0.43029730281E+02 -0.10840988370E+02  0.45045671998E+02  0.00000000000E+00 0.  1.
         11    1    3    3    0    0  0.10833735815E+01 -0.11885915334E+02  0.14875987962E+01  0.12027536409E+02  0.51100000000E-03 0. -1.
        -11    1    3    3    0    0  0.33001027201E+01 -0.41930648309E+01  0.33465050293E+01  0.62985368786E+01  0.51100000000E-03 0.  1.
        -12    1    3    3    0    0  0.33642878212E+01 -0.26950750116E+02  0.60068845445E+01  0.27816254714E+02  0.00000000000E+00 0.  1.
</event>
<event>
 7    1  0.4452647E-009  0.4614232E+02  0.7816164E-02  0.1320468E+00
        -11   -1    0    0    0    0  0.00000000000E+00  0.00000000000E+00  0.45593999997E+02  0.45594000000E+02  0.51100000000E-03 0. -1.
         11   -1    0    0    0    0 -0.00000000000E+00 -0.00000000000E+00 -0.45593999997E+02  0.45594000000E+02  0.51100000000E-03 0.  1.
    9900012    2    1    2    0    0 -0.15843995229E+02 -0.31481224611E+02 -0.28053764473E+02  0.46142318864E+02  0.10000010061E+02 0.  0.
         12    1    1    2    0    0  0.15843995229E+02  0.31481224611E+02  0.28053764473E+02  0.45045681136E+02  0.00000000000E+00 0. -1.
         11    1    3    3    0    0 -0.35846791268E+01 -0.41005625329E+01 -0.14959631182E+01  0.56482248043E+01  0.51100000000E-03 0. -1.
        -11    1    3    3    0    0 -0.54018012581E+01 -0.18925019873E+02 -0.17267712740E+02  0.26182240881E+02  0.51100000000E-03 0.  1.
        -12    1    3    3    0    0 -0.68575148438E+01 -0.84556422057E+01 -0.92900886147E+01  0.14311853179E+02  0.00000000000E+00 0.  1.
</event>
<event>
 7    1  0.4452647E-009  0.4614231E+02  0.7816164E-02  0.1320468E+00
        -11   -1    0    0    0    0  0.00000000000E+00  0.00000000000E+00  0.45593999997E+02  0.45594000000E+02  0.51100000000E-03 0. -1.
         11   -1    0    0    0    0 -0.00000000000E+00 -0.00000000000E+00 -0.45593999997E+02  0.45594000000E+02  0.51100000000E-03 0.  1.
    9900012    2    1    2    0    0  0.10723547754E+02  0.50832203805E+01  0.43454351643E+02  0.46142308946E+02  0.99999196125E+01 0.  0.
        -12    1    1    2    0    0 -0.10723547754E+02 -0.50832203805E+01 -0.43454351643E+02  0.45045691054E+02  0.00000000000E+00 0.  1.
         11    1    3    3    0    0  0.24705515952E+01 -0.52380547502E+00  0.45798549555E+01  0.52300161600E+01  0.51100000000E-03 0.  1.
        -11    1    3    3    0    0  0.76542654026E+01  0.73984337147E+01  0.29827944254E+02  0.31670662433E+02  0.51100000000E-03 0. -1.
         12    1    3    3    0    0  0.59873075638E+00 -0.17914078592E+01  0.90465524337E+01  0.92416303525E+01  0.00000000000E+00 0. -1.
</event>
<event>
 7    1  0.4452647E-009  0.4614232E+02  0.7816164E-02  0.1320468E+00
        -11   -1    0    0    0    0  0.00000000000E+00  0.00000000000E+00  0.45593999997E+02  0.45594000000E+02  0.51100000000E-03 0. -1.
         11   -1    0    0    0    0 -0.00000000000E+00 -0.00000000000E+00 -0.45593999997E+02  0.45594000000E+02  0.51100000000E-03 0.  1.
    9900012    2    1    2    0    0  0.32856154541E+02  0.13659538937E+01  0.30785077110E+02  0.46142315479E+02  0.99999791933E+01 0.  0.
        -12    1    1    2    0    0 -0.32856154541E+02 -0.13659538937E+01 -0.30785077110E+02  0.45045684521E+02  0.00000000000E+00 0.  1.
         11    1    3    3    0    0  0.20655818549E+02  0.18593544669E+01  0.21204669059E+02  0.29660715249E+02  0.51100000000E-03 0. -1.
        -11    1    3    3    0    0  0.12270417553E+02 -0.90070643405E+00  0.76065179755E+01  0.14464907016E+02  0.51100000000E-03 0.  1.
        -12    1    3    3    0    0 -0.70081560505E-01  0.40730586090E+00  0.19738900757E+01  0.20166932143E+01  0.00000000000E+00 0.  1.
</event>
<event>
 7    1  0.4452647E-009  0.4614232E+02  0.7816164E-02  0.1320468E+00
        -11   -1    0    0    0    0  0.00000000000E+00  0.00000000000E+00  0.45593999997E+02  0.45594000000E+02  0.51100000000E-03 0. -1.
         11   -1    0    0    0    0 -0.00000000000E+00 -0.00000000000E+00 -0.45593999997E+02  0.45594000000E+02  0.51100000000E-03 0.  1.
    9900012    2    1    2    0    0  0.18679540143E+02 -0.72009632657E+01 -0.40352625190E+02  0.46142318169E+02  0.10000003723E+02 0.  0.
         12    1    1    2    0    0 -0.18679540143E+02  0.72009632657E+01  0.40352625190E+02  0.45045681831E+02  0.00000000000E+00 0. -1.
         11    1    3    3    0    0  0.29868679332E+01 -0.31738824185E+01 -0.52232096530E+01  0.68027074755E+01  0.51100000000E-03 0. -1.
        -11    1    3    3    0    0  0.42841994935E+00 -0.59100842907E+00 -0.79110270460E+01  0.79446323893E+01  0.51100000000E-03 0.  1.
        -12    1    3    3    0    0  0.15264252260E+02 -0.34360724182E+01 -0.27218388491E+02  0.31394978305E+02  0.00000000000E+00 0.  1.
</event>
<event>
 7    1  0.4452647E-009  0.4614232E+02  0.7816164E-02  0.1320468E+00
        -11   -1    0    0    0    0  0.00000000000E+00  0.00000000000E+00  0.45593999997E+02  0.45594000000E+02  0.51100000000E-03 0. -1.
         11   -1    0    0    0    0 -0.00000000000E+00 -0.00000000000E+00 -0.45593999997E+02  0.45594000000E+02  0.51100000000E-03 0.  1.
    9900012    2    1    2    0    0 -0.62518522716E+01 -0.21169824221E+02 -0.39266606101E+02  0.46142317976E+02  0.10000001956E+02 0.  0.
         12    1    1    2    0    0  0.62518522716E+01  0.21169824221E+02  0.39266606101E+02  0.45045682024E+02  0.00000000000E+00 0. -1.
         11    1    3    3    0    0  0.46307104129E+00 -0.11861514581E+02 -0.21400056443E+02  0.24471869135E+02  0.51100000000E-03 0. -1.
        -11    1    3    3    0    0 -0.52138263353E+01 -0.92613328284E+01 -0.16574339816E+02  0.19689210533E+02  0.51100000000E-03 0.  1.
         12    1    3    3    0    0 -0.15010969776E+01 -0.46976812580E-01 -0.12922098411E+01  0.19812383073E+01  0.00000000000E+00 0. -1.
</event>
<event>
 7    1  0.4452647E-009  0.4614232E+02  0.7816164E-02  0.1320468E+00
        -11   -1    0    0    0    0  0.00000000000E+00  0.00000000000E+00  0.45593999997E+02  0.45594000000E+02  0.51100000000E-03 0. -1.
         11   -1    0    0    0    0 -0.00000000000E+00 -0.00000000000E+00 -0.45593999997E+02  0.45594000000E+02  0.51100000000E-03 0.  1.
    9900012    2    1    2    0    0 -0.16860733313E+02 -0.21186826971E+02  0.35999271121E+02  0.46142317786E+02  0.10000000223E+02 0.  0.
        -12    1    1    2    0    0  0.16860733313E+02  0.21186826971E+02 -0.35999271121E+02  0.45045682214E+02  0.00000000000E+00 0.  1.
         11    1    3    3    0    0 -0.77102328044E+01 -0.15246697118E+02  0.17615063059E+02  0.24539761811E+02  0.51100000000E-03 0. -1.
        -11    1    3    3    0    0  0.27710356135E-01 -0.83817859980E-01 -0.11035180481E+00  0.14131906961E+00  0.51100000000E-03 0.  1.
         12    1    3    3    0    0 -0.91782108652E+01 -0.58563119927E+01  0.18494559867E+02  0.21461236905E+02  0.00000000000E+00 0. -1.
</event>
<event>
 7    1  0.4452647E-009  0.4614232E+02  0.7816164E-02  0.1320468E+00
        -11   -1    0    0    0    0  0.00000000000E+00  0.00000000000E+00  0.45593999997E+02  0.45594000000E+02  0.51100000000E-03 0. -1.
         11   -1    0    0    0    0 -0.00000000000E+00 -0.00000000000E+00 -0.45593999997E+02  0.45594000000E+02  0.51100000000E-03 0.  1.
    9900012    2    1    2    0    0 -0.20009906369E+02  0.53817078039E+01 -0.39996929446E+02  0.46142317666E+02  0.99999991361E+01 0.  0.
         12    1    1    2    0    0  0.20009906369E+02 -0.53817078039E+01  0.39996929446E+02  0.45045682334E+02  0.00000000000E+00 0. -1.
         11    1    3    3    0    0 -0.15135699720E+02  0.50410525396E+01 -0.33768964127E+02  0.37347617798E+02  0.51100000000E-03 0. -1.
        -11    1    3    3    0    0 -0.66320848777E+00  0.27605653765E+00 -0.39338540617E+01  0.39989074446E+01  0.51100000000E-03 0.  1.
         12    1    3    3    0    0 -0.42109981615E+01  0.64598726646E-01 -0.22941112576E+01  0.47957924239E+01  0.00000000000E+00 0. -1.
</event>
<event>
 7    1  0.4452647E-009  0.4614232E+02  0.7816164E-02  0.1320468E+00
        -11   -1    0    0    0    0  0.00000000000E+00  0.00000000000E+00  0.45593999997E+02  0.45594000000E+02  0.51100000000E-03 0. -1.
         11   -1    0    0    0    0 -0.00000000000E+00 -0.00000000000E+00 -0.45593999997E+02  0.45594000000E+02  0.51100000000E-03 0.  1.
    9900012    2    1    2    0    0 -0.30433260160E+02 -0.17622700937E+01 -0.33163604506E+02  0.46142316704E+02  0.99999903565E+01 0.  0.
         12    1    1    2    0    0  0.30433260160E+02  0.17622700937E+01  0.33163604506E+02  0.45045683296E+02  0.00000000000E+00 0. -1.
         11    1    3    3    0    0 -0.11689153849E+01 -0.91652621213E+00 -0.14952528095E+01  0.21076443486E+01  0.51100000000E-03 0. -1.
        -11    1    3    3    0    0 -0.22462217621E+02 -0.86929159272E+00 -0.29083148128E+02  0.36757807247E+02  0.51100000000E-03 0.  1.
        -12    1    3    3    0    0 -0.68021271536E+01  0.23547711174E-01 -0.25852035686E+01  0.72768651080E+01  0.00000000000E+00 0.  1.
</event>
<event>
 7    1  0.4452647E-009  0.4614232E+02  0.7816164E-02  0.1320468E+00
        -11   -1    0    0    0    0  0.00000000000E+00  0.00000000000E+00  0.45593999997E+02  0.45594000000E+02  0.51100000000E-03 0. -1.
         11   -1    0    0    0    0 -0.00000000000E+00 -0.00000000000E+00 -0.45593999997E+02  0.45594000000E+02  0.51100000000E-03 0.  1.
    9900012    2    1    2    0    0 -0.34240907267E+02  0.29707272205E+01  0.29117838032E+02  0.46142318272E+02  0.10000004661E+02 0.  0.
        -12    1    1    2    0    0  0.34240907267E+02 -0.29707272205E+01 -0.29117838032E+02  0.45045681728E+02  0.00000000000E+00 0.  1.
         11    1    3    3    0    0 -0.12178559902E+02 -0.17700069224E+01  0.10754847509E+02  0.16343714112E+02  0.51100000000E-03 0. -1.
        -11    1    3    3    0    0 -0.10149544807E+02  0.45474828575E+01  0.11721479483E+02  0.16158154031E+02  0.51100000000E-03 0.  1.
        -12    1    3    3    0    0 -0.11912802558E+02  0.19325128547E+00  0.66415110394E+01  0.13640450129E+02  0.00000000000E+00 0.  1.
</event>
<event>
 7    1  0.4452647E-009  0.4614232E+02  0.7816164E-02  0.1320468E+00
        -11   -1    0    0    0    0  0.00000000000E+00  0.00000000000E+00  0.45593999997E+02  0.45594000000E+02  0.51100000000E-03 0. -1.
         11   -1    0    0    0    0 -0.00000000000E+00 -0.00000000000E+00 -0.45593999997E+02  0.45594000000E+02  0.51100000000E-03 0.  1.
    9900012    2    1    2    0    0 -0.13398721877E+02  0.33284158392E+02 -0.27235130681E+02  0.46142319952E+02  0.10000019974E+02 0.  0.
         12    1    1    2    0    0  0.13398721877E+02 -0.33284158392E+02  0.27235130681E+02  0.45045680048E+02  0.00000000000E+00 0. -1.
         11    1    3    3    0    0 -0.36813548188E+01  0.38061269827E+01 -0.68305879991E+01  0.86426794795E+01  0.51100000000E-03 0. -1.
        -11    1    3    3    0    0 -0.15489034952E+01  0.10653296678E+02 -0.51715338890E+01  0.11943056358E+02  0.51100000000E-03 0.  1.
        -12    1    3    3    0    0 -0.81684635633E+01  0.18824734732E+02 -0.15233008793E+02  0.25556584114E+02  0.00000000000E+00 0.  1.
</event>
<event>
 7    1  0.4452647E-009  0.4614232E+02  0.7816164E-02  0.1320468E+00
        -11   -1    0    0    0    0  0.00000000000E+00  0.00000000000E+00  0.45593999997E+02  0.45594000000E+02  0.51100000000E-03 0. -1.
         11   -1    0    0    0    0 -0.00000000000E+00 -0.00000000000E+00 -0.45593999997E+02  0.45594000000E+02  0.51100000000E-03 0.  1.
    9900012    2    1    2    0    0 -0.20437093145E+02 -0.14346184341E+02  0.37491675447E+02  0.46142317530E+02  0.99999978923E+01 0.  0.
        -12    1    1    2    0    0  0.20437093145E+02  0.14346184341E+02 -0.37491675447E+02  0.45045682470E+02  0.00000000000E+00 0.  1.
         11    1    3    3    0    0  0.69825407029E+00 -0.11563868967E+01  0.25491519029E+01  0.28849549540E+01  0.51100000000E-03 0. -1.
        -11    1    3    3    0    0 -0.97538124586E+01 -0.75962193734E+01  0.13190208676E+02  0.18078191597E+02  0.51100000000E-03 0.  1.
         12    1    3    3    0    0 -0.11381534757E+02 -0.55935780709E+01  0.21752314868E+02  0.25179170979E+02  0.00000000000E+00 0. -1.
</event>
<event>
 7    1  0.4452647E-009  0.4614232E+02  0.7816164E-02  0.1320468E+00
        -11   -1    0    0    0    0  0.00000000000E+00  0.00000000000E+00  0.45593999997E+02  0.45594000000E+02  0.51100000000E-03 0. -1.
         11   -1    0    0    0    0 -0.00000000000E+00 -0.00000000000E+00 -0.45593999997E+02  0.45594000000E+02  0.51100000000E-03 0.  1.
    9900012    2    1    2    0    0  0.39997722426E+02 -0.14995174997E+02 -0.14298265171E+02  0.46142318083E+02  0.10000002936E+02 0.  0.
         12    1    1    2    0    0 -0.39997722426E+02  0.14995174997E+02  0.14298265171E+02  0.45045681917E+02  0.00000000000E+00 0. -1.
         11    1    3    3    0    0  0.15292020942E+00 -0.10975402595E+00 -0.71750701399E+00  0.74178643349E+00  0.51100000000E-03 0. -1.
        -11    1    3    3    0    0  0.14763583642E+01  0.87603411518E+00 -0.12608347356E+01  0.21299704886E+01  0.51100000000E-03 0.  1.
        -12    1    3    3    0    0  0.38368443852E+02 -0.15761455087E+02 -0.12319923421E+02  0.43270561161E+02  0.00000000000E+00 0.  1.
</event>
<event>
 7    1  0.4452647E-009  0.4614232E+02  0.7816164E-02  0.1320468E+00
        -11   -1    0    0    0    0  0.00000000000E+00  0.00000000000E+00  0.45593999997E+02  0.45594000000E+02  0.51100000000E-03 0. -1.
         11   -1    0    0    0    0 -0.00000000000E+00 -0.00000000000E+00 -0.45593999997E+02  0.45594000000E+02  0.51100000000E-03 0.  1.
    9900012    2    1    2    0    0  0.15272162733E+01  0.34473538392E+02  0.28954380664E+02  0.46142318759E+02  0.10000009102E+02 0.  0.
        -12    1    1    2    0    0 -0.15272162733E+01 -0.34473538392E+02 -0.28954380664E+02  0.45045681241E+02  0.00000000000E+00 0.  1.
         11    1    3    3    0    0 -0.38887996781E+00  0.10068442916E+01  0.34952705790E+01  0.36581251672E+01  0.51100000000E-03 0. -1.
        -11    1    3    3    0    0 -0.14831367378E+01  0.33022515826E+01  0.21337929928E+01  0.42020986298E+01  0.51100000000E-03 0.  1.
         12    1    3    3    0    0  0.33992329789E+01  0.30164442518E+02  0.23325317092E+02  0.38282094962E+02  0.00000000000E+00 0. -1.
</event>
<event>
 7    1  0.4452647E-009  0.4614232E+02  0.7816164E-02  0.1320468E+00
        -11   -1    0    0    0    0  0.00000000000E+00  0.00000000000E+00  0.45593999997E+02  0.45594000000E+02  0.51100000000E-03 0. -1.
         11   -1    0    0    0    0 -0.00000000000E+00 -0.00000000000E+00 -0.45593999997E+02  0.45594000000E+02  0.51100000000E-03 0.  1.
    9900012    2    1    2    0    0 -0.30961443317E+02  0.15908600970E+01  0.32679835899E+02  0.46142317826E+02  0.10000000591E+02 0.  0.
        -12    1    1    2    0    0  0.30961443317E+02 -0.15908600970E+01 -0.32679835899E+02  0.45045682174E+02  0.00000000000E+00 0.  1.
         11    1    3    3    0    0 -0.35870235578E+01  0.13801772131E+01  0.46515611142E+01  0.60339579219E+01  0.51100000000E-03 0. -1.
        -11    1    3    3    0    0 -0.27465189875E+02 -0.58419120120E+00  0.25595472748E+02  0.37547385524E+02  0.51100000000E-03 0.  1.
        -12    1    3    3    0    0  0.90770115453E-01  0.79487408505E+00  0.24328020370E+01  0.25609743802E+01  0.00000000000E+00 0.  1.
</event>
<event>
 7    1  0.4452647E-009  0.4614232E+02  0.7816164E-02  0.1320468E+00
        -11   -1    0    0    0    0  0.00000000000E+00  0.00000000000E+00  0.45593999997E+02  0.45594000000E+02  0.51100000000E-03 0. -1.
         11   -1    0    0    0    0 -0.00000000000E+00 -0.00000000000E+00 -0.45593999997E+02  0.45594000000E+02  0.51100000000E-03 0.  1.
    9900012    2    1    2    0    0 -0.12327428545E+01 -0.31914630298E+02  0.31765550187E+02  0.46142318068E+02  0.10000002797E+02 0.  0.
        -12    1    1    2    0    0  0.12327428545E+01  0.31914630298E+02 -0.31765550187E+02  0.45045681932E+02  0.00000000000E+00 0.  1.
         11    1    3    3    0    0  0.36411187157E+00 -0.43467328620E+01  0.71767533181E+00  0.44206020146E+01  0.51100000000E-03 0. -1.
        -11    1    3    3    0    0  0.10137551702E+01 -0.13465402296E+02  0.15927647899E+02  0.20881444548E+02  0.51100000000E-03 0.  1.
         12    1    3    3    0    0 -0.26106098962E+01 -0.14102495140E+02  0.15120226957E+02  0.20840271506E+02  0.00000000000E+00 0. -1.
</event>
<event>
 7    1  0.4452647E-009  0.4614232E+02  0.7816164E-02  0.1320468E+00
        -11   -1    0    0    0    0  0.00000000000E+00  0.00000000000E+00  0.45593999997E+02  0.45594000000E+02  0.51100000000E-03 0. -1.
         11   -1    0    0    0    0 -0.00000000000E+00 -0.00000000000E+00 -0.45593999997E+02  0.45594000000E+02  0.51100000000E-03 0.  1.
    9900012    2    1    2    0    0  0.70923432600E+00 -0.59011145275E+01 -0.44651846011E+02  0.46142317430E+02  0.99999969797E+01 0.  0.
         12    1    1    2    0    0 -0.70923432600E+00  0.59011145275E+01  0.44651846011E+02  0.45045682570E+02  0.00000000000E+00 0. -1.
         11    1    3    3    0    0 -0.12078076133E+01 -0.40809304393E-01 -0.50197724570E+01  0.51631947873E+01  0.51100000000E-03 0. -1.
        -11    1    3    3    0    0  0.33680767638E+01  0.46787127961E+00 -0.80862497483E+01  0.87721308628E+01  0.51100000000E-03 0.  1.
        -12    1    3    3    0    0 -0.14510348245E+01 -0.63281765028E+01 -0.31545823806E+02  0.32206991780E+02  0.00000000000E+00 0.  1.
</event>
<event>
 7    1  0.4452647E-009  0.4614232E+02  0.7816164E-02  0.1320468E+00
        -11   -1    0    0    0    0  0.00000000000E+00  0.00000000000E+00  0.45593999997E+02  0.45594000000E+02  0.51100000000E-03 0. -1.
         11   -1    0    0    0    0 -0.00000000000E+00 -0.00000000000E+00 -0.45593999997E+02  0.45594000000E+02  0.51100000000E-03 0.  1.
    9900012    2    1    2    0    0 -0.21871548197E+02 -0.27191667705E+02 -0.28484419030E+02  0.46142317182E+02  0.99999947159E+01 0.  0.
         12    1    1    2    0    0  0.21871548197E+02  0.27191667705E+02  0.28484419030E+02  0.45045682818E+02  0.00000000000E+00 0. -1.
         11    1    3    3    0    0 -0.57430682563E+01 -0.19087445107E+01 -0.46769358103E+01  0.76485206046E+01  0.51100000000E-03 0. -1.
        -11    1    3    3    0    0 -0.50686008351E+01 -0.48543582567E+01 -0.55494394807E+01  0.89471664409E+01  0.51100000000E-03 0.  1.
         12    1    3    3    0    0 -0.11059879105E+02 -0.20428564937E+02 -0.18258043739E+02  0.29546630136E+02  0.00000000000E+00 0. -1.
</event>
<event>
 7    1  0.4452647E-009  0.4614232E+02  0.7816164E-02  0.1320468E+00
        -11   -1    0    0    0    0  0.00000000000E+00  0.00000000000E+00  0.45593999997E+02  0.45594000000E+02  0.51100000000E-03 0. -1.
         11   -1    0    0    0    0 -0.00000000000E+00 -0.00000000000E+00 -0.45593999997E+02  0.45594000000E+02  0.51100000000E-03 0.  1.
    9900012    2    1    2    0    0  0.37523512414E+01 -0.31688354084E+02  0.31794365702E+02  0.46142316358E+02  0.99999872055E+01 0.  0.
        -12    1    1    2    0    0 -0.37523512414E+01  0.31688354084E+02 -0.31794365702E+02  0.45045683642E+02  0.00000000000E+00 0.  1.
         11    1    3    3    0    0 -0.66396412433E-01 -0.70796093601E+01  0.30014271315E+01  0.76898532016E+01  0.51100000000E-03 0. -1.
        -11    1    3    3    0    0 -0.70529913792E+00 -0.33877705828E+01  0.63756846791E+01  0.72542257881E+01  0.51100000000E-03 0.  1.
        -12    1    3    3    0    0  0.45240467917E+01 -0.21220974141E+02  0.22417253891E+02  0.31198237368E+02  0.00000000000E+00 0.  1.
</event>
<event>
 7    1  0.4452647E-009  0.4614232E+02  0.7816164E-02  0.1320468E+00
        -11   -1    0    0    0    0  0.00000000000E+00  0.00000000000E+00  0.45593999997E+02  0.45594000000E+02  0.51100000000E-03 0. -1.
         11   -1    0    0    0    0 -0.00000000000E+00 -0.00000000000E+00 -0.45593999997E+02  0.45594000000E+02  0.51100000000E-03 0.  1.
    9900012    2    1    2    0    0  0.49775972915E+01 -0.17865872019E+02  0.41050548173E+02  0.46142319151E+02  0.10000012677E+02 0.  0.
        -12    1    1    2    0    0 -0.49775972915E+01  0.17865872019E+02 -0.41050548173E+02  0.45045680849E+02  0.00000000000E+00 0.  1.
         11    1    3    3    0    0  0.24474396878E+01 -0.51918519840E+01  0.58452137264E+01  0.81921799185E+01  0.51100000000E-03 0.  1.
        -11    1    3    3    0    0  0.16955606464E+01 -0.37734583905E+01  0.52195938911E+01  0.66601857917E+01  0.51100000000E-03 0. -1.
         12    1    3    3    0    0  0.83459695724E+00 -0.89005616442E+01  0.29985740556E+02  0.31289953441E+02  0.00000000000E+00 0. -1.
</event>
<event>
 7    1  0.4452647E-009  0.4614232E+02  0.7816164E-02  0.1320468E+00
        -11   -1    0    0    0    0  0.00000000000E+00  0.00000000000E+00  0.45593999997E+02  0.45594000000E+02  0.51100000000E-03 0. -1.
         11   -1    0    0    0    0 -0.00000000000E+00 -0.00000000000E+00 -0.45593999997E+02  0.45594000000E+02  0.51100000000E-03 0.  1.
    9900012    2    1    2    0    0 -0.16816190911E+02 -0.31981983670E+02  0.26897617281E+02  0.46142319057E+02  0.10000011813E+02 0.  0.
        -12    1    1    2    0    0  0.16816190911E+02  0.31981983670E+02 -0.26897617281E+02  0.45045680943E+02  0.00000000000E+00 0.  1.
         11    1    3    3    0    0 -0.90362024033E+01 -0.20293193396E+02  0.14476245552E+02  0.26514681549E+02  0.51100000000E-03 0. -1.
        -11    1    3    3    0    0 -0.34368260209E+01 -0.39032602994E+01  0.83263546773E+01  0.98170971542E+01  0.51100000000E-03 0.  1.
        -12    1    3    3    0    0 -0.43431624869E+01 -0.77855299747E+01  0.40950170521E+01  0.98105403537E+01  0.00000000000E+00 0.  1.
</event>
<event>
 7    1  0.4452647E-009  0.4614232E+02  0.7816164E-02  0.1320468E+00
        -11   -1    0    0    0    0  0.00000000000E+00  0.00000000000E+00  0.45593999997E+02  0.45594000000E+02  0.51100000000E-03 0. -1.
         11   -1    0    0    0    0 -0.00000000000E+00 -0.00000000000E+00 -0.45593999997E+02  0.45594000000E+02  0.51100000000E-03 0.  1.
    9900012    2    1    2    0    0  0.21734172717E+02  0.37229108660E+02  0.13066469238E+02  0.46142318590E+02  0.10000007562E+02 0.  0.
        -12    1    1    2    0    0 -0.21734172717E+02 -0.37229108660E+02 -0.13066469238E+02  0.45045681410E+02  0.00000000000E+00 0.  1.
         11    1    3    3    0    0  0.52982969053E+01  0.82153642758E+01  0.59032359274E+01  0.11419822895E+02  0.51100000000E-03 0. -1.
        -11    1    3    3    0    0  0.13538135257E+01  0.58318079331E+01 -0.54623957713E+00  0.60117528864E+01  0.51100000000E-03 0.  1.
        -12    1    3    3    0    0  0.15082062286E+02  0.23181936451E+02  0.77094728876E+01  0.28710742809E+02  0.00000000000E+00 0.  1.
</event>
<event>
 7    1  0.4452647E-009  0.4614232E+02  0.7816164E-02  0.1320468E+00
        -11   -1    0    0    0    0  0.00000000000E+00  0.00000000000E+00  0.45593999997E+02  0.45594000000E+02  0.51100000000E-03 0. -1.
         11   -1    0    0    0    0 -0.00000000000E+00 -0.00000000000E+00 -0.45593999997E+02  0.45594000000E+02  0.51100000000E-03 0.  1.
    9900012    2    1    2    0    0 -0.15631981678E+02  0.27006114262E+02  0.32487295536E+02  0.46142318410E+02  0.10000005916E+02 0.  0.
        -12    1    1    2    0    0  0.15631981678E+02 -0.27006114262E+02 -0.32487295536E+02  0.45045681590E+02  0.00000000000E+00 0.  1.
         11    1    3    3    0    0 -0.70306630421E+01  0.14481997847E+02  0.17317166520E+02  0.23644084693E+02  0.51100000000E-03 0. -1.
        -11    1    3    3    0    0 -0.57638467987E+01  0.27619878302E+01  0.49625726893E+01  0.80918251742E+01  0.51100000000E-03 0.  1.
        -12    1    3    3    0    0 -0.28374718369E+01  0.97621285847E+01  0.10207556327E+02  0.14406408543E+02  0.00000000000E+00 0.  1.
</event>
<event>
 7    1  0.4452647E-009  0.4614232E+02  0.7816164E-02  0.1320468E+00
        -11   -1    0    0    0    0  0.00000000000E+00  0.00000000000E+00  0.45593999997E+02  0.45594000000E+02  0.51100000000E-03 0. -1.
         11   -1    0    0    0    0 -0.00000000000E+00 -0.00000000000E+00 -0.45593999997E+02  0.45594000000E+02  0.51100000000E-03 0.  1.
    9900012    2    1    2    0    0 -0.30788262671E+01 -0.33099157737E+02  0.30398684183E+02  0.46142318585E+02  0.10000007516E+02 0.  0.
        -12    1    1    2    0    0  0.30788262671E+01  0.33099157737E+02 -0.30398684183E+02  0.45045681415E+02  0.00000000000E+00 0.  1.
         11    1    3    3    0    0 -0.35439333947E+01 -0.10195254176E+02  0.81419738474E+01  0.13520148298E+02  0.51100000000E-03 0. -1.
        -11    1    3    3    0    0 -0.19465034260E+01 -0.64751174296E+01  0.96074385973E+01  0.11748144448E+02  0.51100000000E-03 0.  1.
        -12    1    3    3    0    0  0.24116105536E+01 -0.16428786131E+02  0.12649271738E+02  0.20874025839E+02  0.00000000000E+00 0.  1.
</event>
<event>
 7    1  0.4452647E-009  0.4614232E+02  0.7816164E-02  0.1320468E+00
        -11   -1    0    0    0    0  0.00000000000E+00  0.00000000000E+00  0.45593999997E+02  0.45594000000E+02  0.51100000000E-03 0. -1.
         11   -1    0    0    0    0 -0.00000000000E+00 -0.00000000000E+00 -0.45593999997E+02  0.45594000000E+02  0.51100000000E-03 0.  1.
    9900012    2    1    2    0    0  0.25687470120E+02  0.13311295707E+01  0.36979664500E+02  0.46142316370E+02  0.99999873192E+01 0.  0.
        -12    1    1    2    0    0 -0.25687470120E+02 -0.13311295707E+01 -0.36979664500E+02  0.45045683630E+02  0.00000000000E+00 0.  1.
         11    1    3    3    0    0  0.76842572286E+01  0.36958781574E+01  0.15136623163E+02  0.17373102358E+02  0.51100000000E-03 0. -1.
        -11    1    3    3    0    0  0.17144562159E+02 -0.14164640418E+01  0.21300113254E+02  0.27379503408E+02  0.51100000000E-03 0.  1.
        -12    1    3    3    0    0  0.85865073267E+00 -0.94828454501E+00  0.54292808342E+00  0.13897106040E+01  0.00000000000E+00 0.  1.
</event>
<event>
 7    1  0.4452647E-009  0.4614232E+02  0.7816164E-02  0.1320468E+00
        -11   -1    0    0    0    0  0.00000000000E+00  0.00000000000E+00  0.45593999997E+02  0.45594000000E+02  0.51100000000E-03 0.  1.
         11   -1    0    0    0    0 -0.00000000000E+00 -0.00000000000E+00 -0.45593999997E+02  0.45594000000E+02  0.51100000000E-03 0. -1.
    9900012    2    1    2    0    0  0.20824846041E+02  0.36096395861E+02 -0.17102323280E+02  0.46142317984E+02  0.10000002031E+02 0.  0.
        -12    1    1    2    0    0 -0.20824846041E+02 -0.36096395861E+02  0.17102323280E+02  0.45045682016E+02  0.00000000000E+00 0.  1.
         11    1    3    3    0    0  0.34904026539E+01  0.13613281762E+02 -0.38828417263E+01  0.14580151273E+02  0.51100000000E-03 0. -1.
        -11    1    3    3    0    0  0.36155751322E+01  0.57999604233E+01 -0.49279608275E+01  0.84259552946E+01  0.51100000000E-03 0.  1.
         12    1    3    3    0    0  0.13718868255E+02  0.16683153675E+02 -0.82915207260E+01  0.23136211416E+02  0.00000000000E+00 0. -1.
</event>
<event>
 7    1  0.4452647E-009  0.4614232E+02  0.7816164E-02  0.1320468E+00
        -11   -1    0    0    0    0  0.00000000000E+00  0.00000000000E+00  0.45593999997E+02  0.45594000000E+02  0.51100000000E-03 0. -1.
         11   -1    0    0    0    0 -0.00000000000E+00 -0.00000000000E+00 -0.45593999997E+02  0.45594000000E+02  0.51100000000E-03 0.  1.
    9900012    2    1    2    0    0 -0.68450957696E+01  0.22491144149E+02  0.38424036666E+02  0.46142317688E+02  0.99999993335E+01 0.  0.
        -12    1    1    2    0    0  0.68450957696E+01 -0.22491144149E+02 -0.38424036666E+02  0.45045682312E+02  0.00000000000E+00 0.  1.
         11    1    3    3    0    0  0.30273243332E+00  0.93925081758E+01  0.15369741566E+02  0.18014988561E+02  0.51100000000E-03 0. -1.
        -11    1    3    3    0    0 -0.57279416362E+01  0.87147424364E+01  0.20126285382E+02  0.22667673340E+02  0.51100000000E-03 0.  1.
        -12    1    3    3    0    0 -0.14198865667E+01  0.43838935373E+01  0.29280097174E+01  0.54596557871E+01  0.00000000000E+00 0.  1.
</event>
<event>
 7    1  0.4452647E-009  0.4614232E+02  0.7816164E-02  0.1320468E+00
        -11   -1    0    0    0    0  0.00000000000E+00  0.00000000000E+00  0.45593999997E+02  0.45594000000E+02  0.51100000000E-03 0. -1.
         11   -1    0    0    0    0 -0.00000000000E+00 -0.00000000000E+00 -0.45593999997E+02  0.45594000000E+02  0.51100000000E-03 0.  1.
    9900012    2    1    2    0    0  0.11734559917E+02 -0.21281253376E+02  0.37927850554E+02  0.46142317750E+02  0.99999999014E+01 0.  0.
        -12    1    1    2    0    0 -0.11734559917E+02  0.21281253376E+02 -0.37927850554E+02  0.45045682250E+02  0.00000000000E+00 0.  1.
         11    1    3    3    0    0 -0.63816773131E-02 -0.31146795044E-01 -0.43626703835E+00  0.43742432319E+00  0.51100000000E-03 0.  1.
        -11    1    3    3    0    0  0.28398077358E+01 -0.10540676096E+02  0.16824487228E+02  0.20055765538E+02  0.51100000000E-03 0. -1.
         12    1    3    3    0    0  0.89011338589E+01 -0.10709430485E+02  0.21539630364E+02  0.25649127889E+02  0.00000000000E+00 0. -1.
</event>
<event>
 7    1  0.4452647E-009  0.4614232E+02  0.7816164E-02  0.1320468E+00
        -11   -1    0    0    0    0  0.00000000000E+00  0.00000000000E+00  0.45593999997E+02  0.45594000000E+02  0.51100000000E-03 0. -1.
         11   -1    0    0    0    0 -0.00000000000E+00 -0.00000000000E+00 -0.45593999997E+02  0.45594000000E+02  0.51100000000E-03 0.  1.
    9900012    2    1    2    0    0  0.16126523175E+02  0.50789113770E+00  0.42056994599E+02  0.46142317656E+02  0.99999990408E+01 0.  0.
        -12    1    1    2    0    0 -0.16126523175E+02 -0.50789113770E+00 -0.42056994599E+02  0.45045682344E+02  0.00000000000E+00 0.  1.
         11    1    3    3    0    0  0.68317944279E+00  0.66097820815E+00  0.66044787178E+00  0.11575050735E+01  0.51100000000E-03 0.  1.
        -11    1    3    3    0    0  0.13407724312E+02 -0.13584096239E+01  0.40063610971E+02  0.42269436621E+02  0.51100000000E-03 0. -1.
         12    1    3    3    0    0  0.20356194205E+01  0.12053225535E+01  0.13329357564E+01  0.27153759617E+01  0.00000000000E+00 0. -1.
</event>
<event>
 7    1  0.4820807E-009  0.4614232E+02  0.7816164E-02  0.1320468E+00
        -11   -1    0    0    0    0  0.00000000000E+00  0.00000000000E+00  0.45593999997E+02  0.45594000000E+02  0.51100000000E-03 0. -1.
         11   -1    0    0    0    0 -0.00000000000E+00 -0.00000000000E+00 -0.45593999997E+02  0.45594000000E+02  0.51100000000E-03 0.  1.
    9900012    2    1    2    0    0 -0.32413470508E+02  0.51542352643E+01  0.30853109321E+02  0.46142316896E+02  0.99999921115E+01 0.  0.
        -12    1    1    2    0    0  0.32413470508E+02 -0.51542352643E+01 -0.30853109321E+02  0.45045683104E+02  0.00000000000E+00 0.  1.
         11    1    3    3    0    0 -0.22465211429E+02  0.51123851228E+01  0.17452007599E+02  0.28903196634E+02  0.51100000000E-03 0. -1.
        -11    1    3    3    0    0 -0.49635234567E+01 -0.19138998535E+01  0.51597676425E+01  0.74109904965E+01  0.51100000000E-03 0.  1.
         12    1    3    3    0    0 -0.49847356221E+01  0.19557499950E+01  0.82413340797E+01  0.98281297650E+01  0.00000000000E+00 0. -1.
</event>
<event>
 7    1  0.4452647E-009  0.4614232E+02  0.7816164E-02  0.1320468E+00
        -11   -1    0    0    0    0  0.00000000000E+00  0.00000000000E+00  0.45593999997E+02  0.45594000000E+02  0.51100000000E-03 0. -1.
         11   -1    0    0    0    0 -0.00000000000E+00 -0.00000000000E+00 -0.45593999997E+02  0.45594000000E+02  0.51100000000E-03 0.  1.
    9900012    2    1    2    0    0 -0.15665043265E+02 -0.31012040080E+02  0.28670077439E+02  0.46142317069E+02  0.99999936854E+01 0.  0.
        -12    1    1    2    0    0  0.15665043265E+02  0.31012040080E+02 -0.28670077439E+02  0.45045682931E+02  0.00000000000E+00 0.  1.
         11    1    3    3    0    0 -0.28270292417E+01 -0.67871945670E+01  0.10426231344E+02  0.12757915376E+02  0.51100000000E-03 0.  1.
        -11    1    3    3    0    0 -0.97025963425E+01 -0.20521930983E+02  0.17043423819E+02  0.28386058599E+02  0.51100000000E-03 0. -1.
        -12    1    3    3    0    0 -0.31354176805E+01 -0.37029145294E+01  0.12004222759E+01  0.49983430939E+01  0.00000000000E+00 0.  1.
</event>
<event>
 7    1  0.4452647E-009  0.4614231E+02  0.7816164E-02  0.1320468E+00
        -11   -1    0    0    0    0  0.00000000000E+00  0.00000000000E+00  0.45593999997E+02  0.45594000000E+02  0.51100000000E-03 0. -1.
         11   -1    0    0    0    0 -0.00000000000E+00 -0.00000000000E+00 -0.45593999997E+02  0.45594000000E+02  0.51100000000E-03 0.  1.
    9900012    2    1    2    0    0  0.41060910089E+01 -0.20253539159E+02 -0.40025592045E+02  0.46142313742E+02  0.99999633545E+01 0.  0.
         12    1    1    2    0    0 -0.41060910089E+01  0.20253539159E+02  0.40025592045E+02  0.45045686258E+02  0.00000000000E+00 0. -1.
         11    1    3    3    0    0  0.39054141967E+01 -0.40167183048E+01 -0.73653372125E+01  0.92538899120E+01  0.51100000000E-03 0. -1.
        -11    1    3    3    0    0 -0.25352511195E+01 -0.96027759047E+01 -0.20197282680E+02  0.22507132897E+02  0.51100000000E-03 0.  1.
        -12    1    3    3    0    0  0.27359279318E+01 -0.66340449497E+01 -0.12462972153E+02  0.14381290934E+02  0.00000000000E+00 0.  1.
</event>
<event>
 7    1  0.4452647E-009  0.4614232E+02  0.7816164E-02  0.1320468E+00
        -11   -1    0    0    0    0  0.00000000000E+00  0.00000000000E+00  0.45593999997E+02  0.45594000000E+02  0.51100000000E-03 0. -1.
         11   -1    0    0    0    0 -0.00000000000E+00 -0.00000000000E+00 -0.45593999997E+02  0.45594000000E+02  0.51100000000E-03 0.  1.
    9900012    2    1    2    0    0 -0.32424574613E+02 -0.20843607172E+02 -0.23308892378E+02  0.46142318047E+02  0.10000002604E+02 0.  0.
         12    1    1    2    0    0  0.32424574613E+02  0.20843607172E+02  0.23308892378E+02  0.45045681953E+02  0.00000000000E+00 0. -1.
         11    1    3    3    0    0  0.18100666823E+00 -0.61377221479E+00 -0.16077593587E+01  0.17304248502E+01  0.51100000000E-03 0. -1.
        -11    1    3    3    0    0 -0.10734109024E+02 -0.62449037768E+01 -0.99631785608E+01  0.15921207461E+02  0.51100000000E-03 0.  1.
         12    1    3    3    0    0 -0.21871472257E+02 -0.13984931180E+02 -0.11737954459E+02  0.28490685736E+02  0.00000000000E+00 0. -1.
</event>
<event>
 7    1  0.4452647E-009  0.4614232E+02  0.7816164E-02  0.1320468E+00
        -11   -1    0    0    0    0  0.00000000000E+00  0.00000000000E+00  0.45593999997E+02  0.45594000000E+02  0.51100000000E-03 0. -1.
         11   -1    0    0    0    0 -0.00000000000E+00 -0.00000000000E+00 -0.45593999997E+02  0.45594000000E+02  0.51100000000E-03 0.  1.
    9900012    2    1    2    0    0  0.27903764960E+02 -0.24009958525E+02 -0.25961807126E+02  0.46142316116E+02  0.99999850010E+01 0.  0.
         12    1    1    2    0    0 -0.27903764960E+02  0.24009958525E+02  0.25961807126E+02  0.45045683884E+02  0.00000000000E+00 0. -1.
         11    1    3    3    0    0  0.12264929648E+02 -0.12897401751E+02 -0.13088275121E+02  0.22092406322E+02  0.51100000000E-03 0. -1.
        -11    1    3    3    0    0  0.80491707942E+01 -0.84945657516E+01 -0.10381317307E+02  0.15643482575E+02  0.51100000000E-03 0.  1.
         12    1    3    3    0    0  0.75896645184E+01 -0.26179910221E+01 -0.24922146976E+01  0.84064272192E+01  0.00000000000E+00 0. -1.
</event>
<event>
 7    1  0.4452647E-009  0.4614232E+02  0.7816164E-02  0.1320468E+00
        -11   -1    0    0    0    0  0.00000000000E+00  0.00000000000E+00  0.45593999997E+02  0.45594000000E+02  0.51100000000E-03 0. -1.
         11   -1    0    0    0    0 -0.00000000000E+00 -0.00000000000E+00 -0.45593999997E+02  0.45594000000E+02  0.51100000000E-03 0.  1.
    9900012    2    1    2    0    0  0.83517886933E+00 -0.38110877930E+02  0.23999521499E+02  0.46142316826E+02  0.99999914772E+01 0.  0.
        -12    1    1    2    0    0 -0.83517886933E+00  0.38110877930E+02 -0.23999521499E+02  0.45045683174E+02  0.00000000000E+00 0.  1.
         11    1    3    3    0    0  0.14590841131E+01 -0.65993191547E+01  0.77039665172E+00  0.68024591889E+01  0.51100000000E-03 0. -1.
        -11    1    3    3    0    0 -0.90975452133E+00 -0.28376722372E+02  0.19416821107E+02  0.34395914991E+02  0.51100000000E-03 0.  1.
         12    1    3    3    0    0  0.28584927756E+00 -0.31348364037E+01  0.38123037404E+01  0.49439426470E+01  0.00000000000E+00 0. -1.
</event>
<event>
 7    1  0.4452647E-009  0.4614232E+02  0.7816164E-02  0.1320468E+00
        -11   -1    0    0    0    0  0.00000000000E+00  0.00000000000E+00  0.45593999997E+02  0.45594000000E+02  0.51100000000E-03 0. -1.
         11   -1    0    0    0    0 -0.00000000000E+00 -0.00000000000E+00 -0.45593999997E+02  0.45594000000E+02  0.51100000000E-03 0.  1.
    9900012    2    1    2    0    0 -0.59099025103E+01  0.12388909434E+01 -0.44639126822E+02  0.46142318277E+02  0.10000004707E+02 0.  0.
         12    1    1    2    0    0  0.59099025103E+01 -0.12388909434E+01  0.44639126822E+02  0.45045681723E+02  0.00000000000E+00 0. -1.
         11    1    3    3    0    0 -0.69993236492E-01  0.41106671270E+01 -0.17183457157E+02  0.17668437492E+02  0.51100000000E-03 0. -1.
        -11    1    3    3    0    0 -0.44517452779E+01 -0.26763219732E+01 -0.13778794042E+02  0.14725348920E+02  0.51100000000E-03 0.  1.
         12    1    3    3    0    0 -0.13881639959E+01 -0.19545421041E+00 -0.13676875623E+02  0.13748531865E+02  0.00000000000E+00 0. -1.
</event>
<event>
 7    1  0.4452647E-009  0.4614232E+02  0.7816164E-02  0.1320468E+00
        -11   -1    0    0    0    0  0.00000000000E+00  0.00000000000E+00  0.45593999997E+02  0.45594000000E+02  0.51100000000E-03 0. -1.
         11   -1    0    0    0    0 -0.00000000000E+00 -0.00000000000E+00 -0.45593999997E+02  0.45594000000E+02  0.51100000000E-03 0.  1.
    9900012    2    1    2    0    0  0.42124155509E+02  0.74655813652E+01  0.14104398296E+02  0.46142318367E+02  0.10000005525E+02 0.  0.
         12    1    1    2    0    0 -0.42124155509E+02 -0.74655813652E+01 -0.14104398296E+02  0.45045681633E+02  0.00000000000E+00 0. -1.
         11    1    3    3    0    0  0.71347384326E+01  0.33372591094E+00 -0.10607419355E+01  0.72208752379E+01  0.51100000000E-03 0. -1.
        -11    1    3    3    0    0  0.21461906789E+02  0.42156291923E+01  0.10921090904E+02  0.24446987530E+02  0.51100000000E-03 0.  1.
        -12    1    3    3    0    0  0.13527510287E+02  0.29162262619E+01  0.42440493275E+01  0.14474455599E+02  0.00000000000E+00 0.  1.
</event>
<event>
 7    1  0.4452647E-009  0.4614232E+02  0.7816164E-02  0.1320468E+00
        -11   -1    0    0    0    0  0.00000000000E+00  0.00000000000E+00  0.45593999997E+02  0.45594000000E+02  0.51100000000E-03 0. -1.
         11   -1    0    0    0    0 -0.00000000000E+00 -0.00000000000E+00 -0.45593999997E+02  0.45594000000E+02  0.51100000000E-03 0.  1.
    9900012    2    1    2    0    0  0.14624211767E+02  0.12984471201E+01  0.42585911732E+02  0.46142318600E+02  0.10000007653E+02 0.  0.
        -12    1    1    2    0    0 -0.14624211767E+02 -0.12984471201E+01 -0.42585911732E+02  0.45045681400E+02  0.00000000000E+00 0.  1.
         11    1    3    3    0    0  0.61781532855E+01  0.38488400486E+01  0.19872891610E+02  0.21164001723E+02  0.51100000000E-03 0. -1.
        -11    1    3    3    0    0  0.15370000668E+01 -0.25547090194E+01  0.37177342168E+01  0.47655487981E+01  0.51100000000E-03 0.  1.
        -12    1    3    3    0    0  0.69090584143E+01  0.43160909285E-02  0.18995285905E+02  0.20212768079E+02  0.00000000000E+00 0.  1.
</event>
<event>
 7    1  0.4452647E-009  0.4614232E+02  0.7816164E-02  0.1320468E+00
        -11   -1    0    0    0    0  0.00000000000E+00  0.00000000000E+00  0.45593999997E+02  0.45594000000E+02  0.51100000000E-03 0. -1.
         11   -1    0    0    0    0 -0.00000000000E+00 -0.00000000000E+00 -0.45593999997E+02  0.45594000000E+02  0.51100000000E-03 0.  1.
    9900012    2    1    2    0    0  0.22513857093E+02  0.28929759488E+02 -0.26178403434E+02  0.46142317060E+02  0.99999936043E+01 0.  0.
         12    1    1    2    0    0 -0.22513857093E+02 -0.28929759488E+02  0.26178403434E+02  0.45045682940E+02  0.00000000000E+00 0. -1.
         11    1    3    3    0    0  0.26746258529E+01  0.34181025545E+01 -0.60326323831E+01  0.74316688742E+01  0.51100000000E-03 0. -1.
        -11    1    3    3    0    0  0.27353049737E+01  0.83228640928E+01 -0.62609936396E+01  0.10768101115E+02  0.51100000000E-03 0.  1.
         12    1    3    3    0    0  0.17103926266E+02  0.17188792840E+02 -0.13884777411E+02  0.27942547070E+02  0.00000000000E+00 0. -1.
</event>
<event>
 7    1  0.4452647E-009  0.4614232E+02  0.7816164E-02  0.1320468E+00
        -11   -1    0    0    0    0  0.00000000000E+00  0.00000000000E+00  0.45593999997E+02  0.45594000000E+02  0.51100000000E-03 0. -1.
         11   -1    0    0    0    0 -0.00000000000E+00 -0.00000000000E+00 -0.45593999997E+02  0.45594000000E+02  0.51100000000E-03 0.  1.
    9900012    2    1    2    0    0 -0.31512424324E+02  0.29563860934E+02 -0.12730224376E+02  0.46142319044E+02  0.10000011703E+02 0.  0.
         12    1    1    2    0    0  0.31512424324E+02 -0.29563860934E+02  0.12730224376E+02  0.45045680956E+02  0.00000000000E+00 0. -1.
         11    1    3    3    0    0 -0.16481900782E+00 -0.32650285490E+00  0.57482795770E+00  0.68131994076E+00  0.51100000000E-03 0. -1.
        -11    1    3    3    0    0 -0.21884661300E+02  0.19269245106E+02 -0.75885868630E+01  0.30130198440E+02  0.51100000000E-03 0.  1.
         12    1    3    3    0    0 -0.94629440156E+01  0.10621118683E+02 -0.57164654711E+01  0.15330800664E+02  0.00000000000E+00 0. -1.
</event>
<event>
 7    1  0.4452647E-009  0.4614232E+02  0.7816164E-02  0.1320468E+00
        -11   -1    0    0    0    0  0.00000000000E+00  0.00000000000E+00  0.45593999997E+02  0.45594000000E+02  0.51100000000E-03 0. -1.
         11   -1    0    0    0    0 -0.00000000000E+00 -0.00000000000E+00 -0.45593999997E+02  0.45594000000E+02  0.51100000000E-03 0.  1.
    9900012    2    1    2    0    0 -0.34823555137E+02  0.80373505712E+01 -0.27419599708E+02  0.46142318245E+02  0.10000004417E+02 0.  0.
         12    1    1    2    0    0  0.34823555137E+02 -0.80373505712E+01  0.27419599708E+02  0.45045681755E+02  0.00000000000E+00 0. -1.
         11    1    3    3    0    0 -0.25957159985E+02  0.62695270716E+01 -0.15147822553E+02  0.30700776090E+02  0.51100000000E-03 0. -1.
        -11    1    3    3    0    0 -0.88554762444E+01  0.13546941134E+01 -0.11688746366E+02  0.14726895380E+02  0.51100000000E-03 0.  1.
         12    1    3    3    0    0 -0.10918907256E-01  0.41312938621E+00 -0.58303078955E+00  0.71464677558E+00  0.00000000000E+00 0. -1.
</event>
<event>
 7    1  0.4452647E-009  0.4614232E+02  0.7816164E-02  0.1320468E+00
        -11   -1    0    0    0    0  0.00000000000E+00  0.00000000000E+00  0.45593999997E+02  0.45594000000E+02  0.51100000000E-03 0.  1.
         11   -1    0    0    0    0 -0.00000000000E+00 -0.00000000000E+00 -0.45593999997E+02  0.45594000000E+02  0.51100000000E-03 0. -1.
    9900012    2    1    2    0    0  0.10403349551E+02  0.35983809373E+02  0.25020981096E+02  0.46142315258E+02  0.99999771766E+01 0.  0.
         12    1    1    2    0    0 -0.10403349551E+02 -0.35983809373E+02 -0.25020981096E+02  0.45045684742E+02  0.00000000000E+00 0. -1.
         11    1    3    3    0    0 -0.38799168711E+00  0.95683514889E-01  0.19287948052E+00  0.44372924111E+00  0.51100000000E-03 0. -1.
        -11    1    3    3    0    0  0.29991491670E+01  0.13778168495E+02  0.48930811820E+01  0.14925651293E+02  0.51100000000E-03 0.  1.
        -12    1    3    3    0    0  0.77921920717E+01  0.22109957363E+02  0.19935020433E+02  0.30772934724E+02  0.00000000000E+00 0.  1.
</event>
<event>
 7    1  0.4452647E-009  0.4614232E+02  0.7816164E-02  0.1320468E+00
        -11   -1    0    0    0    0  0.00000000000E+00  0.00000000000E+00  0.45593999997E+02  0.45594000000E+02  0.51100000000E-03 0. -1.
         11   -1    0    0    0    0 -0.00000000000E+00 -0.00000000000E+00 -0.45593999997E+02  0.45594000000E+02  0.51100000000E-03 0.  1.
    9900012    2    1    2    0    0  0.31529399904E-01  0.25238216461E+02 -0.37311458864E+02  0.46142317334E+02  0.99999961066E+01 0.  0.
         12    1    1    2    0    0 -0.31529399904E-01 -0.25238216461E+02  0.37311458864E+02  0.45045682666E+02  0.00000000000E+00 0. -1.
         11    1    3    3    0    0  0.25422574942E+01  0.79375137470E+01 -0.64948507584E+01  0.10566469812E+02  0.51100000000E-03 0. -1.
        -11    1    3    3    0    0 -0.31246143938E+01  0.16296248797E+02 -0.28547328446E+02  0.33019401897E+02  0.51100000000E-03 0.  1.
         12    1    3    3    0    0  0.61388629950E+00  0.10044539176E+01 -0.22692796601E+01  0.25564456256E+01  0.00000000000E+00 0. -1.
</event>
<event>
 7    1  0.4452647E-009  0.4614232E+02  0.7816164E-02  0.1320468E+00
        -11   -1    0    0    0    0  0.00000000000E+00  0.00000000000E+00  0.45593999997E+02  0.45594000000E+02  0.51100000000E-03 0. -1.
         11   -1    0    0    0    0 -0.00000000000E+00 -0.00000000000E+00 -0.45593999997E+02  0.45594000000E+02  0.51100000000E-03 0.  1.
    9900012    2    1    2    0    0 -0.52790171620E+01 -0.24858984682E+02  0.37192424416E+02  0.46142316793E+02  0.99999911711E+01 0.  0.
        -12    1    1    2    0    0  0.52790171620E+01  0.24858984682E+02 -0.37192424416E+02  0.45045683207E+02  0.00000000000E+00 0.  1.
         11    1    3    3    0    0 -0.14439686377E+01 -0.28448100602E+01  0.71847925598E+01  0.78612488889E+01  0.51100000000E-03 0. -1.
        -11    1    3    3    0    0 -0.35858701329E+01 -0.65182729006E+01  0.53728353996E+01  0.91768026409E+01  0.51100000000E-03 0.  1.
        -12    1    3    3    0    0 -0.24917839141E+00 -0.15495901722E+02  0.24634796457E+02  0.29104265263E+02  0.00000000000E+00 0.  1.
</event>
<event>
 7    1  0.4452647E-009  0.4614232E+02  0.7816164E-02  0.1320468E+00
        -11   -1    0    0    0    0  0.00000000000E+00  0.00000000000E+00  0.45593999997E+02  0.45594000000E+02  0.51100000000E-03 0. -1.
         11   -1    0    0    0    0 -0.00000000000E+00 -0.00000000000E+00 -0.45593999997E+02  0.45594000000E+02  0.51100000000E-03 0.  1.
    9900012    2    1    2    0    0 -0.18696491891E+02 -0.40403791454E+02  0.68620873131E+01  0.46142318573E+02  0.10000007403E+02 0.  0.
         12    1    1    2    0    0  0.18696491891E+02  0.40403791454E+02 -0.68620873131E+01  0.45045681427E+02  0.00000000000E+00 0. -1.
         11    1    3    3    0    0 -0.56469240985E+01 -0.16609275695E+02  0.49313579313E+01  0.18222899939E+02  0.51100000000E-03 0. -1.
        -11    1    3    3    0    0 -0.33741316039E+01 -0.81478800284E+01  0.34288568850E+01  0.94620173767E+01  0.51100000000E-03 0.  1.
         12    1    3    3    0    0 -0.96754361891E+01 -0.15646635731E+02 -0.14981275032E+01  0.18457401257E+02  0.00000000000E+00 0. -1.
</event>
<event>
 7    1  0.4802343E-009  0.4614232E+02  0.7816164E-02  0.1320468E+00
        -11   -1    0    0    0    0  0.00000000000E+00  0.00000000000E+00  0.45593999997E+02  0.45594000000E+02  0.51100000000E-03 0. -1.
         11   -1    0    0    0    0 -0.00000000000E+00 -0.00000000000E+00 -0.45593999997E+02  0.45594000000E+02  0.51100000000E-03 0.  1.
    9900012    2    1    2    0    0 -0.21783232784E+02  0.48985392636E+01  0.39122995805E+02  0.46142315210E+02  0.99999767376E+01 0.  0.
        -12    1    1    2    0    0  0.21783232784E+02 -0.48985392636E+01 -0.39122995805E+02  0.45045684790E+02  0.00000000000E+00 0.  1.
         11    1    3    3    0    0 -0.10276765806E+02  0.27033143566E+01  0.25033444675E+02  0.27195462424E+02  0.51100000000E-03 0. -1.
        -11    1    3    3    0    0 -0.47971322367E+00  0.97151768999E+00  0.94329889963E-01  0.10875981740E+01  0.51100000000E-03 0.  1.
         12    1    3    3    0    0 -0.11026753754E+02  0.12237072171E+01  0.13995221240E+02  0.17859254612E+02  0.00000000000E+00 0. -1.
</event>
<event>
 7    1  0.4452647E-009  0.4614232E+02  0.7816164E-02  0.1320468E+00
        -11   -1    0    0    0    0  0.00000000000E+00  0.00000000000E+00  0.45593999997E+02  0.45594000000E+02  0.51100000000E-03 0.  1.
         11   -1    0    0    0    0 -0.00000000000E+00 -0.00000000000E+00 -0.45593999997E+02  0.45594000000E+02  0.51100000000E-03 0. -1.
    9900012    2    1    2    0    0  0.44927128390E+02  0.12097679398E+01  0.30336620451E+01  0.46142317529E+02  0.99999978834E+01 0.  0.
        -12    1    1    2    0    0 -0.44927128390E+02 -0.12097679398E+01 -0.30336620451E+01  0.45045682471E+02  0.00000000000E+00 0.  1.
         11    1    3    3    0    0  0.32959037873E+02 -0.22809756931E+01  0.13931671595E+01  0.33067233670E+02  0.51100000000E-03 0. -1.
        -11    1    3    3    0    0  0.88819312766E+01  0.23664574757E+01  0.27726720738E+01  0.96008611528E+01  0.51100000000E-03 0.  1.
        -12    1    3    3    0    0  0.30861592412E+01  0.11242861572E+01 -0.11321771882E+01  0.34742227060E+01  0.00000000000E+00 0.  1.
</event>
<event>
 7    1  0.4452647E-009  0.4614232E+02  0.7816164E-02  0.1320468E+00
        -11   -1    0    0    0    0  0.00000000000E+00  0.00000000000E+00  0.45593999997E+02  0.45594000000E+02  0.51100000000E-03 0. -1.
         11   -1    0    0    0    0 -0.00000000000E+00 -0.00000000000E+00 -0.45593999997E+02  0.45594000000E+02  0.51100000000E-03 0.  1.
    9900012    2    1    2    0    0 -0.89139718575E+01  0.34897753235E+02 -0.27051828587E+02  0.46142317576E+02  0.99999983135E+01 0.  0.
         12    1    1    2    0    0  0.89139718575E+01 -0.34897753235E+02  0.27051828587E+02  0.45045682424E+02  0.00000000000E+00 0. -1.
         11    1    3    3    0    0  0.45163172928E+00  0.60675837335E+00 -0.21554591664E+01  0.22843229679E+01  0.51100000000E-03 0. -1.
        -11    1    3    3    0    0 -0.96852300448E+01  0.29368875989E+02 -0.19560820073E+02  0.36591805641E+02  0.51100000000E-03 0.  1.
         12    1    3    3    0    0  0.31962645804E+00  0.49221188734E+01 -0.53355493472E+01  0.72661889676E+01  0.00000000000E+00 0. -1.
</event>
<event>
 7    1  0.4452647E-009  0.4614232E+02  0.7816164E-02  0.1320468E+00
        -11   -1    0    0    0    0  0.00000000000E+00  0.00000000000E+00  0.45593999997E+02  0.45594000000E+02  0.51100000000E-03 0. -1.
         11   -1    0    0    0    0 -0.00000000000E+00 -0.00000000000E+00 -0.45593999997E+02  0.45594000000E+02  0.51100000000E-03 0.  1.
    9900012    2    1    2    0    0 -0.19797509289E+02 -0.21391956458E+02 -0.34344666681E+02  0.46142319801E+02  0.10000018599E+02 0.  0.
         12    1    1    2    0    0  0.19797509289E+02  0.21391956458E+02  0.34344666681E+02  0.45045680199E+02  0.00000000000E+00 0. -1.
         11    1    3    3    0    0  0.78193025769E+00 -0.22925326331E+01 -0.17732569322E+01  0.30019262500E+01  0.51100000000E-03 0. -1.
        -11    1    3    3    0    0 -0.15338707447E+02 -0.14957748134E+02 -0.26812792838E+02  0.34321072761E+02  0.51100000000E-03 0.  1.
         12    1    3    3    0    0 -0.52407320999E+01 -0.41416756912E+01 -0.57586169106E+01  0.88193207900E+01  0.00000000000E+00 0. -1.
</event>
<event>
 7    1  0.4452647E-009  0.4614232E+02  0.7816164E-02  0.1320468E+00
        -11   -1    0    0    0    0  0.00000000000E+00  0.00000000000E+00  0.45593999997E+02  0.45594000000E+02  0.51100000000E-03 0. -1.
         11   -1    0    0    0    0 -0.00000000000E+00 -0.00000000000E+00 -0.45593999997E+02  0.45594000000E+02  0.51100000000E-03 0.  1.
    9900012    2    1    2    0    0  0.57676951053E+00 -0.70704932808E+01 -0.44483579866E+02  0.46142318564E+02  0.10000007325E+02 0.  0.
         12    1    1    2    0    0 -0.57676951053E+00  0.70704932808E+01  0.44483579866E+02  0.45045681436E+02  0.00000000000E+00 0. -1.
         11    1    3    3    0    0  0.32289983636E-01  0.34286149679E+00  0.62224744532E-01  0.34995546713E+00  0.51100000000E-03 0. -1.
        -11    1    3    3    0    0  0.51404779901E+00 -0.82669463678E+00 -0.27514862052E+02  0.27532077712E+02  0.51100000000E-03 0.  1.
        -12    1    3    3    0    0  0.30431727890E-01 -0.65866601408E+01 -0.17030942559E+02  0.18260285385E+02  0.00000000000E+00 0.  1.
</event>
<event>
 7    1  0.4452647E-009  0.4614232E+02  0.7816164E-02  0.1320468E+00
        -11   -1    0    0    0    0  0.00000000000E+00  0.00000000000E+00  0.45593999997E+02  0.45594000000E+02  0.51100000000E-03 0. -1.
         11   -1    0    0    0    0 -0.00000000000E+00 -0.00000000000E+00 -0.45593999997E+02  0.45594000000E+02  0.51100000000E-03 0.  1.
    9900012    2    1    2    0    0 -0.21418296959E+02  0.86406092912E+01  0.38674408625E+02  0.46142318120E+02  0.10000003270E+02 0.  0.
        -12    1    1    2    0    0  0.21418296959E+02 -0.86406092912E+01 -0.38674408625E+02  0.45045681880E+02  0.00000000000E+00 0.  1.
         11    1    3    3    0    0 -0.12013345987E+02  0.66073304849E+01  0.18383816629E+02  0.22933425651E+02  0.51100000000E-03 0. -1.
        -11    1    3    3    0    0 -0.86505562768E+01  0.22572066985E+01  0.12441819880E+02  0.15320769829E+02  0.51100000000E-03 0.  1.
        -12    1    3    3    0    0 -0.75439469523E+00 -0.22392789216E+00  0.78487721157E+01  0.78881226398E+01  0.00000000000E+00 0.  1.
</event>
<event>
 7    1  0.4452647E-009  0.4614232E+02  0.7816164E-02  0.1320468E+00
        -11   -1    0    0    0    0  0.00000000000E+00  0.00000000000E+00  0.45593999997E+02  0.45594000000E+02  0.51100000000E-03 0. -1.
         11   -1    0    0    0    0 -0.00000000000E+00 -0.00000000000E+00 -0.45593999997E+02  0.45594000000E+02  0.51100000000E-03 0.  1.
    9900012    2    1    2    0    0  0.40721436899E+01 -0.39402073696E+01  0.44687872567E+02  0.46142317156E+02  0.99999944799E+01 0.  0.
        -12    1    1    2    0    0 -0.40721436899E+01  0.39402073696E+01 -0.44687872567E+02  0.45045682844E+02  0.00000000000E+00 0.  1.
         11    1    3    3    0    0 -0.14887623364E+01  0.10944080749E+01  0.23806955865E+01  0.30136114656E+01  0.51100000000E-03 0. -1.
        -11    1    3    3    0    0  0.39927450239E+01 -0.10998487719E+01  0.21179579366E+02  0.21580691892E+02  0.51100000000E-03 0.  1.
        -12    1    3    3    0    0  0.15681610024E+01 -0.39347666726E+01  0.21127597615E+02  0.21548013799E+02  0.00000000000E+00 0.  1.
</event>
<event>
 7    1  0.4452647E-009  0.4614232E+02  0.7816164E-02  0.1320468E+00
        -11   -1    0    0    0    0  0.00000000000E+00  0.00000000000E+00  0.45593999997E+02  0.45594000000E+02  0.51100000000E-03 0. -1.
         11   -1    0    0    0    0 -0.00000000000E+00 -0.00000000000E+00 -0.45593999997E+02  0.45594000000E+02  0.51100000000E-03 0.  1.
    9900012    2    1    2    0    0  0.25820710592E+02  0.17316003598E+02  0.32596939023E+02  0.46142317523E+02  0.99999978312E+01 0.  0.
        -12    1    1    2    0    0 -0.25820710592E+02 -0.17316003598E+02 -0.32596939023E+02  0.45045682477E+02  0.00000000000E+00 0.  1.
         11    1    3    3    0    0  0.11463062456E+02  0.48707156789E+01  0.12871487498E+02  0.17910914626E+02  0.51100000000E-03 0. -1.
        -11    1    3    3    0    0  0.45810532044E+01  0.58859807541E+01  0.12068683195E+02  0.14187456862E+02  0.51100000000E-03 0.  1.
        -12    1    3    3    0    0  0.97765949320E+01  0.65593071655E+01  0.76567683311E+01  0.14043946035E+02  0.00000000000E+00 0.  1.
</event>
<event>
 7    1  0.4452647E-009  0.4614232E+02  0.7816164E-02  0.1320468E+00
        -11   -1    0    0    0    0  0.00000000000E+00  0.00000000000E+00  0.45593999997E+02  0.45594000000E+02  0.51100000000E-03 0. -1.
         11   -1    0    0    0    0 -0.00000000000E+00 -0.00000000000E+00 -0.45593999997E+02  0.45594000000E+02  0.51100000000E-03 0.  1.
    9900012    2    1    2    0    0  0.18360741181E+02 -0.15883262370E+01  0.41103209725E+02  0.46142318224E+02  0.10000004222E+02 0.  0.
        -12    1    1    2    0    0 -0.18360741181E+02  0.15883262370E+01 -0.41103209725E+02  0.45045681776E+02  0.00000000000E+00 0.  1.
         11    1    3    3    0    0  0.13420243615E+02  0.16661052445E+01  0.23408487137E+02  0.27033980759E+02  0.51100000000E-03 0. -1.
        -11    1    3    3    0    0  0.33921674390E+01 -0.80023202083E+00  0.13905600796E+02  0.14335721293E+02  0.51100000000E-03 0.  1.
         12    1    3    3    0    0  0.15483301264E+01 -0.24541994606E+01  0.37891217925E+01  0.47726161726E+01  0.00000000000E+00 0. -1.
</event>
<event>
 7    1  0.4452647E-009  0.4614232E+02  0.7816164E-02  0.1320468E+00
        -11   -1    0    0    0    0  0.00000000000E+00  0.00000000000E+00  0.45593999997E+02  0.45594000000E+02  0.51100000000E-03 0. -1.
         11   -1    0    0    0    0 -0.00000000000E+00 -0.00000000000E+00 -0.45593999997E+02  0.45594000000E+02  0.51100000000E-03 0.  1.
    9900012    2    1    2    0    0 -0.12417552296E+02  0.40519954046E+02  0.15266017644E+02  0.46142316793E+02  0.99999911678E+01 0.  0.
         12    1    1    2    0    0  0.12417552296E+02 -0.40519954046E+02 -0.15266017644E+02  0.45045683207E+02  0.00000000000E+00 0. -1.
         11    1    3    3    0    0 -0.92940900854E+01  0.26092704813E+02  0.13575577727E+02  0.30846485470E+02  0.51100000000E-03 0. -1.
        -11    1    3    3    0    0  0.57516896666E+00  0.55714709827E+01  0.79096933714E+00  0.56566545771E+01  0.51100000000E-03 0.  1.
        -12    1    3    3    0    0 -0.36986311774E+01  0.88557782504E+01  0.89947058025E+00  0.96391767455E+01  0.00000000000E+00 0.  1.
</event>
<event>
 7    1  0.4452647E-009  0.4614232E+02  0.7816164E-02  0.1320468E+00
        -11   -1    0    0    0    0  0.00000000000E+00  0.00000000000E+00  0.45593999997E+02  0.45594000000E+02  0.51100000000E-03 0. -1.
         11   -1    0    0    0    0 -0.00000000000E+00 -0.00000000000E+00 -0.45593999997E+02  0.45594000000E+02  0.51100000000E-03 0.  1.
    9900012    2    1    2    0    0 -0.27483307123E+02  0.14287179372E+02 -0.32705624180E+02  0.46142317434E+02  0.99999970193E+01 0.  0.
         12    1    1    2    0    0  0.27483307123E+02 -0.14287179372E+02  0.32705624180E+02  0.45045682566E+02  0.00000000000E+00 0. -1.
         11    1    3    3    0    0 -0.20493760569E+02  0.10440868970E+02 -0.21663234034E+02  0.31595912334E+02  0.51100000000E-03 0. -1.
        -11    1    3    3    0    0 -0.69224793981E+01  0.20422498340E+01 -0.10338840771E+02  0.12608851421E+02  0.51100000000E-03 0.  1.
         12    1    3    3    0    0 -0.67067155048E-01  0.18040605687E+01 -0.70354937453E+00  0.19375536795E+01  0.00000000000E+00 0. -1.
</event>
<event>
 7    1  0.4452647E-009  0.4614232E+02  0.7816164E-02  0.1320468E+00
        -11   -1    0    0    0    0  0.00000000000E+00  0.00000000000E+00  0.45593999997E+02  0.45594000000E+02  0.51100000000E-03 0. -1.
         11   -1    0    0    0    0 -0.00000000000E+00 -0.00000000000E+00 -0.45593999997E+02  0.45594000000E+02  0.51100000000E-03 0.  1.
    9900012    2    1    2    0    0  0.25328604021E+02  0.28908924644E+02  0.23491466083E+02  0.46142322244E+02  0.10000040878E+02 0.  0.
        -12    1    1    2    0    0 -0.25328604021E+02 -0.28908924644E+02 -0.23491466083E+02  0.45045677756E+02  0.00000000000E+00 0.  1.
         11    1    3    3    0    0  0.32349313378E+01  0.55743862895E+01  0.58844913590E+01  0.87273021078E+01  0.51100000000E-03 0. -1.
        -11    1    3    3    0    0  0.12303812238E+02  0.15167679500E+02  0.14410088634E+02  0.24271237127E+02  0.51100000000E-03 0.  1.
        -12    1    3    3    0    0  0.97898604460E+01  0.81668588548E+01  0.31968860900E+01  0.13143783009E+02  0.00000000000E+00 0.  1.
</event>
<event>
 7    1  0.4452647E-009  0.4614232E+02  0.7816164E-02  0.1320468E+00
        -11   -1    0    0    0    0  0.00000000000E+00  0.00000000000E+00  0.45593999997E+02  0.45594000000E+02  0.51100000000E-03 0. -1.
         11   -1    0    0    0    0 -0.00000000000E+00 -0.00000000000E+00 -0.45593999997E+02  0.45594000000E+02  0.51100000000E-03 0.  1.
    9900012    2    1    2    0    0  0.10882912834E+02  0.14331764254E+02 -0.41294991064E+02  0.46142317129E+02  0.99999942337E+01 0.  0.
         12    1    1    2    0    0 -0.10882912834E+02 -0.14331764254E+02  0.41294991064E+02  0.45045682871E+02  0.00000000000E+00 0. -1.
         11    1    3    3    0    0  0.83192520909E+01  0.11390889354E+02 -0.22417298984E+02  0.26485800151E+02  0.51100000000E-03 0. -1.
        -11    1    3    3    0    0  0.65276839389E+00  0.34405444101E+01 -0.12266791224E+02  0.12756865587E+02  0.51100000000E-03 0.  1.
         12    1    3    3    0    0  0.19108923491E+01 -0.49966951024E+00 -0.66109008558E+01  0.68996513908E+01  0.00000000000E+00 0. -1.
</event>
<event>
 7    1  0.4452647E-009  0.4614232E+02  0.7816164E-02  0.1320468E+00
        -11   -1    0    0    0    0  0.00000000000E+00  0.00000000000E+00  0.45593999997E+02  0.45594000000E+02  0.51100000000E-03 0. -1.
         11   -1    0    0    0    0 -0.00000000000E+00 -0.00000000000E+00 -0.45593999997E+02  0.45594000000E+02  0.51100000000E-03 0.  1.
    9900012    2    1    2    0    0 -0.36121687231E+02  0.19994964068E+02 -0.18014958350E+02  0.46142316513E+02  0.99999886149E+01 0.  0.
         12    1    1    2    0    0  0.36121687231E+02 -0.19994964068E+02  0.18014958350E+02  0.45045683487E+02  0.00000000000E+00 0. -1.
         11    1    3    3    0    0 -0.16735908701E+02  0.11423374901E+02 -0.48667724078E+01  0.20839136453E+02  0.51100000000E-03 0.  1.
        -11    1    3    3    0    0 -0.11704670014E+02  0.65471571061E+01 -0.10123982964E+02  0.16803559076E+02  0.51100000000E-03 0. -1.
         12    1    3    3    0    0 -0.76811085166E+01  0.20244320606E+01 -0.30242029778E+01  0.84996209834E+01  0.00000000000E+00 0. -1.
</event>
<event>
 7    1  0.4452647E-009  0.4614231E+02  0.7816164E-02  0.1320468E+00
        -11   -1    0    0    0    0  0.00000000000E+00  0.00000000000E+00  0.45593999997E+02  0.45594000000E+02  0.51100000000E-03 0. -1.
         11   -1    0    0    0    0 -0.00000000000E+00 -0.00000000000E+00 -0.45593999997E+02  0.45594000000E+02  0.51100000000E-03 0.  1.
    9900012    2    1    2    0    0  0.36648539202E+02 -0.20914748676E+02  0.15766180070E+02  0.46142305735E+02  0.99998903352E+01 0.  0.
        -12    1    1    2    0    0 -0.36648539202E+02  0.20914748676E+02 -0.15766180070E+02  0.45045694265E+02  0.00000000000E+00 0.  1.
         11    1    3    3    0    0  0.32716594945E+02 -0.18119810246E+02  0.11410600373E+02  0.39101213655E+02  0.51100000000E-03 0. -1.
        -11    1    3    3    0    0  0.29156016851E+00 -0.12657510627E+01  0.21673479304E+01  0.25267628296E+01  0.51100000000E-03 0.  1.
        -12    1    3    3    0    0  0.36403840883E+01 -0.15291873672E+01  0.21882317674E+01  0.45143292505E+01  0.00000000000E+00 0.  1.
</event>
<event>
 7    1  0.4452647E-009  0.4614232E+02  0.7816164E-02  0.1320468E+00
        -11   -1    0    0    0    0  0.00000000000E+00  0.00000000000E+00  0.45593999997E+02  0.45594000000E+02  0.51100000000E-03 0. -1.
         11   -1    0    0    0    0 -0.00000000000E+00 -0.00000000000E+00 -0.45593999997E+02  0.45594000000E+02  0.51100000000E-03 0.  1.
    9900012    2    1    2    0    0  0.25483057756E+02  0.19564456378E+01  0.37093120527E+02  0.46142317604E+02  0.99999985650E+01 0.  0.
        -12    1    1    2    0    0 -0.25483057756E+02 -0.19564456378E+01 -0.37093120527E+02  0.45045682396E+02  0.00000000000E+00 0.  1.
         11    1    3    3    0    0  0.51920368860E+01 -0.56441857304E+00  0.12267898571E+02  0.13333309827E+02  0.51100000000E-03 0. -1.
        -11    1    3    3    0    0  0.38769655859E+01  0.25456327036E+01  0.83565982486E+01  0.95573972694E+01  0.51100000000E-03 0.  1.
        -12    1    3    3    0    0  0.16414055284E+02 -0.24768492752E-01  0.16468623708E+02  0.23251610507E+02  0.00000000000E+00 0.  1.
</event>
<event>
 7    1  0.4452647E-009  0.4614232E+02  0.7816164E-02  0.1320468E+00
        -11   -1    0    0    0    0  0.00000000000E+00  0.00000000000E+00  0.45593999997E+02  0.45594000000E+02  0.51100000000E-03 0.  1.
         11   -1    0    0    0    0 -0.00000000000E+00 -0.00000000000E+00 -0.45593999997E+02  0.45594000000E+02  0.51100000000E-03 0. -1.
    9900012    2    1    2    0    0  0.42129190038E+02  0.13577996004E+02 -0.83595922208E+01  0.46142318621E+02  0.10000007845E+02 0.  0.
        -12    1    1    2    0    0 -0.42129190038E+02 -0.13577996004E+02  0.83595922208E+01  0.45045681379E+02  0.00000000000E+00 0.  1.
         11    1    3    3    0    0  0.21121631369E+02  0.94599514589E+01 -0.18323212169E+01  0.23215757464E+02  0.51100000000E-03 0. -1.
        -11    1    3    3    0    0  0.66655796959E+01  0.37132188643E+01 -0.22645384650E+01  0.79590251751E+01  0.51100000000E-03 0.  1.
         12    1    3    3    0    0  0.14341978973E+02  0.40482568055E+00 -0.42627325390E+01  0.14967535983E+02  0.00000000000E+00 0. -1.
</event>
<event>
 7    1  0.4452647E-009  0.4614232E+02  0.7816164E-02  0.1320468E+00
        -11   -1    0    0    0    0  0.00000000000E+00  0.00000000000E+00  0.45593999997E+02  0.45594000000E+02  0.51100000000E-03 0. -1.
         11   -1    0    0    0    0 -0.00000000000E+00 -0.00000000000E+00 -0.45593999997E+02  0.45594000000E+02  0.51100000000E-03 0.  1.
    9900012    2    1    2    0    0  0.42149472945E+01  0.19622146942E+02  0.40327646472E+02  0.46142317618E+02  0.99999986964E+01 0.  0.
        -12    1    1    2    0    0 -0.42149472945E+01 -0.19622146942E+02 -0.40327646472E+02  0.45045682382E+02  0.00000000000E+00 0.  1.
         11    1    3    3    0    0 -0.11040461505E+01  0.17920411883E+00  0.33882564087E+01  0.35680966594E+01  0.51100000000E-03 0. -1.
        -11    1    3    3    0    0  0.57360402462E+00  0.36739688753E+01  0.12974350048E+02  0.13496696940E+02  0.51100000000E-03 0.  1.
         12    1    3    3    0    0  0.47453894204E+01  0.15768973948E+02  0.23965040015E+02  0.29077524018E+02  0.00000000000E+00 0. -1.
</event>
<event>
 7    1  0.4452647E-009  0.4614232E+02  0.7816164E-02  0.1320468E+00
        -11   -1    0    0    0    0  0.00000000000E+00  0.00000000000E+00  0.45593999997E+02  0.45594000000E+02  0.51100000000E-03 0. -1.
         11   -1    0    0    0    0 -0.00000000000E+00 -0.00000000000E+00 -0.45593999997E+02  0.45594000000E+02  0.51100000000E-03 0.  1.
    9900012    2    1    2    0    0  0.18832592491E+02  0.85846230340E+01 -0.40009389507E+02  0.46142317174E+02  0.99999946450E+01 0.  0.
         12    1    1    2    0    0 -0.18832592491E+02 -0.85846230340E+01  0.40009389507E+02  0.45045682826E+02  0.00000000000E+00 0. -1.
         11    1    3    3    0    0  0.62229556610E+01  0.53862564131E+01 -0.81378309763E+01  0.11574162111E+02  0.51100000000E-03 0. -1.
        -11    1    3    3    0    0  0.92458926898E+01  0.37436732511E+01 -0.24038405998E+02  0.26025882967E+02  0.51100000000E-03 0.  1.
         12    1    3    3    0    0  0.33637441402E+01 -0.54530663018E+00 -0.78331525323E+01  0.85422720957E+01  0.00000000000E+00 0. -1.
</event>
<event>
 7    1  0.4452647E-009  0.4614232E+02  0.7816164E-02  0.1320468E+00
        -11   -1    0    0    0    0  0.00000000000E+00  0.00000000000E+00  0.45593999997E+02  0.45594000000E+02  0.51100000000E-03 0. -1.
         11   -1    0    0    0    0 -0.00000000000E+00 -0.00000000000E+00 -0.45593999997E+02  0.45594000000E+02  0.51100000000E-03 0.  1.
    9900012    2    1    2    0    0  0.28622964420E+02  0.66741158653E+00 -0.34776342475E+02  0.46142317339E+02  0.99999961533E+01 0.  0.
         12    1    1    2    0    0 -0.28622964420E+02 -0.66741158653E+00  0.34776342475E+02  0.45045682661E+02  0.00000000000E+00 0. -1.
         11    1    3    3    0    0  0.13540823038E+02  0.41132000276E+01 -0.19249077780E+02  0.23891406377E+02  0.51100000000E-03 0. -1.
        -11    1    3    3    0    0  0.39387233657E+01 -0.26753163270E+01 -0.43592631212E+01  0.64555429224E+01  0.51100000000E-03 0.  1.
        -12    1    3    3    0    0  0.11143418017E+02 -0.77047211405E+00 -0.11168001573E+02  0.15795368040E+02  0.00000000000E+00 0.  1.
</event>
<event>
 7    1  0.4452647E-009  0.4614232E+02  0.7816164E-02  0.1320468E+00
        -11   -1    0    0    0    0  0.00000000000E+00  0.00000000000E+00  0.45593999997E+02  0.45594000000E+02  0.51100000000E-03 0. -1.
         11   -1    0    0    0    0 -0.00000000000E+00 -0.00000000000E+00 -0.45593999997E+02  0.45594000000E+02  0.51100000000E-03 0.  1.
    9900012    2    1    2    0    0  0.37146039386E+02  0.16963105270E+01  0.25424550539E+02  0.46142317836E+02  0.10000000686E+02 0.  0.
        -12    1    1    2    0    0 -0.37146039386E+02 -0.16963105270E+01 -0.25424550539E+02  0.45045682164E+02  0.00000000000E+00 0.  1.
         11    1    3    3    0    0  0.36901775524E+01  0.69136475792E+00  0.56135403519E+01  0.67533126049E+01  0.51100000000E-03 0. -1.
        -11    1    3    3    0    0  0.17621796669E+02 -0.23377601003E+01  0.11758043960E+02  0.21313011006E+02  0.51100000000E-03 0.  1.
         12    1    3    3    0    0  0.15834065165E+02  0.33427058694E+01  0.80529662270E+01  0.18075994226E+02  0.00000000000E+00 0. -1.
</event>
<event>
 7    1  0.4452647E-009  0.4614232E+02  0.7816164E-02  0.1320468E+00
        -11   -1    0    0    0    0  0.00000000000E+00  0.00000000000E+00  0.45593999997E+02  0.45594000000E+02  0.51100000000E-03 0. -1.
         11   -1    0    0    0    0 -0.00000000000E+00 -0.00000000000E+00 -0.45593999997E+02  0.45594000000E+02  0.51100000000E-03 0.  1.
    9900012    2    1    2    0    0  0.16753849169E+02  0.21792670260E+02  0.35686154071E+02  0.46142317283E+02  0.99999956390E+01 0.  0.
        -12    1    1    2    0    0 -0.16753849169E+02 -0.21792670260E+02 -0.35686154071E+02  0.45045682717E+02  0.00000000000E+00 0.  1.
         11    1    3    3    0    0  0.75936571936E+01  0.47482789745E+01  0.13315993001E+02  0.16047599592E+02  0.51100000000E-03 0. -1.
        -11    1    3    3    0    0  0.17871157317E+01  0.27003013704E+00  0.20764180693E+01  0.27528550949E+01  0.51100000000E-03 0.  1.
         12    1    3    3    0    0  0.73730762437E+01  0.16774361149E+02  0.20293743001E+02  0.27341862596E+02  0.00000000000E+00 0. -1.
</event>
<event>
 7    1  0.4452647E-009  0.4614232E+02  0.7816164E-02  0.1320468E+00
        -11   -1    0    0    0    0  0.00000000000E+00  0.00000000000E+00  0.45593999997E+02  0.45594000000E+02  0.51100000000E-03 0.  1.
         11   -1    0    0    0    0 -0.00000000000E+00 -0.00000000000E+00 -0.45593999997E+02  0.45594000000E+02  0.51100000000E-03 0. -1.
    9900012    2    1    2    0    0 -0.30349359587E+02 -0.33243997773E+02 -0.16930710844E+01  0.46142317577E+02  0.99999983176E+01 0.  0.
        -12    1    1    2    0    0  0.30349359587E+02  0.33243997773E+02  0.16930710844E+01  0.45045682423E+02  0.00000000000E+00 0.  1.
         11    1    3    3    0    0 -0.13999624768E+02 -0.18749056995E+02  0.19994942993E+01  0.23484348182E+02  0.51100000000E-03 0. -1.
        -11    1    3    3    0    0 -0.72243403967E+01 -0.64171713182E+01 -0.40220164394E+01  0.10466508415E+02  0.51100000000E-03 0.  1.
        -12    1    3    3    0    0 -0.91253944227E+01 -0.80777694606E+01  0.32945105571E+00  0.12191460980E+02  0.00000000000E+00 0.  1.
</event>
<event>
 7    1  0.4452647E-009  0.4614232E+02  0.7816164E-02  0.1320468E+00
        -11   -1    0    0    0    0  0.00000000000E+00  0.00000000000E+00  0.45593999997E+02  0.45594000000E+02  0.51100000000E-03 0. -1.
         11   -1    0    0    0    0 -0.00000000000E+00 -0.00000000000E+00 -0.45593999997E+02  0.45594000000E+02  0.51100000000E-03 0.  1.
    9900012    2    1    2    0    0  0.20753202700E+02  0.96996597342E+01  0.38785750534E+02  0.46142320232E+02  0.10000022532E+02 0.  0.
        -12    1    1    2    0    0 -0.20753202700E+02 -0.96996597342E+01 -0.38785750534E+02  0.45045679768E+02  0.00000000000E+00 0.  1.
         11    1    3    3    0    0  0.11965519779E+02  0.91079885174E+00  0.18234391478E+02  0.21828794080E+02  0.51100000000E-03 0. -1.
        -11    1    3    3    0    0  0.31682787301E+01  0.50751029446E+01  0.72164378829E+01  0.93739871981E+01  0.51100000000E-03 0.  1.
        -12    1    3    3    0    0  0.56194041910E+01  0.37137579378E+01  0.13334921173E+02  0.14939538954E+02  0.00000000000E+00 0.  1.
</event>
<event>
 7    1  0.4452647E-009  0.4614232E+02  0.7816164E-02  0.1320468E+00
        -11   -1    0    0    0    0  0.00000000000E+00  0.00000000000E+00  0.45593999997E+02  0.45594000000E+02  0.51100000000E-03 0.  1.
         11   -1    0    0    0    0 -0.00000000000E+00 -0.00000000000E+00 -0.45593999997E+02  0.45594000000E+02  0.51100000000E-03 0. -1.
    9900012    2    1    2    0    0  0.37375753681E+02  0.23661711906E+02  0.85023372873E+01  0.46142319709E+02  0.10000017765E+02 0.  0.
         12    1    1    2    0    0 -0.37375753681E+02 -0.23661711906E+02 -0.85023372873E+01  0.45045680291E+02  0.00000000000E+00 0. -1.
         11    1    3    3    0    0  0.17161524454E+01 -0.62679744412E+00 -0.67094703637E+00  0.19463361577E+01  0.51100000000E-03 0. -1.
        -11    1    3    3    0    0  0.90248598839E+01  0.50327782084E+01  0.29449761381E+01  0.10744758589E+02  0.51100000000E-03 0.  1.
         12    1    3    3    0    0  0.26634741351E+02  0.19255731142E+02  0.62283081856E+01  0.33451224963E+02  0.00000000000E+00 0. -1.
</event>
<event>
 7    1  0.4452647E-009  0.4614232E+02  0.7816164E-02  0.1320468E+00
        -11   -1    0    0    0    0  0.00000000000E+00  0.00000000000E+00  0.45593999997E+02  0.45594000000E+02  0.51100000000E-03 0. -1.
         11   -1    0    0    0    0 -0.00000000000E+00 -0.00000000000E+00 -0.45593999997E+02  0.45594000000E+02  0.51100000000E-03 0.  1.
    9900012    2    1    2    0    0  0.92941964804E+01  0.92404920893E+01 -0.43096921557E+02  0.46142318409E+02  0.10000005912E+02 0.  0.
         12    1    1    2    0    0 -0.92941964804E+01 -0.92404920893E+01  0.43096921557E+02  0.45045681591E+02  0.00000000000E+00 0. -1.
         11    1    3    3    0    0 -0.36720965522E+00  0.40637199513E+01 -0.12177043795E+02  0.12842470892E+02  0.51100000000E-03 0. -1.
        -11    1    3    3    0    0  0.45348117934E+01  0.56040848636E+01 -0.18682406630E+02  0.20025049386E+02  0.51100000000E-03 0.  1.
         12    1    3    3    0    0  0.51265943422E+01 -0.42731272557E+00 -0.12237471132E+02  0.13274798131E+02  0.00000000000E+00 0. -1.
</event>
<event>
 7    1  0.4452647E-009  0.4614232E+02  0.7816164E-02  0.1320468E+00
        -11   -1    0    0    0    0  0.00000000000E+00  0.00000000000E+00  0.45593999997E+02  0.45594000000E+02  0.51100000000E-03 0. -1.
         11   -1    0    0    0    0 -0.00000000000E+00 -0.00000000000E+00 -0.45593999997E+02  0.45594000000E+02  0.51100000000E-03 0.  1.
    9900012    2    1    2    0    0  0.38996565490E+02 -0.11573231133E+02 -0.19350492988E+02  0.46142318989E+02  0.10000011199E+02 0.  0.
         12    1    1    2    0    0 -0.38996565490E+02  0.11573231133E+02  0.19350492988E+02  0.45045681011E+02  0.00000000000E+00 0. -1.
         11    1    3    3    0    0  0.70249436988E+01 -0.25044299538E+00 -0.58202915531E+01  0.91262451035E+01  0.51100000000E-03 0. -1.
        -11    1    3    3    0    0  0.10649465316E+02 -0.14476596460E+01 -0.23843645054E+01  0.11008724918E+02  0.51100000000E-03 0.  1.
        -12    1    3    3    0    0  0.21322156475E+02 -0.98751284915E+01 -0.11145836929E+02  0.26007348968E+02  0.00000000000E+00 0.  1.
</event>
<event>
 7    1  0.4452647E-009  0.4614233E+02  0.7816164E-02  0.1320468E+00
        -11   -1    0    0    0    0  0.00000000000E+00  0.00000000000E+00  0.45593999997E+02  0.45594000000E+02  0.51100000000E-03 0. -1.
         11   -1    0    0    0    0 -0.00000000000E+00 -0.00000000000E+00 -0.45593999997E+02  0.45594000000E+02  0.51100000000E-03 0.  1.
    9900012    2    1    2    0    0 -0.66668772453E+01  0.33738298918E+02 -0.29092830175E+02  0.46142325028E+02  0.10000066268E+02 0.  0.
         12    1    1    2    0    0  0.66668772453E+01 -0.33738298918E+02  0.29092830175E+02  0.45045674972E+02  0.00000000000E+00 0. -1.
         11    1    3    3    0    0 -0.30123165233E+01  0.25346221248E+02 -0.22282139415E+02  0.33882129796E+02  0.51100000000E-03 0.  1.
        -11    1    3    3    0    0 -0.35564888469E+01  0.26142528008E+01 -0.28338686911E+01  0.52453543869E+01  0.51100000000E-03 0. -1.
        -12    1    3    3    0    0 -0.98071875124E-01  0.57778248695E+01 -0.39768220688E+01  0.70148408451E+01  0.00000000000E+00 0.  1.
</event>
<event>
 7    1  0.4452647E-009  0.4614232E+02  0.7816164E-02  0.1320468E+00
        -11   -1    0    0    0    0  0.00000000000E+00  0.00000000000E+00  0.45593999997E+02  0.45594000000E+02  0.51100000000E-03 0. -1.
         11   -1    0    0    0    0 -0.00000000000E+00 -0.00000000000E+00 -0.45593999997E+02  0.45594000000E+02  0.51100000000E-03 0.  1.
    9900012    2    1    2    0    0 -0.17768784063E+01  0.33363285442E+02 -0.30213363491E+02  0.46142318234E+02  0.10000004308E+02 0.  0.
         12    1    1    2    0    0  0.17768784063E+01 -0.33363285442E+02  0.30213363491E+02  0.45045681766E+02  0.00000000000E+00 0. -1.
         11    1    3    3    0    0 -0.14922514057E+01  0.42292305010E+01 -0.77319179650E+00  0.45509373434E+01  0.51100000000E-03 0. -1.
        -11    1    3    3    0    0  0.99909310246E+00  0.24781354603E+02 -0.25638414246E+02  0.35671305110E+02  0.51100000000E-03 0.  1.
        -12    1    3    3    0    0 -0.12837201031E+01  0.43527003385E+01 -0.38017574487E+01  0.59200757798E+01  0.00000000000E+00 0.  1.
</event>
<event>
 7    1  0.4452647E-009  0.4614232E+02  0.7816164E-02  0.1320468E+00
        -11   -1    0    0    0    0  0.00000000000E+00  0.00000000000E+00  0.45593999997E+02  0.45594000000E+02  0.51100000000E-03 0. -1.
         11   -1    0    0    0    0 -0.00000000000E+00 -0.00000000000E+00 -0.45593999997E+02  0.45594000000E+02  0.51100000000E-03 0.  1.
    9900012    2    1    2    0    0  0.39121109071E+02  0.43402201200E+01  0.21904676318E+02  0.46142317297E+02  0.99999957650E+01 0.  0.
        -12    1    1    2    0    0 -0.39121109071E+02 -0.43402201200E+01 -0.21904676318E+02  0.45045682703E+02  0.00000000000E+00 0.  1.
         11    1    3    3    0    0  0.24481295002E+02  0.13463530573E+01  0.11056458328E+02  0.26895942864E+02  0.51100000000E-03 0. -1.
        -11    1    3    3    0    0  0.14514924703E+02  0.35455986730E+01  0.93036710348E+01  0.17601494371E+02  0.51100000000E-03 0.  1.
         12    1    3    3    0    0  0.12488936608E+00 -0.55173161030E+00  0.15445469551E+01  0.16448800626E+01  0.00000000000E+00 0. -1.
</event>
<event>
 7    1  0.4452647E-009  0.4614232E+02  0.7816164E-02  0.1320468E+00
        -11   -1    0    0    0    0  0.00000000000E+00  0.00000000000E+00  0.45593999997E+02  0.45594000000E+02  0.51100000000E-03 0. -1.
         11   -1    0    0    0    0 -0.00000000000E+00 -0.00000000000E+00 -0.45593999997E+02  0.45594000000E+02  0.51100000000E-03 0.  1.
    9900012    2    1    2    0    0 -0.21757685663E+02 -0.21607167368E+02 -0.32997681310E+02  0.46142317200E+02  0.99999948842E+01 0.  0.
         12    1    1    2    0    0  0.21757685663E+02  0.21607167368E+02  0.32997681310E+02  0.45045682800E+02  0.00000000000E+00 0. -1.
         11    1    3    3    0    0 -0.14744655445E+01 -0.13528004430E+01 -0.13584159355E+01  0.24185557251E+01  0.51100000000E-03 0. -1.
        -11    1    3    3    0    0 -0.16665125747E+01 -0.34291633060E+01 -0.68101820546E+00  0.38730106117E+01  0.51100000000E-03 0.  1.
        -12    1    3    3    0    0 -0.18616707543E+02 -0.16825203619E+02 -0.30958247169E+02  0.39850750863E+02  0.00000000000E+00 0.  1.
</event>
<event>
 7    1  0.4452647E-009  0.4614232E+02  0.7816164E-02  0.1320468E+00
        -11   -1    0    0    0    0  0.00000000000E+00  0.00000000000E+00  0.45593999997E+02  0.45594000000E+02  0.51100000000E-03 0. -1.
         11   -1    0    0    0    0 -0.00000000000E+00 -0.00000000000E+00 -0.45593999997E+02  0.45594000000E+02  0.51100000000E-03 0.  1.
    9900012    2    1    2    0    0 -0.24850780651E+02  0.35428937991E+02 -0.12503702357E+02  0.46142317424E+02  0.99999969228E+01 0.  0.
         12    1    1    2    0    0  0.24850780651E+02 -0.35428937991E+02  0.12503702357E+02  0.45045682576E+02  0.00000000000E+00 0. -1.
         11    1    3    3    0    0 -0.68305112481E+00 -0.32019270569E+00 -0.21776332933E+00  0.78517726444E+00  0.51100000000E-03 0.  1.
        -11    1    3    3    0    0 -0.10880706104E+02  0.17402786073E+02 -0.92128754711E+01  0.22497195451E+02  0.51100000000E-03 0. -1.
        -12    1    3    3    0    0 -0.13287023422E+02  0.18346344623E+02 -0.30730635570E+01  0.22859944708E+02  0.00000000000E+00 0.  1.
</event>
<event>
 7    1  0.4452647E-009  0.4614232E+02  0.7816164E-02  0.1320468E+00
        -11   -1    0    0    0    0  0.00000000000E+00  0.00000000000E+00  0.45593999997E+02  0.45594000000E+02  0.51100000000E-03 0. -1.
         11   -1    0    0    0    0 -0.00000000000E+00 -0.00000000000E+00 -0.45593999997E+02  0.45594000000E+02  0.51100000000E-03 0.  1.
    9900012    2    1    2    0    0 -0.36518974864E+02  0.12808370944E+02 -0.23052624711E+02  0.46142318770E+02  0.10000009201E+02 0.  0.
         12    1    1    2    0    0  0.36518974864E+02 -0.12808370944E+02  0.23052624711E+02  0.45045681230E+02  0.00000000000E+00 0. -1.
         11    1    3    3    0    0 -0.13168030678E+02  0.49752173798E+01 -0.37139559915E+01  0.14558272194E+02  0.51100000000E-03 0. -1.
        -11    1    3    3    0    0 -0.19963583679E+02  0.60607139828E+01 -0.14453233349E+02  0.25380561101E+02  0.51100000000E-03 0.  1.
        -12    1    3    3    0    0 -0.33873605071E+01  0.17724395813E+01 -0.48854353707E+01  0.62034854748E+01  0.00000000000E+00 0.  1.
</event>
<event>
 7    1  0.4452647E-009  0.4614232E+02  0.7816164E-02  0.1320468E+00
        -11   -1    0    0    0    0  0.00000000000E+00  0.00000000000E+00  0.45593999997E+02  0.45594000000E+02  0.51100000000E-03 0. -1.
         11   -1    0    0    0    0 -0.00000000000E+00 -0.00000000000E+00 -0.45593999997E+02  0.45594000000E+02  0.51100000000E-03 0.  1.
    9900012    2    1    2    0    0  0.30565620105E+02  0.11393772485E+01  0.33068991652E+02  0.46142317390E+02  0.99999966201E+01 0.  0.
        -12    1    1    2    0    0 -0.30565620105E+02 -0.11393772485E+01 -0.33068991652E+02  0.45045682610E+02  0.00000000000E+00 0.  1.
         11    1    3    3    0    0  0.15070863198E+01 -0.23490886859E+01  0.38351932969E+01  0.47432304093E+01  0.51100000000E-03 0.  1.
        -11    1    3    3    0    0  0.24417126228E+02  0.33187461454E+01  0.23927800433E+02  0.34347485542E+02  0.51100000000E-03 0. -1.
        -12    1    3    3    0    0  0.46414075567E+01  0.16971978900E+00  0.53059979214E+01  0.70516014391E+01  0.00000000000E+00 0.  1.
</event>
<event>
 7    1  0.5027429E-009  0.4614232E+02  0.7816164E-02  0.1320468E+00
        -11   -1    0    0    0    0  0.00000000000E+00  0.00000000000E+00  0.45593999997E+02  0.45594000000E+02  0.51100000000E-03 0. -1.
         11   -1    0    0    0    0 -0.00000000000E+00 -0.00000000000E+00 -0.45593999997E+02  0.45594000000E+02  0.51100000000E-03 0.  1.
    9900012    2    1    2    0    0 -0.21128564996E+02 -0.88869144908E+01  0.38777828169E+02  0.46142318015E+02  0.10000002316E+02 0.  0.
        -12    1    1    2    0    0  0.21128564996E+02  0.88869144908E+01 -0.38777828169E+02  0.45045681985E+02  0.00000000000E+00 0.  1.
         11    1    3    3    0    0 -0.47178395993E+01 -0.61146421121E+01  0.13633588271E+02  0.15669128504E+02  0.51100000000E-03 0. -1.
        -11    1    3    3    0    0 -0.45849480493E+01 -0.24974642476E+00  0.38806738114E+01  0.60119673471E+01  0.51100000000E-03 0.  1.
         12    1    3    3    0    0 -0.11825777347E+02 -0.25225259540E+01  0.21263566087E+02  0.24461222164E+02  0.00000000000E+00 0. -1.
</event>
<event>
 7    1  0.4452647E-009  0.4614232E+02  0.7816164E-02  0.1320468E+00
        -11   -1    0    0    0    0  0.00000000000E+00  0.00000000000E+00  0.45593999997E+02  0.45594000000E+02  0.51100000000E-03 0. -1.
         11   -1    0    0    0    0 -0.00000000000E+00 -0.00000000000E+00 -0.45593999997E+02  0.45594000000E+02  0.51100000000E-03 0.  1.
    9900012    2    1    2    0    0  0.12534642870E+02 -0.26580657246E+02  0.34138905575E+02  0.46142317795E+02  0.10000000306E+02 0.  0.
        -12    1    1    2    0    0 -0.12534642870E+02  0.26580657246E+02 -0.34138905575E+02  0.45045682205E+02  0.00000000000E+00 0.  1.
         11    1    3    3    0    0  0.10882485144E+02 -0.16085740833E+02  0.19024835647E+02  0.27186833444E+02  0.51100000000E-03 0. -1.
        -11    1    3    3    0    0  0.17571766012E+01 -0.66312206776E+01  0.12594597299E+02  0.14341709754E+02  0.51100000000E-03 0.  1.
        -12    1    3    3    0    0 -0.10501887589E+00 -0.38636957356E+01  0.25194726287E+01  0.46137745967E+01  0.00000000000E+00 0.  1.
</event>
<event>
 7    1  0.4452647E-009  0.4614232E+02  0.7816164E-02  0.1320468E+00
        -11   -1    0    0    0    0  0.00000000000E+00  0.00000000000E+00  0.45593999997E+02  0.45594000000E+02  0.51100000000E-03 0. -1.
         11   -1    0    0    0    0 -0.00000000000E+00 -0.00000000000E+00 -0.45593999997E+02  0.45594000000E+02  0.51100000000E-03 0.  1.
    9900012    2    1    2    0    0 -0.98045958453E+01  0.21137326757E+02  0.38551224361E+02  0.46142316723E+02  0.99999905358E+01 0.  0.
        -12    1    1    2    0    0  0.98045958453E+01 -0.21137326757E+02 -0.38551224361E+02  0.45045683277E+02  0.00000000000E+00 0.  1.
         11    1    3    3    0    0 -0.44487607025E+01  0.35357162684E+01  0.10066643241E+02  0.11559847219E+02  0.51100000000E-03 0. -1.
        -11    1    3    3    0    0 -0.70976391421E+00 -0.64127415728E-01 -0.36247189552E-01  0.71357638641E+00  0.51100000000E-03 0.  1.
         12    1    3    3    0    0 -0.46460712285E+01  0.17665737905E+02  0.28520828310E+02  0.33868893118E+02  0.00000000000E+00 0. -1.
</event>
<event>
 7    1  0.4452647E-009  0.4614232E+02  0.7816164E-02  0.1320468E+00
        -11   -1    0    0    0    0  0.00000000000E+00  0.00000000000E+00  0.45593999997E+02  0.45594000000E+02  0.51100000000E-03 0. -1.
         11   -1    0    0    0    0 -0.00000000000E+00 -0.00000000000E+00 -0.45593999997E+02  0.45594000000E+02  0.51100000000E-03 0.  1.
    9900012    2    1    2    0    0  0.80251308277E+01  0.26357791678E+01  0.44246620586E+02  0.46142317744E+02  0.99999998445E+01 0.  0.
        -12    1    1    2    0    0 -0.80251308277E+01 -0.26357791678E+01 -0.44246620586E+02  0.45045682256E+02  0.00000000000E+00 0.  1.
         11    1    3    3    0    0  0.89750062800E+01  0.14455035697E+01  0.32268534013E+02  0.33524595537E+02  0.51100000000E-03 0. -1.
        -11    1    3    3    0    0 -0.36056495055E+00 -0.39252210503E+00  0.10010451881E+02  0.10024631056E+02  0.51100000000E-03 0.  1.
         12    1    3    3    0    0 -0.58931050172E+00  0.15827977032E+01  0.19676346912E+01  0.25930911504E+01  0.00000000000E+00 0. -1.
</event>
<event>
 7    1  0.5584198E-009  0.4614232E+02  0.7816164E-02  0.1320468E+00
        -11   -1    0    0    0    0  0.00000000000E+00  0.00000000000E+00  0.45593999997E+02  0.45594000000E+02  0.51100000000E-03 0. -1.
         11   -1    0    0    0    0 -0.00000000000E+00 -0.00000000000E+00 -0.45593999997E+02  0.45594000000E+02  0.51100000000E-03 0.  1.
    9900012    2    1    2    0    0 -0.85245684430E+01 -0.24304819698E+02  0.36955661648E+02  0.46142318125E+02  0.10000003321E+02 0.  0.
        -12    1    1    2    0    0  0.85245684430E+01  0.24304819698E+02 -0.36955661648E+02  0.45045681875E+02  0.00000000000E+00 0.  1.
         11    1    3    3    0    0 -0.90624749543E+01 -0.16929826275E+02  0.29579763551E+02  0.35266271167E+02  0.51100000000E-03 0. -1.
        -11    1    3    3    0    0  0.11802423731E+01 -0.28370386985E+01  0.45542997109E+01  0.54939427330E+01  0.51100000000E-03 0.  1.
         12    1    3    3    0    0 -0.64233586188E+00 -0.45379547246E+01  0.28215983858E+01  0.53821042253E+01  0.00000000000E+00 0. -1.
</event>
<event>
 7    1  0.4452647E-009  0.4614232E+02  0.7816164E-02  0.1320468E+00
        -11   -1    0    0    0    0  0.00000000000E+00  0.00000000000E+00  0.45593999997E+02  0.45594000000E+02  0.51100000000E-03 0. -1.
         11   -1    0    0    0    0 -0.00000000000E+00 -0.00000000000E+00 -0.45593999997E+02  0.45594000000E+02  0.51100000000E-03 0.  1.
    9900012    2    1    2    0    0 -0.35626655384E+02  0.15543160082E+02 -0.22765430078E+02  0.46142320897E+02  0.10000028595E+02 0.  0.
         12    1    1    2    0    0  0.35626655384E+02 -0.15543160082E+02  0.22765430078E+02  0.45045679103E+02  0.00000000000E+00 0. -1.
         11    1    3    3    0    0 -0.17023807825E+02  0.40169645899E+01 -0.64153690742E+01  0.18630700417E+02  0.51100000000E-03 0.  1.
        -11    1    3    3    0    0 -0.12019694022E+01  0.18247216872E+01 -0.12907008518E+01  0.25377644945E+01  0.51100000000E-03 0. -1.
        -12    1    3    3    0    0 -0.17400878157E+02  0.97014738047E+01 -0.15059360152E+02  0.24973855986E+02  0.00000000000E+00 0.  1.
</event>
<event>
 7    1  0.4452647E-009  0.4614232E+02  0.7816164E-02  0.1320468E+00
        -11   -1    0    0    0    0  0.00000000000E+00  0.00000000000E+00  0.45593999997E+02  0.45594000000E+02  0.51100000000E-03 0. -1.
         11   -1    0    0    0    0 -0.00000000000E+00 -0.00000000000E+00 -0.45593999997E+02  0.45594000000E+02  0.51100000000E-03 0.  1.
    9900012    2    1    2    0    0  0.30232174325E+02  0.78237630256E+00 -0.33384381381E+02  0.46142318772E+02  0.10000009216E+02 0.  0.
         12    1    1    2    0    0 -0.30232174325E+02 -0.78237630256E+00  0.33384381381E+02  0.45045681228E+02  0.00000000000E+00 0. -1.
         11    1    3    3    0    0  0.13984400303E+02 -0.22970473836E+01 -0.11108704816E+02  0.18006754329E+02  0.51100000000E-03 0. -1.
        -11    1    3    3    0    0  0.42163358440E+00  0.94597827667E+00 -0.25748752449E+01  0.27753617003E+01  0.51100000000E-03 0.  1.
        -12    1    3    3    0    0  0.15826140438E+02  0.21334454095E+01 -0.19700801320E+02  0.25360202742E+02  0.00000000000E+00 0.  1.
</event>
<event>
 7    1  0.4452647E-009  0.4614232E+02  0.7816164E-02  0.1320468E+00
        -11   -1    0    0    0    0  0.00000000000E+00  0.00000000000E+00  0.45593999997E+02  0.45594000000E+02  0.51100000000E-03 0. -1.
         11   -1    0    0    0    0 -0.00000000000E+00 -0.00000000000E+00 -0.45593999997E+02  0.45594000000E+02  0.51100000000E-03 0.  1.
    9900012    2    1    2    0    0 -0.89587436395E+01 -0.20987439637E+02 -0.38837893650E+02  0.46142315487E+02  0.99999792595E+01 0.  0.
         12    1    1    2    0    0  0.89587436395E+01  0.20987439637E+02  0.38837893650E+02  0.45045684513E+02  0.00000000000E+00 0. -1.
         11    1    3    3    0    0 -0.40292169603E+01 -0.45472946165E+01 -0.56344116683E+01  0.82860770423E+01  0.51100000000E-03 0. -1.
        -11    1    3    3    0    0 -0.76062041034E+00  0.37422033042E+00 -0.12790793440E+01  0.15344798773E+01  0.51100000000E-03 0.  1.
        -12    1    3    3    0    0 -0.41689062689E+01 -0.16814365350E+02 -0.31924402638E+02  0.36321758567E+02  0.00000000000E+00 0.  1.
</event>
<event>
 7    1  0.4452647E-009  0.4614232E+02  0.7816164E-02  0.1320468E+00
        -11   -1    0    0    0    0  0.00000000000E+00  0.00000000000E+00  0.45593999997E+02  0.45594000000E+02  0.51100000000E-03 0. -1.
         11   -1    0    0    0    0 -0.00000000000E+00 -0.00000000000E+00 -0.45593999997E+02  0.45594000000E+02  0.51100000000E-03 0.  1.
    9900012    2    1    2    0    0  0.22084821494E+02  0.31880134920E+02 -0.22913556878E+02  0.46142318390E+02  0.10000005733E+02 0.  0.
         12    1    1    2    0    0 -0.22084821494E+02 -0.31880134920E+02  0.22913556878E+02  0.45045681610E+02  0.00000000000E+00 0. -1.
         11    1    3    3    0    0  0.90333418089E+01  0.19479654919E+02 -0.11426324548E+02  0.24323221681E+02  0.51100000000E-03 0. -1.
        -11    1    3    3    0    0  0.11221574021E+02  0.10716846285E+02 -0.11530666217E+02  0.19332117873E+02  0.51100000000E-03 0.  1.
         12    1    3    3    0    0  0.18299056637E+01  0.16836337161E+01  0.43433886066E-01  0.24869788360E+01  0.00000000000E+00 0. -1.
</event>
<event>
 7    1  0.4452647E-009  0.4614232E+02  0.7816164E-02  0.1320468E+00
        -11   -1    0    0    0    0  0.00000000000E+00  0.00000000000E+00  0.45593999997E+02  0.45594000000E+02  0.51100000000E-03 0. -1.
         11   -1    0    0    0    0 -0.00000000000E+00 -0.00000000000E+00 -0.45593999997E+02  0.45594000000E+02  0.51100000000E-03 0.  1.
    9900012    2    1    2    0    0 -0.30412123537E+02  0.25923949400E+02 -0.20788580025E+02  0.46142317966E+02  0.10000001866E+02 0.  0.
         12    1    1    2    0    0  0.30412123537E+02 -0.25923949400E+02  0.20788580025E+02  0.45045682034E+02  0.00000000000E+00 0. -1.
         11    1    3    3    0    0 -0.59467413481E+01  0.25351806320E+01 -0.52675119653E+00  0.64860111457E+01  0.51100000000E-03 0. -1.
        -11    1    3    3    0    0 -0.17280276502E+02  0.14416801499E+02 -0.12028669585E+02  0.25517464876E+02  0.51100000000E-03 0.  1.
         12    1    3    3    0    0 -0.71851056869E+01  0.89719672682E+01 -0.82331592431E+01  0.14138841944E+02  0.00000000000E+00 0. -1.
</event>
<event>
 7    1  0.4452647E-009  0.4614232E+02  0.7816164E-02  0.1320468E+00
        -11   -1    0    0    0    0  0.00000000000E+00  0.00000000000E+00  0.45593999997E+02  0.45594000000E+02  0.51100000000E-03 0. -1.
         11   -1    0    0    0    0 -0.00000000000E+00 -0.00000000000E+00 -0.45593999997E+02  0.45594000000E+02  0.51100000000E-03 0.  1.
    9900012    2    1    2    0    0 -0.30823457049E+02 -0.19946771943E+02 -0.26098935682E+02  0.46142315866E+02  0.99999827151E+01 0.  0.
         12    1    1    2    0    0  0.30823457049E+02  0.19946771943E+02  0.26098935682E+02  0.45045684134E+02  0.00000000000E+00 0. -1.
         11    1    3    3    0    0 -0.13728503295E+02 -0.42491795466E+01 -0.98883298053E+01  0.17444380074E+02  0.51100000000E-03 0. -1.
        -11    1    3    3    0    0 -0.16401884177E+02 -0.14048809238E+02 -0.13559769065E+02  0.25500160449E+02  0.51100000000E-03 0.  1.
        -12    1    3    3    0    0 -0.69306957673E+00 -0.16487831580E+01 -0.26508368125E+01  0.31977753434E+01  0.00000000000E+00 0.  1.
</event>
<event>
 7    1  0.4452647E-009  0.4614232E+02  0.7816164E-02  0.1320468E+00
        -11   -1    0    0    0    0  0.00000000000E+00  0.00000000000E+00  0.45593999997E+02  0.45594000000E+02  0.51100000000E-03 0. -1.
         11   -1    0    0    0    0 -0.00000000000E+00 -0.00000000000E+00 -0.45593999997E+02  0.45594000000E+02  0.51100000000E-03 0.  1.
    9900012    2    1    2    0    0  0.15402439890E+02 -0.12801337554E+02 -0.40348533277E+02  0.46142317240E+02  0.99999952453E+01 0.  0.
         12    1    1    2    0    0 -0.15402439890E+02  0.12801337554E+02  0.40348533277E+02  0.45045682760E+02  0.00000000000E+00 0. -1.
         11    1    3    3    0    0  0.51777826529E+01 -0.28764745797E+01 -0.21584707197E+02  0.22382652306E+02  0.51100000000E-03 0. -1.
        -11    1    3    3    0    0  0.74973319827E+01 -0.75241294326E+01 -0.15954354718E+02  0.19166740602E+02  0.51100000000E-03 0.  1.
         12    1    3    3    0    0  0.27273252548E+01 -0.24007335416E+01 -0.28094713619E+01  0.45929243317E+01  0.00000000000E+00 0. -1.
</event>
<event>
 7    1  0.4452647E-009  0.4614232E+02  0.7816164E-02  0.1320468E+00
        -11   -1    0    0    0    0  0.00000000000E+00  0.00000000000E+00  0.45593999997E+02  0.45594000000E+02  0.51100000000E-03 0. -1.
         11   -1    0    0    0    0 -0.00000000000E+00 -0.00000000000E+00 -0.45593999997E+02  0.45594000000E+02  0.51100000000E-03 0.  1.
    9900012    2    1    2    0    0  0.13234973913E+01 -0.25462010924E+02 -0.37135534567E+02  0.46142316820E+02  0.99999914151E+01 0.  0.
         12    1    1    2    0    0 -0.13234973913E+01  0.25462010924E+02  0.37135534567E+02  0.45045683180E+02  0.00000000000E+00 0. -1.
         11    1    3    3    0    0 -0.37305068646E+01 -0.94841648306E+01 -0.14969391947E+02  0.18109355580E+02  0.51100000000E-03 0. -1.
        -11    1    3    3    0    0  0.32717526631E+01 -0.14210663892E+02 -0.17956142683E+02  0.23131588663E+02  0.51100000000E-03 0.  1.
         12    1    3    3    0    0  0.17822515928E+01 -0.17671822011E+01 -0.42099999366E+01  0.49013725769E+01  0.00000000000E+00 0. -1.
</event>
<event>
 7    1  0.4452647E-009  0.4614232E+02  0.7816164E-02  0.1320468E+00
        -11   -1    0    0    0    0  0.00000000000E+00  0.00000000000E+00  0.45593999997E+02  0.45594000000E+02  0.51100000000E-03 0. -1.
         11   -1    0    0    0    0 -0.00000000000E+00 -0.00000000000E+00 -0.45593999997E+02  0.45594000000E+02  0.51100000000E-03 0.  1.
    9900012    2    1    2    0    0 -0.47152310363E+01 -0.11685101176E+02 -0.43247410111E+02  0.46142317915E+02  0.10000001405E+02 0.  0.
         12    1    1    2    0    0  0.47152310363E+01  0.11685101176E+02  0.43247410111E+02  0.45045682085E+02  0.00000000000E+00 0. -1.
         11    1    3    3    0    0 -0.56969301385E+01 -0.60738085161E+01 -0.23847250151E+02  0.25259404247E+02  0.51100000000E-03 0. -1.
        -11    1    3    3    0    0 -0.43433917148E+00 -0.56752724274E+01 -0.18046763038E+02  0.18923081780E+02  0.51100000000E-03 0.  1.
         12    1    3    3    0    0  0.14160382737E+01  0.63979767521E-01 -0.13533969224E+01  0.19598318889E+01  0.00000000000E+00 0. -1.
</event>
<event>
 7    1  0.4452647E-009  0.4614232E+02  0.7816164E-02  0.1320468E+00
        -11   -1    0    0    0    0  0.00000000000E+00  0.00000000000E+00  0.45593999997E+02  0.45594000000E+02  0.51100000000E-03 0. -1.
         11   -1    0    0    0    0 -0.00000000000E+00 -0.00000000000E+00 -0.45593999997E+02  0.45594000000E+02  0.51100000000E-03 0.  1.
    9900012    2    1    2    0    0 -0.13174604617E+01  0.31821401817E+02  0.31855552433E+02  0.46142317227E+02  0.99999951327E+01 0.  0.
        -12    1    1    2    0    0  0.13174604617E+01 -0.31821401817E+02 -0.31855552433E+02  0.45045682773E+02  0.00000000000E+00 0.  1.
         11    1    3    3    0    0  0.19183108465E+01  0.25881872361E+02  0.25040139793E+02  0.36063275427E+02  0.51100000000E-03 0. -1.
        -11    1    3    3    0    0 -0.27421410079E+01  0.62424104714E+01  0.60222947807E+01  0.90969808446E+01  0.51100000000E-03 0.  1.
        -12    1    3    3    0    0 -0.49363030028E+00 -0.30288101517E+00  0.79311785939E+00  0.98206095615E+00  0.00000000000E+00 0.  1.
</event>
<event>
 7    1  0.4452647E-009  0.4614232E+02  0.7816164E-02  0.1320468E+00
        -11   -1    0    0    0    0  0.00000000000E+00  0.00000000000E+00  0.45593999997E+02  0.45594000000E+02  0.51100000000E-03 0. -1.
         11   -1    0    0    0    0 -0.00000000000E+00 -0.00000000000E+00 -0.45593999997E+02  0.45594000000E+02  0.51100000000E-03 0.  1.
    9900012    2    1    2    0    0  0.12577954474E+02  0.84324768133E+01  0.42424074111E+02  0.46142315765E+02  0.99999818004E+01 0.  0.
        -12    1    1    2    0    0 -0.12577954474E+02 -0.84324768133E+01 -0.42424074111E+02  0.45045684235E+02  0.00000000000E+00 0.  1.
         11    1    3    3    0    0  0.70301894083E+01  0.32954247871E+01  0.27203240740E+02  0.28289568654E+02  0.51100000000E-03 0. -1.
        -11    1    3    3    0    0  0.54825040390E+01  0.54858215450E+01  0.10172038556E+02  0.12791499412E+02  0.51100000000E-03 0.  1.
        -12    1    3    3    0    0  0.65261026985E-01 -0.34876951877E+00  0.50487948159E+01  0.50612476991E+01  0.00000000000E+00 0.  1.
</event>
<event>
 7    1  0.4452647E-009  0.4614232E+02  0.7816164E-02  0.1320468E+00
        -11   -1    0    0    0    0  0.00000000000E+00  0.00000000000E+00  0.45593999997E+02  0.45594000000E+02  0.51100000000E-03 0.  1.
         11   -1    0    0    0    0 -0.00000000000E+00 -0.00000000000E+00 -0.45593999997E+02  0.45594000000E+02  0.51100000000E-03 0. -1.
    9900012    2    1    2    0    0 -0.32609821465E+02  0.22769207526E+02 -0.21148907212E+02  0.46142317148E+02  0.99999944117E+01 0.  0.
         12    1    1    2    0    0  0.32609821465E+02 -0.22769207526E+02  0.21148907212E+02  0.45045682852E+02  0.00000000000E+00 0. -1.
         11    1    3    3    0    0 -0.13801532729E+00  0.19047114560E+01  0.34088687024E+00  0.19398912548E+01  0.51100000000E-03 0. -1.
        -11    1    3    3    0    0 -0.14064138763E+01  0.11460918944E+01 -0.13023868709E+01  0.22333245274E+01  0.51100000000E-03 0.  1.
         12    1    3    3    0    0 -0.31065392261E+02  0.19718404176E+02 -0.20187407211E+02  0.41969101366E+02  0.00000000000E+00 0. -1.
</event>
<event>
 7    1  0.4452647E-009  0.4614232E+02  0.7816164E-02  0.1320468E+00
        -11   -1    0    0    0    0  0.00000000000E+00  0.00000000000E+00  0.45593999997E+02  0.45594000000E+02  0.51100000000E-03 0. -1.
         11   -1    0    0    0    0 -0.00000000000E+00 -0.00000000000E+00 -0.45593999997E+02  0.45594000000E+02  0.51100000000E-03 0.  1.
    9900012    2    1    2    0    0 -0.21834457221E+02  0.38871915747E+02  0.64299508691E+01  0.46142316254E+02  0.99999862592E+01 0.  0.
        -12    1    1    2    0    0  0.21834457221E+02 -0.38871915747E+02 -0.64299508691E+01  0.45045683746E+02  0.00000000000E+00 0.  1.
         11    1    3    3    0    0 -0.12226476616E+02  0.16725497369E+02  0.62946088680E+01  0.21652969629E+02  0.51100000000E-03 0. -1.
        -11    1    3    3    0    0 -0.55480139397E+01  0.16143444479E+02  0.14208376272E+01  0.17129215923E+02  0.51100000000E-03 0.  1.
        -12    1    3    3    0    0 -0.40599666651E+01  0.60029738984E+01 -0.12854956261E+01  0.73601307021E+01  0.00000000000E+00 0.  1.
</event>
<event>
 7    1  0.5009035E-009  0.4614232E+02  0.7816164E-02  0.1320468E+00
        -11   -1    0    0    0    0  0.00000000000E+00  0.00000000000E+00  0.45593999997E+02  0.45594000000E+02  0.51100000000E-03 0. -1.
         11   -1    0    0    0    0 -0.00000000000E+00 -0.00000000000E+00 -0.45593999997E+02  0.45594000000E+02  0.51100000000E-03 0.  1.
    9900012    2    1    2    0    0 -0.18242248088E+02 -0.27809375678E+02  0.30380462492E+02  0.46142317719E+02  0.99999996170E+01 0.  0.
        -12    1    1    2    0    0  0.18242248088E+02  0.27809375678E+02 -0.30380462492E+02  0.45045682281E+02  0.00000000000E+00 0.  1.
         11    1    3    3    0    0 -0.15593730455E+02 -0.18098316577E+02  0.25034436155E+02  0.34603995235E+02  0.51100000000E-03 0. -1.
        -11    1    3    3    0    0 -0.64411885510E+00 -0.18038176026E+01  0.27957948938E+00  0.19356683587E+01  0.51100000000E-03 0.  1.
         12    1    3    3    0    0 -0.20043987784E+01 -0.79072414984E+01  0.50664468482E+01  0.96026541250E+01  0.00000000000E+00 0. -1.
</event>
<event>
 7    1  0.4452647E-009  0.4614232E+02  0.7816164E-02  0.1320468E+00
        -11   -1    0    0    0    0  0.00000000000E+00  0.00000000000E+00  0.45593999997E+02  0.45594000000E+02  0.51100000000E-03 0.  1.
         11   -1    0    0    0    0 -0.00000000000E+00 -0.00000000000E+00 -0.45593999997E+02  0.45594000000E+02  0.51100000000E-03 0. -1.
    9900012    2    1    2    0    0  0.30887195006E+01 -0.44788360001E+02 -0.36845645260E+01  0.46142318792E+02  0.10000009401E+02 0.  0.
        -12    1    1    2    0    0 -0.30887195006E+01  0.44788360001E+02  0.36845645260E+01  0.45045681208E+02  0.00000000000E+00 0.  1.
         11    1    3    3    0    0 -0.60970215503E+00 -0.32839992146E+02  0.39434397902E+00  0.32848018636E+02  0.51100000000E-03 0. -1.
        -11    1    3    3    0    0  0.28058771098E+01 -0.10756738568E+02 -0.39592093625E+01  0.11800665660E+02  0.51100000000E-03 0.  1.
         12    1    3    3    0    0  0.89254454576E+00 -0.11916292862E+01 -0.11969914256E+00  0.14936344957E+01  0.00000000000E+00 0. -1.
</event>
<event>
 7    1  0.4452647E-009  0.4614232E+02  0.7816164E-02  0.1320468E+00
        -11   -1    0    0    0    0  0.00000000000E+00  0.00000000000E+00  0.45593999997E+02  0.45594000000E+02  0.51100000000E-03 0. -1.
         11   -1    0    0    0    0 -0.00000000000E+00 -0.00000000000E+00 -0.45593999997E+02  0.45594000000E+02  0.51100000000E-03 0.  1.
    9900012    2    1    2    0    0  0.26192430522E+02  0.16816936579E+02 -0.32561646036E+02  0.46142316909E+02  0.99999922294E+01 0.  0.
         12    1    1    2    0    0 -0.26192430522E+02 -0.16816936579E+02  0.32561646036E+02  0.45045683091E+02  0.00000000000E+00 0. -1.
         11    1    3    3    0    0  0.11918369274E+02  0.52928189019E+01 -0.14970182914E+02  0.19853660489E+02  0.51100000000E-03 0.  1.
        -11    1    3    3    0    0  0.23675193711E+01  0.12950109581E+01  0.17900807288E-01  0.26986148399E+01  0.51100000000E-03 0. -1.
        -12    1    3    3    0    0  0.11906541876E+02  0.10229106719E+02 -0.17609363929E+02  0.23590041580E+02  0.00000000000E+00 0.  1.
</event>
<event>
 7    1  0.1002598E-008  0.4614232E+02  0.7816164E-02  0.1320468E+00
        -11   -1    0    0    0    0  0.00000000000E+00  0.00000000000E+00  0.45593999997E+02  0.45594000000E+02  0.51100000000E-03 0. -1.
         11   -1    0    0    0    0 -0.00000000000E+00 -0.00000000000E+00 -0.45593999997E+02  0.45594000000E+02  0.51100000000E-03 0.  1.
    9900012    2    1    2    0    0  0.16834460664E+02  0.14411587002E+02  0.39217605334E+02  0.46142317921E+02  0.10000001462E+02 0.  0.
        -12    1    1    2    0    0 -0.16834460664E+02 -0.14411587002E+02 -0.39217605334E+02  0.45045682079E+02  0.00000000000E+00 0.  1.
         11    1    3    3    0    0  0.68730860491E+01  0.11593628606E+02  0.22093650825E+02  0.25880126412E+02  0.51100000000E-03 0. -1.
        -11    1    3    3    0    0  0.19098303791E+01  0.97905643630E-01  0.13380231219E+01  0.23339545256E+01  0.51100000000E-03 0.  1.
         12    1    3    3    0    0  0.80515442361E+01  0.27200527523E+01  0.15785931388E+02  0.17928236983E+02  0.00000000000E+00 0. -1.
</event>
<event>
 7    1  0.4452647E-009  0.4614232E+02  0.7816164E-02  0.1320468E+00
        -11   -1    0    0    0    0  0.00000000000E+00  0.00000000000E+00  0.45593999997E+02  0.45594000000E+02  0.51100000000E-03 0. -1.
         11   -1    0    0    0    0 -0.00000000000E+00 -0.00000000000E+00 -0.45593999997E+02  0.45594000000E+02  0.51100000000E-03 0.  1.
    9900012    2    1    2    0    0  0.33170576188E+02 -0.22629911140E+02 -0.20413548217E+02  0.46142323696E+02  0.10000054121E+02 0.  0.
         12    1    1    2    0    0 -0.33170576188E+02  0.22629911140E+02  0.20413548217E+02  0.45045676304E+02  0.00000000000E+00 0. -1.
         11    1    3    3    0    0  0.98700266753E+01 -0.29271918926E+01 -0.58792476253E+01  0.11855438914E+02  0.51100000000E-03 0. -1.
        -11    1    3    3    0    0  0.10263267091E+02 -0.11106011412E+02 -0.95891611222E+01  0.17906148446E+02  0.51100000000E-03 0.  1.
        -12    1    3    3    0    0  0.13037282421E+02 -0.85967078356E+01 -0.49451394695E+01  0.16380736336E+02  0.00000000000E+00 0.  1.
</event>
<event>
 7    1  0.4452647E-009  0.4614232E+02  0.7816164E-02  0.1320468E+00
        -11   -1    0    0    0    0  0.00000000000E+00  0.00000000000E+00  0.45593999997E+02  0.45594000000E+02  0.51100000000E-03 0. -1.
         11   -1    0    0    0    0 -0.00000000000E+00 -0.00000000000E+00 -0.45593999997E+02  0.45594000000E+02  0.51100000000E-03 0.  1.
    9900012    2    1    2    0    0  0.29423860743E+02 -0.14315498987E+02 -0.30958303341E+02  0.46142316099E+02  0.99999848481E+01 0.  0.
         12    1    1    2    0    0 -0.29423860743E+02  0.14315498987E+02  0.30958303341E+02  0.45045683901E+02  0.00000000000E+00 0. -1.
         11    1    3    3    0    0  0.77304825986E+00 -0.22387673077E+00 -0.40886033572E+01  0.41670615638E+01  0.51100000000E-03 0. -1.
        -11    1    3    3    0    0  0.25009098881E+02 -0.10590332294E+02 -0.21899543471E+02  0.34888395914E+02  0.51100000000E-03 0.  1.
        -12    1    3    3    0    0  0.36417136021E+01 -0.35012899619E+01 -0.49701565130E+01  0.70868586215E+01  0.00000000000E+00 0.  1.
</event>
<event>
 7    1  0.4452647E-009  0.4614232E+02  0.7816164E-02  0.1320468E+00
        -11   -1    0    0    0    0  0.00000000000E+00  0.00000000000E+00  0.45593999997E+02  0.45594000000E+02  0.51100000000E-03 0. -1.
         11   -1    0    0    0    0 -0.00000000000E+00 -0.00000000000E+00 -0.45593999997E+02  0.45594000000E+02  0.51100000000E-03 0.  1.
    9900012    2    1    2    0    0  0.34970456369E+02 -0.18200726716E+02 -0.21792525434E+02  0.46142318338E+02  0.10000005262E+02 0.  0.
         12    1    1    2    0    0 -0.34970456369E+02  0.18200726716E+02  0.21792525434E+02  0.45045681662E+02  0.00000000000E+00 0. -1.
         11    1    3    3    0    0  0.13643502999E+01  0.22755531833E+00 -0.32630984771E+01  0.35441564717E+01  0.51100000000E-03 0. -1.
        -11    1    3    3    0    0  0.25623785917E+02 -0.13342205277E+02 -0.13735485092E+02  0.31988379098E+02  0.51100000000E-03 0.  1.
         12    1    3    3    0    0  0.79823201520E+01 -0.50860767574E+01 -0.47939418650E+01  0.10609782769E+02  0.00000000000E+00 0. -1.
</event>
<event>
 7    1  0.4452647E-009  0.4614232E+02  0.7816164E-02  0.1320468E+00
        -11   -1    0    0    0    0  0.00000000000E+00  0.00000000000E+00  0.45593999997E+02  0.45594000000E+02  0.51100000000E-03 0. -1.
         11   -1    0    0    0    0 -0.00000000000E+00 -0.00000000000E+00 -0.45593999997E+02  0.45594000000E+02  0.51100000000E-03 0.  1.
    9900012    2    1    2    0    0 -0.37766591668E+02  0.17436769397E+02 -0.17284581965E+02  0.46142321551E+02  0.10000034558E+02 0.  0.
         12    1    1    2    0    0  0.37766591668E+02 -0.17436769397E+02  0.17284581965E+02  0.45045678449E+02  0.00000000000E+00 0. -1.
         11    1    3    3    0    0 -0.10715380152E+01 -0.96783973169E+00 -0.16077661517E+01  0.21609765672E+01  0.51100000000E-03 0. -1.
        -11    1    3    3    0    0 -0.32843513762E+02  0.15915698715E+02 -0.14231596163E+02  0.39173258627E+02  0.51100000000E-03 0.  1.
         12    1    3    3    0    0 -0.38515398907E+01  0.24889104141E+01 -0.14452196503E+01  0.48080863570E+01  0.00000000000E+00 0. -1.
</event>
<event>
 7    1  0.4452647E-009  0.4614232E+02  0.7816164E-02  0.1320468E+00
        -11   -1    0    0    0    0  0.00000000000E+00  0.00000000000E+00  0.45593999997E+02  0.45594000000E+02  0.51100000000E-03 0. -1.
         11   -1    0    0    0    0 -0.00000000000E+00 -0.00000000000E+00 -0.45593999997E+02  0.45594000000E+02  0.51100000000E-03 0.  1.
    9900012    2    1    2    0    0 -0.30089447084E+02  0.16388184398E+02 -0.29243219694E+02  0.46142319721E+02  0.10000017872E+02 0.  0.
         12    1    1    2    0    0  0.30089447084E+02 -0.16388184398E+02  0.29243219694E+02  0.45045680279E+02  0.00000000000E+00 0. -1.
         11    1    3    3    0    0 -0.11546451280E+02  0.36442861893E+01 -0.11666783873E+02  0.16814137063E+02  0.51100000000E-03 0. -1.
        -11    1    3    3    0    0 -0.18791682650E+02  0.11764662758E+02 -0.15601436463E+02  0.27109766628E+02  0.51100000000E-03 0.  1.
        -12    1    3    3    0    0  0.24868684609E+00  0.97923545165E+00 -0.19749993583E+01  0.22184160301E+01  0.00000000000E+00 0.  1.
</event>
<event>
 7    1  0.4452647E-009  0.4614232E+02  0.7816164E-02  0.1320468E+00
        -11   -1    0    0    0    0  0.00000000000E+00  0.00000000000E+00  0.45593999997E+02  0.45594000000E+02  0.51100000000E-03 0. -1.
         11   -1    0    0    0    0 -0.00000000000E+00 -0.00000000000E+00 -0.45593999997E+02  0.45594000000E+02  0.51100000000E-03 0.  1.
    9900012    2    1    2    0    0  0.41975607312E+02 -0.15746258623E+02 -0.43837441040E+01  0.46142317830E+02  0.10000000625E+02 0.  0.
         12    1    1    2    0    0 -0.41975607312E+02  0.15746258623E+02  0.43837441040E+01  0.45045682170E+02  0.00000000000E+00 0. -1.
         11    1    3    3    0    0  0.17608022089E+02 -0.43140907600E+01  0.21821408474E+01  0.18259670312E+02  0.51100000000E-03 0. -1.
        -11    1    3    3    0    0  0.11939563950E+02 -0.48081381041E+01 -0.17024670914E+01  0.12983442294E+02  0.51100000000E-03 0.  1.
         12    1    3    3    0    0  0.12428021273E+02 -0.66240297593E+01 -0.48634178600E+01  0.14899205224E+02  0.00000000000E+00 0. -1.
</event>
<event>
 7    1  0.8906376E-009  0.4614232E+02  0.7816164E-02  0.1320468E+00
        -11   -1    0    0    0    0  0.00000000000E+00  0.00000000000E+00  0.45593999997E+02  0.45594000000E+02  0.51100000000E-03 0. -1.
         11   -1    0    0    0    0 -0.00000000000E+00 -0.00000000000E+00 -0.45593999997E+02  0.45594000000E+02  0.51100000000E-03 0.  1.
    9900012    2    1    2    0    0  0.14193658812E+02 -0.13538681542E+02  0.40550680375E+02  0.46142317330E+02  0.99999960706E+01 0.  0.
        -12    1    1    2    0    0 -0.14193658812E+02  0.13538681542E+02 -0.40550680375E+02  0.45045682670E+02  0.00000000000E+00 0.  1.
         11    1    3    3    0    0  0.44935495434E+01 -0.25028126008E+01  0.19513384005E+02  0.20179896283E+02  0.51100000000E-03 0. -1.
        -11    1    3    3    0    0  0.16966198808E+01 -0.32369896028E+01  0.29288440756E+01  0.46834547707E+01  0.51100000000E-03 0.  1.
         12    1    3    3    0    0  0.80034893874E+01 -0.77988793382E+01  0.18108452294E+02  0.21278966276E+02  0.00000000000E+00 0. -1.
</event>
<event>
 7    1  0.4452647E-009  0.4614232E+02  0.7816164E-02  0.1320468E+00
        -11   -1    0    0    0    0  0.00000000000E+00  0.00000000000E+00  0.45593999997E+02  0.45594000000E+02  0.51100000000E-03 0. -1.
         11   -1    0    0    0    0 -0.00000000000E+00 -0.00000000000E+00 -0.45593999997E+02  0.45594000000E+02  0.51100000000E-03 0.  1.
    9900012    2    1    2    0    0 -0.36851265263E+02  0.22473339135E+02 -0.12885916708E+02  0.46142316824E+02  0.99999914550E+01 0.  0.
         12    1    1    2    0    0  0.36851265263E+02 -0.22473339135E+02  0.12885916708E+02  0.45045683176E+02  0.00000000000E+00 0. -1.
         11    1    3    3    0    0 -0.23591753720E+01  0.39571582856E+01 -0.30645367130E+01  0.55331903690E+01  0.51100000000E-03 0. -1.
        -11    1    3    3    0    0 -0.27465784613E+02  0.13551090207E+02 -0.92202705701E+01  0.31984601918E+02  0.51100000000E-03 0.  1.
        -12    1    3    3    0    0 -0.70263052784E+01  0.49650906420E+01 -0.60110942513E+00  0.86245245370E+01  0.00000000000E+00 0.  1.
</event>
<event>
 7    1  0.4452647E-009  0.4614232E+02  0.7816164E-02  0.1320468E+00
        -11   -1    0    0    0    0  0.00000000000E+00  0.00000000000E+00  0.45593999997E+02  0.45594000000E+02  0.51100000000E-03 0. -1.
         11   -1    0    0    0    0 -0.00000000000E+00 -0.00000000000E+00 -0.45593999997E+02  0.45594000000E+02  0.51100000000E-03 0.  1.
    9900012    2    1    2    0    0  0.21964194786E+02  0.27794110811E+02 -0.27824002465E+02  0.46142316949E+02  0.99999925935E+01 0.  0.
         12    1    1    2    0    0 -0.21964194786E+02 -0.27794110811E+02  0.27824002465E+02  0.45045683051E+02  0.00000000000E+00 0. -1.
         11    1    3    3    0    0  0.65855605188E+01  0.88907744592E+01 -0.71330044458E+01  0.13164164634E+02  0.51100000000E-03 0. -1.
        -11    1    3    3    0    0  0.13914488358E+01  0.25741473744E+01  0.28530215214E+00  0.29400275758E+01  0.51100000000E-03 0.  1.
        -12    1    3    3    0    0  0.13987185432E+02  0.16329188978E+02 -0.20976300171E+02  0.30038124739E+02  0.00000000000E+00 0.  1.
</event>
<event>
 7    1  0.4452647E-009  0.4614231E+02  0.7816164E-02  0.1320468E+00
        -11   -1    0    0    0    0  0.00000000000E+00  0.00000000000E+00  0.45593999997E+02  0.45594000000E+02  0.51100000000E-03 0. -1.
         11   -1    0    0    0    0 -0.00000000000E+00 -0.00000000000E+00 -0.45593999997E+02  0.45594000000E+02  0.51100000000E-03 0.  1.
    9900012    2    1    2    0    0  0.20582185184E+02 -0.11430050964E+01  0.40052227631E+02  0.46142314904E+02  0.99999739470E+01 0.  0.
        -12    1    1    2    0    0 -0.20582185184E+02  0.11430050964E+01 -0.40052227631E+02  0.45045685096E+02  0.00000000000E+00 0.  1.
         11    1    3    3    0    0  0.47832349416E+01 -0.14260493512E+01  0.17137650933E+02  0.17849706805E+02  0.51100000000E-03 0. -1.
        -11    1    3    3    0    0  0.11750455064E+02  0.14519541622E+01  0.19733379490E+02  0.23012771051E+02  0.51100000000E-03 0.  1.
        -12    1    3    3    0    0  0.40484951781E+01 -0.11689099075E+01  0.31811972078E+01  0.52798370480E+01  0.00000000000E+00 0.  1.
</event>
<event>
 7    1  0.4452647E-009  0.4614232E+02  0.7816164E-02  0.1320468E+00
        -11   -1    0    0    0    0  0.00000000000E+00  0.00000000000E+00  0.45593999997E+02  0.45594000000E+02  0.51100000000E-03 0. -1.
         11   -1    0    0    0    0 -0.00000000000E+00 -0.00000000000E+00 -0.45593999997E+02  0.45594000000E+02  0.51100000000E-03 0.  1.
    9900012    2    1    2    0    0  0.28742537425E+02  0.81922751263E+01  0.33702621834E+02  0.46142317100E+02  0.99999939736E+01 0.  0.
        -12    1    1    2    0    0 -0.28742537425E+02 -0.81922751263E+01 -0.33702621834E+02  0.45045682900E+02  0.00000000000E+00 0.  1.
         11    1    3    3    0    0  0.28510787800E+01  0.30257074839E+01  0.78933179250E+01  0.89212120317E+01  0.51100000000E-03 0.  1.
        -11    1    3    3    0    0  0.19111628789E+02  0.17048897435E+01  0.17827978855E+02  0.26191560364E+02  0.51100000000E-03 0. -1.
         12    1    3    3    0    0  0.67798298566E+01  0.34616778989E+01  0.79813250547E+01  0.11029544704E+02  0.00000000000E+00 0. -1.
</event>
<event>
 7    1  0.4452647E-009  0.4614232E+02  0.7816164E-02  0.1320468E+00
        -11   -1    0    0    0    0  0.00000000000E+00  0.00000000000E+00  0.45593999997E+02  0.45594000000E+02  0.51100000000E-03 0.  1.
         11   -1    0    0    0    0 -0.00000000000E+00 -0.00000000000E+00 -0.45593999997E+02  0.45594000000E+02  0.51100000000E-03 0. -1.
    9900012    2    1    2    0    0 -0.13663946236E+02  0.39553392405E+02 -0.16671513715E+02  0.46142316000E+02  0.99999839410E+01 0.  0.
         12    1    1    2    0    0  0.13663946236E+02 -0.39553392405E+02  0.16671513715E+02  0.45045684000E+02  0.00000000000E+00 0. -1.
         11    1    3    3    0    0 -0.33590010806E+01  0.19286603869E+02 -0.61320550187E+01  0.20514825763E+02  0.51100000000E-03 0. -1.
        -11    1    3    3    0    0 -0.68376113551E+01  0.13536689745E+02 -0.41560772173E+01  0.15724753619E+02  0.51100000000E-03 0.  1.
         12    1    3    3    0    0 -0.34673337999E+01  0.67300987910E+01 -0.63833814788E+01  0.99027366178E+01  0.00000000000E+00 0. -1.
</event>
<event>
 7    1  0.4452647E-009  0.4614232E+02  0.7816164E-02  0.1320468E+00
        -11   -1    0    0    0    0  0.00000000000E+00  0.00000000000E+00  0.45593999997E+02  0.45594000000E+02  0.51100000000E-03 0.  1.
         11   -1    0    0    0    0 -0.00000000000E+00 -0.00000000000E+00 -0.45593999997E+02  0.45594000000E+02  0.51100000000E-03 0. -1.
    9900012    2    1    2    0    0  0.42179553176E+02 -0.15808919732E+02 -0.27746491189E+00  0.46142316123E+02  0.99999850596E+01 0.  0.
        -12    1    1    2    0    0 -0.42179553176E+02  0.15808919732E+02  0.27746491189E+00  0.45045683877E+02  0.00000000000E+00 0.  1.
         11    1    3    3    0    0  0.13309279306E+02 -0.43958086071E+01 -0.32527037295E+00  0.14020194365E+02  0.51100000000E-03 0. -1.
        -11    1    3    3    0    0  0.23976118782E+02 -0.57866848677E+01 -0.27860290380E-01  0.24664565070E+02  0.51100000000E-03 0.  1.
        -12    1    3    3    0    0  0.48941550874E+01 -0.56264262574E+01  0.75665751436E-01  0.74575566880E+01  0.00000000000E+00 0.  1.
</event>
<event>
 7    1  0.4452647E-009  0.4614232E+02  0.7816164E-02  0.1320468E+00
        -11   -1    0    0    0    0  0.00000000000E+00  0.00000000000E+00  0.45593999997E+02  0.45594000000E+02  0.51100000000E-03 0. -1.
         11   -1    0    0    0    0 -0.00000000000E+00 -0.00000000000E+00 -0.45593999997E+02  0.45594000000E+02  0.51100000000E-03 0.  1.
    9900012    2    1    2    0    0  0.25358282083E+02 -0.39473196323E+01  0.37020125699E+02  0.46142317529E+02  0.99999978862E+01 0.  0.
        -12    1    1    2    0    0 -0.25358282083E+02  0.39473196323E+01 -0.37020125699E+02  0.45045682471E+02  0.00000000000E+00 0.  1.
         11    1    3    3    0    0  0.20000035350E+00 -0.13012817343E+01  0.22170245000E+01  0.25784747795E+01  0.51100000000E-03 0.  1.
        -11    1    3    3    0    0  0.15409582262E+02 -0.46716670197E+01  0.23670137283E+02  0.28627872738E+02  0.51100000000E-03 0. -1.
         12    1    3    3    0    0  0.97486994674E+01  0.20256291218E+01  0.11132963916E+02  0.14935970012E+02  0.00000000000E+00 0. -1.
</event>
<event>
 7    1  0.4452647E-009  0.4614232E+02  0.7816164E-02  0.1320468E+00
        -11   -1    0    0    0    0  0.00000000000E+00  0.00000000000E+00  0.45593999997E+02  0.45594000000E+02  0.51100000000E-03 0. -1.
         11   -1    0    0    0    0 -0.00000000000E+00 -0.00000000000E+00 -0.45593999997E+02  0.45594000000E+02  0.51100000000E-03 0.  1.
    9900012    2    1    2    0    0  0.12321017734E+02  0.40543437665E+02  0.15281872196E+02  0.46142318370E+02  0.10000005556E+02 0.  0.
        -12    1    1    2    0    0 -0.12321017734E+02 -0.40543437665E+02 -0.15281872196E+02  0.45045681630E+02  0.00000000000E+00 0.  1.
         11    1    3    3    0    0  0.39395095855E+01  0.16953657614E+02  0.30746079351E+01  0.17674825500E+02  0.51100000000E-03 0. -1.
        -11    1    3    3    0    0  0.20101457875E+00 -0.35658791584E+00  0.24890402596E+00  0.47907752802E+00  0.51100000000E-03 0.  1.
        -12    1    3    3    0    0  0.81804935701E+01  0.23946367967E+02  0.11958360235E+02  0.27988415342E+02  0.00000000000E+00 0.  1.
</event>
<event>
 7    1  0.4452647E-009  0.4614232E+02  0.7816164E-02  0.1320468E+00
        -11   -1    0    0    0    0  0.00000000000E+00  0.00000000000E+00  0.45593999997E+02  0.45594000000E+02  0.51100000000E-03 0. -1.
         11   -1    0    0    0    0 -0.00000000000E+00 -0.00000000000E+00 -0.45593999997E+02  0.45594000000E+02  0.51100000000E-03 0.  1.
    9900012    2    1    2    0    0  0.31104340562E+02  0.27729193012E+01  0.32464510049E+02  0.46142317676E+02  0.99999992257E+01 0.  0.
        -12    1    1    2    0    0 -0.31104340562E+02 -0.27729193012E+01 -0.32464510049E+02  0.45045682324E+02  0.00000000000E+00 0.  1.
         11    1    3    3    0    0  0.25982007147E+02 -0.31494048309E+00  0.29285622404E+02  0.39151137439E+02  0.51100000000E-03 0. -1.
        -11    1    3    3    0    0  0.65565807413E+00  0.95095777832E+00  0.11805014399E+01  0.16516028933E+01  0.51100000000E-03 0.  1.
         12    1    3    3    0    0  0.44666753409E+01  0.21369020060E+01  0.19983862049E+01  0.53395773435E+01  0.00000000000E+00 0. -1.
</event>
<event>
 7    1  0.4452647E-009  0.4614232E+02  0.7816164E-02  0.1320468E+00
        -11   -1    0    0    0    0  0.00000000000E+00  0.00000000000E+00  0.45593999997E+02  0.45594000000E+02  0.51100000000E-03 0. -1.
         11   -1    0    0    0    0 -0.00000000000E+00 -0.00000000000E+00 -0.45593999997E+02  0.45594000000E+02  0.51100000000E-03 0.  1.
    9900012    2    1    2    0    0  0.12572860384E+02 -0.27816696433E+01 -0.43165948495E+02  0.46142316370E+02  0.99999873153E+01 0.  0.
         12    1    1    2    0    0 -0.12572860384E+02  0.27816696433E+01  0.43165948495E+02  0.45045683630E+02  0.00000000000E+00 0. -1.
         11    1    3    3    0    0  0.74788356506E+00 -0.30666348857E+01 -0.64035449825E+01  0.71392554201E+01  0.51100000000E-03 0. -1.
        -11    1    3    3    0    0  0.42964887948E+01 -0.14110273465E+01 -0.20630211089E+02  0.21120047916E+02  0.51100000000E-03 0.  1.
        -12    1    3    3    0    0  0.75284880243E+01  0.16959925889E+01 -0.16132192423E+02  0.17883013034E+02  0.00000000000E+00 0.  1.
</event>
<event>
 7    1  0.4452647E-009  0.4614232E+02  0.7816164E-02  0.1320468E+00
        -11   -1    0    0    0    0  0.00000000000E+00  0.00000000000E+00  0.45593999997E+02  0.45594000000E+02  0.51100000000E-03 0. -1.
         11   -1    0    0    0    0 -0.00000000000E+00 -0.00000000000E+00 -0.45593999997E+02  0.45594000000E+02  0.51100000000E-03 0.  1.
    9900012    2    1    2    0    0 -0.14423225467E+02  0.45296399115E+01  0.42433082466E+02  0.46142316987E+02  0.99999929393E+01 0.  0.
        -12    1    1    2    0    0  0.14423225467E+02 -0.45296399115E+01 -0.42433082466E+02  0.45045683013E+02  0.00000000000E+00 0.  1.
         11    1    3    3    0    0 -0.66595114257E+01  0.13647861912E+01  0.99984771707E+01  0.12090545057E+02  0.51100000000E-03 0.  1.
        -11    1    3    3    0    0 -0.85781196344E+01  0.24919249744E+01  0.25114078471E+02  0.26655407787E+02  0.51100000000E-03 0. -1.
         12    1    3    3    0    0  0.81440559349E+00  0.67292874591E+00  0.73205268236E+01  0.73963641435E+01  0.00000000000E+00 0. -1.
</event>
<event>
 7    1  0.4452647E-009  0.4614232E+02  0.7816164E-02  0.1320468E+00
        -11   -1    0    0    0    0  0.00000000000E+00  0.00000000000E+00  0.45593999997E+02  0.45594000000E+02  0.51100000000E-03 0. -1.
         11   -1    0    0    0    0 -0.00000000000E+00 -0.00000000000E+00 -0.45593999997E+02  0.45594000000E+02  0.51100000000E-03 0.  1.
    9900012    2    1    2    0    0 -0.73015798250E+01  0.90792005450E+00 -0.44440703955E+02  0.46142317024E+02  0.99999932777E+01 0.  0.
         12    1    1    2    0    0  0.73015798250E+01 -0.90792005450E+00  0.44440703955E+02  0.45045682976E+02  0.00000000000E+00 0. -1.
         11    1    3    3    0    0 -0.13692580743E+01 -0.22872828663E+00 -0.75556580951E+00  0.15805265758E+01  0.51100000000E-03 0. -1.
        -11    1    3    3    0    0 -0.25502881516E+01 -0.23211623302E+01 -0.25980074684E+02  0.26207938589E+02  0.51100000000E-03 0.  1.
        -12    1    3    3    0    0 -0.33820335991E+01  0.34578106713E+01 -0.17705063461E+02  0.18353851859E+02  0.00000000000E+00 0.  1.
</event>
<event>
 7    1  0.4452647E-009  0.4614232E+02  0.7816164E-02  0.1320468E+00
        -11   -1    0    0    0    0  0.00000000000E+00  0.00000000000E+00  0.45593999997E+02  0.45594000000E+02  0.51100000000E-03 0. -1.
         11   -1    0    0    0    0 -0.00000000000E+00 -0.00000000000E+00 -0.45593999997E+02  0.45594000000E+02  0.51100000000E-03 0.  1.
    9900012    2    1    2    0    0  0.26673555338E+02 -0.35885906712E+02  0.54622909969E+01  0.46142317878E+02  0.10000001067E+02 0.  0.
        -12    1    1    2    0    0 -0.26673555338E+02  0.35885906712E+02 -0.54622909969E+01  0.45045682122E+02  0.00000000000E+00 0.  1.
         11    1    3    3    0    0  0.16027400818E+02 -0.22308314838E+02  0.79021498014E+00  0.27480227944E+02  0.51100000000E-03 0. -1.
        -11    1    3    3    0    0  0.49459053105E+01 -0.44088820903E+01  0.42218945266E+01  0.78565014021E+01  0.51100000000E-03 0.  1.
        -12    1    3    3    0    0  0.57002492095E+01 -0.91687097835E+01  0.45018149012E+00  0.10805588532E+02  0.00000000000E+00 0.  1.
</event>
<event>
 7    1  0.4452647E-009  0.4614232E+02  0.7816164E-02  0.1320468E+00
        -11   -1    0    0    0    0  0.00000000000E+00  0.00000000000E+00  0.45593999997E+02  0.45594000000E+02  0.51100000000E-03 0. -1.
         11   -1    0    0    0    0 -0.00000000000E+00 -0.00000000000E+00 -0.45593999997E+02  0.45594000000E+02  0.51100000000E-03 0.  1.
    9900012    2    1    2    0    0 -0.28829874916E+02  0.18112091474E+02  0.29494134373E+02  0.46142317547E+02  0.99999980514E+01 0.  0.
        -12    1    1    2    0    0  0.28829874916E+02 -0.18112091474E+02 -0.29494134373E+02  0.45045682453E+02  0.00000000000E+00 0.  1.
         11    1    3    3    0    0 -0.49529729395E+01  0.26596086868E+00  0.16550970689E+01  0.52289600010E+01  0.51100000000E-03 0. -1.
        -11    1    3    3    0    0 -0.17641857220E+01  0.21182222355E+01  0.17166380747E+01  0.32474702834E+01  0.51100000000E-03 0.  1.
         12    1    3    3    0    0 -0.22112716255E+02  0.15727908370E+02  0.26122399229E+02  0.37665887263E+02  0.00000000000E+00 0. -1.
</event>
<event>
 7    1  0.4452647E-009  0.4614232E+02  0.7816164E-02  0.1320468E+00
        -11   -1    0    0    0    0  0.00000000000E+00  0.00000000000E+00  0.45593999997E+02  0.45594000000E+02  0.51100000000E-03 0. -1.
         11   -1    0    0    0    0 -0.00000000000E+00 -0.00000000000E+00 -0.45593999997E+02  0.45594000000E+02  0.51100000000E-03 0.  1.
    9900012    2    1    2    0    0  0.34257789483E+02 -0.94802120597E+01 -0.27670253328E+02  0.46142317852E+02  0.10000000830E+02 0.  0.
         12    1    1    2    0    0 -0.34257789483E+02  0.94802120597E+01  0.27670253328E+02  0.45045682148E+02  0.00000000000E+00 0. -1.
         11    1    3    3    0    0  0.14054516224E+02 -0.35674756596E+00 -0.13584367767E+02  0.19549724883E+02  0.51100000000E-03 0. -1.
        -11    1    3    3    0    0  0.79773734508E+01 -0.15911683628E+01 -0.60444334871E+01  0.10134371237E+02  0.51100000000E-03 0.  1.
         12    1    3    3    0    0  0.12225899808E+02 -0.75322961310E+01 -0.80414520735E+01  0.16458221732E+02  0.00000000000E+00 0. -1.
</event>
<event>
 7    1  0.4452647E-009  0.4614231E+02  0.7816164E-02  0.1320468E+00
        -11   -1    0    0    0    0  0.00000000000E+00  0.00000000000E+00  0.45593999997E+02  0.45594000000E+02  0.51100000000E-03 0. -1.
         11   -1    0    0    0    0 -0.00000000000E+00 -0.00000000000E+00 -0.45593999997E+02  0.45594000000E+02  0.51100000000E-03 0.  1.
    9900012    2    1    2    0    0  0.84549424772E+01 -0.36682829286E+01  0.44092760094E+02  0.46142313807E+02  0.99999639429E+01 0.  0.
        -12    1    1    2    0    0 -0.84549424772E+01  0.36682829286E+01 -0.44092760094E+02  0.45045686193E+02  0.00000000000E+00 0.  1.
         11    1    3    3    0    0 -0.49004406416E+00  0.17580589355E+01  0.13028196787E+02  0.13155410529E+02  0.51100000000E-03 0. -1.
        -11    1    3    3    0    0  0.91570669678E+01 -0.50738038317E+01  0.27967360544E+02  0.29862495154E+02  0.51100000000E-03 0.  1.
         12    1    3    3    0    0 -0.21208042635E+00 -0.35253803244E+00  0.30972027630E+01  0.31244081242E+01  0.00000000000E+00 0. -1.
</event>
<event>
 7    1  0.4452647E-009  0.4614232E+02  0.7816164E-02  0.1320468E+00
        -11   -1    0    0    0    0  0.00000000000E+00  0.00000000000E+00  0.45593999997E+02  0.45594000000E+02  0.51100000000E-03 0. -1.
         11   -1    0    0    0    0 -0.00000000000E+00 -0.00000000000E+00 -0.45593999997E+02  0.45594000000E+02  0.51100000000E-03 0.  1.
    9900012    2    1    2    0    0 -0.35607435686E+02  0.44653510970E+01 -0.27226543290E+02  0.46142317675E+02  0.99999992182E+01 0.  0.
         12    1    1    2    0    0  0.35607435686E+02 -0.44653510970E+01  0.27226543290E+02  0.45045682325E+02  0.00000000000E+00 0. -1.
         11    1    3    3    0    0 -0.38546884563E+01  0.73650303405E+00 -0.27522062817E+00  0.39340572530E+01  0.51100000000E-03 0. -1.
        -11    1    3    3    0    0 -0.26864138649E+02  0.44570241474E+01 -0.24747879199E+02  0.36796800604E+02  0.51100000000E-03 0.  1.
        -12    1    3    3    0    0 -0.48886085814E+01 -0.72817608452E+00 -0.22034434625E+01  0.54114598183E+01  0.00000000000E+00 0.  1.
</event>
<event>
 7    1  0.4452647E-009  0.4614232E+02  0.7816164E-02  0.1320468E+00
        -11   -1    0    0    0    0  0.00000000000E+00  0.00000000000E+00  0.45593999997E+02  0.45594000000E+02  0.51100000000E-03 0. -1.
         11   -1    0    0    0    0 -0.00000000000E+00 -0.00000000000E+00 -0.45593999997E+02  0.45594000000E+02  0.51100000000E-03 0.  1.
    9900012    2    1    2    0    0  0.26109507196E+01 -0.15646827557E+02 -0.42160089571E+02  0.46142318422E+02  0.10000006024E+02 0.  0.
         12    1    1    2    0    0 -0.26109507196E+01  0.15646827557E+02  0.42160089571E+02  0.45045681578E+02  0.00000000000E+00 0. -1.
         11    1    3    3    0    0 -0.24390757861E+01 -0.50828245952E+01 -0.17130465962E+02  0.18034330065E+02  0.51100000000E-03 0. -1.
        -11    1    3    3    0    0 -0.12568245869E+00 -0.18277027040E+01 -0.86053938347E+01  0.87982439479E+01  0.51100000000E-03 0.  1.
         12    1    3    3    0    0  0.51757089644E+01 -0.87363002575E+01 -0.16424229774E+02  0.19309744409E+02  0.00000000000E+00 0. -1.
</event>
<event>
 7    1  0.4452647E-009  0.4614232E+02  0.7816164E-02  0.1320468E+00
        -11   -1    0    0    0    0  0.00000000000E+00  0.00000000000E+00  0.45593999997E+02  0.45594000000E+02  0.51100000000E-03 0.  1.
         11   -1    0    0    0    0 -0.00000000000E+00 -0.00000000000E+00 -0.45593999997E+02  0.45594000000E+02  0.51100000000E-03 0. -1.
    9900012    2    1    2    0    0 -0.33063825903E+02  0.29168429873E+02  0.92249435366E+01  0.46142317989E+02  0.10000002076E+02 0.  0.
         12    1    1    2    0    0  0.33063825903E+02 -0.29168429873E+02 -0.92249435366E+01  0.45045682011E+02  0.00000000000E+00 0. -1.
         11    1    3    3    0    0 -0.13821481429E+02  0.16024941244E+02  0.58803495956E+00  0.21170212001E+02  0.51100000000E-03 0. -1.
        -11    1    3    3    0    0 -0.67922421347E+01  0.44873591092E+01  0.42682061066E+01  0.91917641734E+01  0.51100000000E-03 0.  1.
         12    1    3    3    0    0 -0.12450102339E+02  0.86561295200E+01  0.43687024705E+01  0.15780341815E+02  0.00000000000E+00 0. -1.
</event>
<event>
 7    1  0.4452647E-009  0.4614233E+02  0.7816164E-02  0.1320468E+00
        -11   -1    0    0    0    0  0.00000000000E+00  0.00000000000E+00  0.45593999997E+02  0.45594000000E+02  0.51100000000E-03 0. -1.
         11   -1    0    0    0    0 -0.00000000000E+00 -0.00000000000E+00 -0.45593999997E+02  0.45594000000E+02  0.51100000000E-03 0.  1.
    9900012    2    1    2    0    0  0.18540452757E+01 -0.38977899446E+01 -0.44838402837E+02  0.46142327408E+02  0.10000087965E+02 0.  0.
         12    1    1    2    0    0 -0.18540452757E+01  0.38977899446E+01  0.44838402837E+02  0.45045672592E+02  0.00000000000E+00 0. -1.
         11    1    3    3    0    0  0.12826290326E+01 -0.36298707654E+00 -0.17364398751E+01  0.21890912621E+01  0.51100000000E-03 0. -1.
        -11    1    3    3    0    0  0.14200501387E+01  0.11061012170E+01 -0.25137814290E+01  0.30917793635E+01  0.51100000000E-03 0.  1.
        -12    1    3    3    0    0 -0.84863389556E+00 -0.46409040850E+01 -0.40588181533E+02  0.40861456782E+02  0.00000000000E+00 0.  1.
</event>
<event>
 7    1  0.4452647E-009  0.4614232E+02  0.7816164E-02  0.1320468E+00
        -11   -1    0    0    0    0  0.00000000000E+00  0.00000000000E+00  0.45593999997E+02  0.45594000000E+02  0.51100000000E-03 0. -1.
         11   -1    0    0    0    0 -0.00000000000E+00 -0.00000000000E+00 -0.45593999997E+02  0.45594000000E+02  0.51100000000E-03 0.  1.
    9900012    2    1    2    0    0  0.48618439743E+01 -0.36787551363E+02 -0.25537267984E+02  0.46142317430E+02  0.99999969803E+01 0.  0.
         12    1    1    2    0    0 -0.48618439743E+01  0.36787551363E+02  0.25537267984E+02  0.45045682570E+02  0.00000000000E+00 0. -1.
         11    1    3    3    0    0 -0.13596088159E+01 -0.10971686876E+02 -0.56392253581E+01  0.12410774027E+02  0.51100000000E-03 0. -1.
        -11    1    3    3    0    0  0.14489257871E+01 -0.14520895674E+02 -0.79815920471E+01  0.16633147897E+02  0.51100000000E-03 0.  1.
         12    1    3    3    0    0  0.47725270031E+01 -0.11294968813E+02 -0.11916450579E+02  0.17098395506E+02  0.00000000000E+00 0. -1.
</event>
<event>
 7    1  0.4452647E-009  0.4614233E+02  0.7816164E-02  0.1320468E+00
        -11   -1    0    0    0    0  0.00000000000E+00  0.00000000000E+00  0.45593999997E+02  0.45594000000E+02  0.51100000000E-03 0. -1.
         11   -1    0    0    0    0 -0.00000000000E+00 -0.00000000000E+00 -0.45593999997E+02  0.45594000000E+02  0.51100000000E-03 0.  1.
    9900012    2    1    2    0    0 -0.11373786950E+02 -0.35233870395E+02 -0.25657823745E+02  0.46142327934E+02  0.10000092762E+02 0.  0.
         12    1    1    2    0    0  0.11373786950E+02  0.35233870395E+02  0.25657823745E+02  0.45045672066E+02  0.00000000000E+00 0. -1.
         11    1    3    3    0    0 -0.91314510404E+01 -0.12932373176E+02 -0.10215121832E+02  0.18840870159E+02  0.51100000000E-03 0. -1.
        -11    1    3    3    0    0 -0.18749097317E+01 -0.20468223863E+02 -0.14786051769E+02  0.25319770966E+02  0.51100000000E-03 0.  1.
         12    1    3    3    0    0 -0.36742617795E+00 -0.18332733564E+01 -0.65665014382E+00  0.19816868084E+01  0.00000000000E+00 0. -1.
</event>
<event>
 7    1  0.4452647E-009  0.4614232E+02  0.7816164E-02  0.1320468E+00
        -11   -1    0    0    0    0  0.00000000000E+00  0.00000000000E+00  0.45593999997E+02  0.45594000000E+02  0.51100000000E-03 0. -1.
         11   -1    0    0    0    0 -0.00000000000E+00 -0.00000000000E+00 -0.45593999997E+02  0.45594000000E+02  0.51100000000E-03 0.  1.
    9900012    2    1    2    0    0  0.37772376724E+01  0.22291115359E+02  0.38960904973E+02  0.46142318024E+02  0.10000002398E+02 0.  0.
        -12    1    1    2    0    0 -0.37772376724E+01 -0.22291115359E+02 -0.38960904973E+02  0.45045681976E+02  0.00000000000E+00 0.  1.
         11    1    3    3    0    0  0.30429668519E+01  0.82965880028E+01  0.17127709950E+02  0.19273076250E+02  0.51100000000E-03 0. -1.
        -11    1    3    3    0    0 -0.28478075357E+01  0.88155665279E+01  0.14458723726E+02  0.17172038697E+02  0.51100000000E-03 0.  1.
        -12    1    3    3    0    0  0.35820783562E+01  0.51789608280E+01  0.73744712972E+01  0.96972030773E+01  0.00000000000E+00 0.  1.
</event>
<event>
 7    1  0.4452647E-009  0.4614232E+02  0.7816164E-02  0.1320468E+00
        -11   -1    0    0    0    0  0.00000000000E+00  0.00000000000E+00  0.45593999997E+02  0.45594000000E+02  0.51100000000E-03 0. -1.
         11   -1    0    0    0    0 -0.00000000000E+00 -0.00000000000E+00 -0.45593999997E+02  0.45594000000E+02  0.51100000000E-03 0.  1.
    9900012    2    1    2    0    0  0.36014043162E+01 -0.14960955689E+02 -0.42335719150E+02  0.46142318475E+02  0.10000006505E+02 0.  0.
         12    1    1    2    0    0 -0.36014043162E+01  0.14960955689E+02  0.42335719150E+02  0.45045681525E+02  0.00000000000E+00 0. -1.
         11    1    3    3    0    0  0.10459983304E+00  0.20544191399E-01 -0.46502395658E+01  0.46514612187E+01  0.51100000000E-03 0. -1.
        -11    1    3    3    0    0 -0.49480076740E-01 -0.84076861381E+01 -0.28146448307E+02  0.29375401053E+02  0.51100000000E-03 0.  1.
        -12    1    3    3    0    0  0.35462845599E+01 -0.65738137419E+01 -0.95390312769E+01  0.12115456203E+02  0.00000000000E+00 0.  1.
</event>
<event>
 7    1  0.4452647E-009  0.4614231E+02  0.7816164E-02  0.1320468E+00
        -11   -1    0    0    0    0  0.00000000000E+00  0.00000000000E+00  0.45593999997E+02  0.45594000000E+02  0.51100000000E-03 0. -1.
         11   -1    0    0    0    0 -0.00000000000E+00 -0.00000000000E+00 -0.45593999997E+02  0.45594000000E+02  0.51100000000E-03 0.  1.
    9900012    2    1    2    0    0 -0.13376889430E+02 -0.38989923771E+01  0.42836558795E+02  0.46142311174E+02  0.99999399333E+01 0.  0.
        -12    1    1    2    0    0  0.13376889430E+02  0.38989923771E+01 -0.42836558795E+02  0.45045688826E+02  0.00000000000E+00 0.  1.
         11    1    3    3    0    0 -0.91251872425E+01 -0.56542794718E+01  0.25785453699E+02  0.27930799152E+02  0.51100000000E-03 0. -1.
        -11    1    3    3    0    0 -0.22458179587E+01  0.31106432839E+01  0.85283497708E+01  0.93516068147E+01  0.51100000000E-03 0.  1.
         12    1    3    3    0    0 -0.20058842290E+01 -0.13553561892E+01  0.85227553254E+01  0.88599052070E+01  0.00000000000E+00 0. -1.
</event>
<event>
 7    1  0.4452647E-009  0.4614232E+02  0.7816164E-02  0.1320468E+00
        -11   -1    0    0    0    0  0.00000000000E+00  0.00000000000E+00  0.45593999997E+02  0.45594000000E+02  0.51100000000E-03 0. -1.
         11   -1    0    0    0    0 -0.00000000000E+00 -0.00000000000E+00 -0.45593999997E+02  0.45594000000E+02  0.51100000000E-03 0.  1.
    9900012    2    1    2    0    0 -0.91089272034E+01  0.52665401499E+01 -0.43799594716E+02  0.46142317662E+02  0.99999991001E+01 0.  0.
         12    1    1    2    0    0  0.91089272034E+01 -0.52665401499E+01  0.43799594716E+02  0.45045682338E+02  0.00000000000E+00 0. -1.
         11    1    3    3    0    0 -0.19283376771E+01  0.37451569390E+01 -0.12418304665E+02  0.13113312995E+02  0.51100000000E-03 0. -1.
        -11    1    3    3    0    0  0.70814188606E+00 -0.14968566937E+01 -0.31156933089E+01  0.35283976460E+01  0.51100000000E-03 0.  1.
         12    1    3    3    0    0 -0.78887314124E+01  0.30182399047E+01 -0.28265596742E+02  0.29500607021E+02  0.00000000000E+00 0. -1.
</event>
<event>
 7    1  0.4452647E-009  0.4614232E+02  0.7816164E-02  0.1320468E+00
        -11   -1    0    0    0    0  0.00000000000E+00  0.00000000000E+00  0.45593999997E+02  0.45594000000E+02  0.51100000000E-03 0. -1.
         11   -1    0    0    0    0 -0.00000000000E+00 -0.00000000000E+00 -0.45593999997E+02  0.45594000000E+02  0.51100000000E-03 0.  1.
    9900012    2    1    2    0    0 -0.53943179643E+01 -0.17442489565E+02 -0.41179781953E+02  0.46142317075E+02  0.99999937411E+01 0.  0.
         12    1    1    2    0    0  0.53943179643E+01  0.17442489565E+02  0.41179781953E+02  0.45045682925E+02  0.00000000000E+00 0. -1.
         11    1    3    3    0    0 -0.12801780645E+01 -0.31127258239E+01 -0.15553405558E+01  0.37076950302E+01  0.51100000000E-03 0. -1.
        -11    1    3    3    0    0 -0.28533919773E+01 -0.10269992523E+02 -0.31668379841E+02  0.33414081975E+02  0.51100000000E-03 0.  1.
         12    1    3    3    0    0 -0.12607479225E+01 -0.40597712183E+01 -0.79560615555E+01  0.90205400694E+01  0.00000000000E+00 0. -1.
</event>
<event>
 7    1  0.4452647E-009  0.4614232E+02  0.7816164E-02  0.1320468E+00
        -11   -1    0    0    0    0  0.00000000000E+00  0.00000000000E+00  0.45593999997E+02  0.45594000000E+02  0.51100000000E-03 0. -1.
         11   -1    0    0    0    0 -0.00000000000E+00 -0.00000000000E+00 -0.45593999997E+02  0.45594000000E+02  0.51100000000E-03 0.  1.
    9900012    2    1    2    0    0 -0.10893490142E+02 -0.39766903686E+01  0.43527362549E+02  0.46142317807E+02  0.10000000422E+02 0.  0.
        -12    1    1    2    0    0  0.10893490142E+02  0.39766903686E+01 -0.43527362549E+02  0.45045682193E+02  0.00000000000E+00 0.  1.
         11    1    3    3    0    0 -0.54204955719E+01 -0.14395512927E+01  0.11842440140E+02  0.13103338083E+02  0.51100000000E-03 0. -1.
        -11    1    3    3    0    0 -0.17273347063E-01  0.12254953015E+01  0.15518793310E+02  0.15567115441E+02  0.51100000000E-03 0.  1.
        -12    1    3    3    0    0 -0.54557212229E+01 -0.37626343774E+01  0.16166129098E+02  0.17471864284E+02  0.00000000000E+00 0.  1.
</event>
<event>
 7    1  0.4452647E-009  0.4614232E+02  0.7816164E-02  0.1320468E+00
        -11   -1    0    0    0    0  0.00000000000E+00  0.00000000000E+00  0.45593999997E+02  0.45594000000E+02  0.51100000000E-03 0. -1.
         11   -1    0    0    0    0 -0.00000000000E+00 -0.00000000000E+00 -0.45593999997E+02  0.45594000000E+02  0.51100000000E-03 0.  1.
    9900012    2    1    2    0    0  0.40584835848E+02 -0.96540982526E+01 -0.16993611370E+02  0.46142319394E+02  0.10000014893E+02 0.  0.
         12    1    1    2    0    0 -0.40584835848E+02  0.96540982526E+01  0.16993611370E+02  0.45045680606E+02  0.00000000000E+00 0. -1.
         11    1    3    3    0    0  0.18639688438E+02 -0.14082088327E+01 -0.55788491746E+01  0.19507552270E+02  0.51100000000E-03 0. -1.
        -11    1    3    3    0    0  0.61616587244E+01 -0.29844026468E+01 -0.60985282330E+01  0.91686827987E+01  0.51100000000E-03 0.  1.
         12    1    3    3    0    0  0.15783488685E+02 -0.52614867731E+01 -0.53162339620E+01  0.17466084326E+02  0.00000000000E+00 0. -1.
</event>
<event>
 7    1  0.4452647E-009  0.4614232E+02  0.7816164E-02  0.1320468E+00
        -11   -1    0    0    0    0  0.00000000000E+00  0.00000000000E+00  0.45593999997E+02  0.45594000000E+02  0.51100000000E-03 0. -1.
         11   -1    0    0    0    0 -0.00000000000E+00 -0.00000000000E+00 -0.45593999997E+02  0.45594000000E+02  0.51100000000E-03 0.  1.
    9900012    2    1    2    0    0  0.42341973190E+02  0.10301906330E+02  0.11407959001E+02  0.46142317674E+02  0.99999992039E+01 0.  0.
        -12    1    1    2    0    0 -0.42341973190E+02 -0.10301906330E+02 -0.11407959001E+02  0.45045682326E+02  0.00000000000E+00 0.  1.
         11    1    3    3    0    0  0.11431302117E+02 -0.48870739305E+00  0.49252092390E+01  0.12456772829E+02  0.51100000000E-03 0. -1.
        -11    1    3    3    0    0  0.34354512165E+01  0.23968041912E+01  0.18757115802E+01  0.45896938444E+01  0.51100000000E-03 0.  1.
         12    1    3    3    0    0  0.27475219857E+02  0.83938095320E+01  0.46070381819E+01  0.29095851000E+02  0.00000000000E+00 0. -1.
</event>
<event>
 7    1  0.4452647E-009  0.4614232E+02  0.7816164E-02  0.1320468E+00
        -11   -1    0    0    0    0  0.00000000000E+00  0.00000000000E+00  0.45593999997E+02  0.45594000000E+02  0.51100000000E-03 0. -1.
         11   -1    0    0    0    0 -0.00000000000E+00 -0.00000000000E+00 -0.45593999997E+02  0.45594000000E+02  0.51100000000E-03 0.  1.
    9900012    2    1    2    0    0 -0.88281316272E+01 -0.40703933543E+02  0.17157139581E+02  0.46142317049E+02  0.99999935047E+01 0.  0.
        -12    1    1    2    0    0  0.88281316272E+01  0.40703933543E+02 -0.17157139581E+02  0.45045682951E+02  0.00000000000E+00 0.  1.
         11    1    3    3    0    0 -0.56123949695E+01 -0.28697165539E+02  0.12491496401E+02  0.31797228965E+02  0.51100000000E-03 0. -1.
        -11    1    3    3    0    0 -0.13027848419E+01 -0.64030653861E+01 -0.40869714727E+00  0.65470243853E+01  0.51100000000E-03 0.  1.
         12    1    3    3    0    0 -0.19129518158E+01 -0.56037026186E+01  0.50743403277E+01  0.77980636987E+01  0.00000000000E+00 0. -1.
</event>
<event>
 7    1  0.4452647E-009  0.4614232E+02  0.7816164E-02  0.1320468E+00
        -11   -1    0    0    0    0  0.00000000000E+00  0.00000000000E+00  0.45593999997E+02  0.45594000000E+02  0.51100000000E-03 0.  1.
         11   -1    0    0    0    0 -0.00000000000E+00 -0.00000000000E+00 -0.45593999997E+02  0.45594000000E+02  0.51100000000E-03 0. -1.
    9900012    2    1    2    0    0  0.36056643341E+02  0.26051063037E+02 -0.70974755958E+01  0.46142316808E+02  0.99999913096E+01 0.  0.
         12    1    1    2    0    0 -0.36056643341E+02 -0.26051063037E+02  0.70974755958E+01  0.45045683192E+02  0.00000000000E+00 0. -1.
         11    1    3    3    0    0  0.21954710665E+02  0.16426372248E+02 -0.41926993275E+01  0.27738308412E+02  0.51100000000E-03 0. -1.
        -11    1    3    3    0    0  0.51206949610E+01  0.57568419841E+01 -0.37879166581E+01  0.85855145090E+01  0.51100000000E-03 0.  1.
         12    1    3    3    0    0  0.89812377152E+01  0.38678488046E+01  0.88314038976E+00  0.98184938876E+01  0.00000000000E+00 0. -1.
</event>
<event>
 7    1  0.4452647E-009  0.4614232E+02  0.7816164E-02  0.1320468E+00
        -11   -1    0    0    0    0  0.00000000000E+00  0.00000000000E+00  0.45593999997E+02  0.45594000000E+02  0.51100000000E-03 0. -1.
         11   -1    0    0    0    0 -0.00000000000E+00 -0.00000000000E+00 -0.45593999997E+02  0.45594000000E+02  0.51100000000E-03 0.  1.
    9900012    2    1    2    0    0 -0.20781715567E+02 -0.27541113080E+02  0.28960678620E+02  0.46142317435E+02  0.99999970288E+01 0.  0.
        -12    1    1    2    0    0  0.20781715567E+02  0.27541113080E+02 -0.28960678620E+02  0.45045682565E+02  0.00000000000E+00 0.  1.
         11    1    3    3    0    0 -0.89638748215E+01 -0.10293108653E+02  0.13964428042E+02  0.19527016883E+02  0.51100000000E-03 0. -1.
        -11    1    3    3    0    0 -0.45980080706E+01 -0.42762254759E+01  0.12906271997E+01  0.64104213097E+01  0.51100000000E-03 0.  1.
        -12    1    3    3    0    0 -0.72198326752E+01 -0.12971778951E+02  0.13705623378E+02  0.20204879242E+02  0.00000000000E+00 0.  1.
</event>
<event>
 7    1  0.4452647E-009  0.4614232E+02  0.7816164E-02  0.1320468E+00
        -11   -1    0    0    0    0  0.00000000000E+00  0.00000000000E+00  0.45593999997E+02  0.45594000000E+02  0.51100000000E-03 0. -1.
         11   -1    0    0    0    0 -0.00000000000E+00 -0.00000000000E+00 -0.45593999997E+02  0.45594000000E+02  0.51100000000E-03 0.  1.
    9900012    2    1    2    0    0  0.11261876499E+02  0.31172080404E+02 -0.30505492463E+02  0.46142317306E+02  0.99999958473E+01 0.  0.
         12    1    1    2    0    0 -0.11261876499E+02 -0.31172080404E+02  0.30505492463E+02  0.45045682694E+02  0.00000000000E+00 0. -1.
         11    1    3    3    0    0  0.11357269654E+02  0.26969881750E+02 -0.23922418688E+02  0.37797410120E+02  0.51100000000E-03 0. -1.
        -11    1    3    3    0    0  0.11532619157E+01  0.89722138681E+00 -0.28642144331E+01  0.32153917092E+01  0.51100000000E-03 0.  1.
        -12    1    3    3    0    0 -0.12486550713E+01  0.33049772677E+01 -0.37188593412E+01  0.51295154768E+01  0.00000000000E+00 0.  1.
</event>
<event>
 7    1  0.4452647E-009  0.4614232E+02  0.7816164E-02  0.1320468E+00
        -11   -1    0    0    0    0  0.00000000000E+00  0.00000000000E+00  0.45593999997E+02  0.45594000000E+02  0.51100000000E-03 0. -1.
         11   -1    0    0    0    0 -0.00000000000E+00 -0.00000000000E+00 -0.45593999997E+02  0.45594000000E+02  0.51100000000E-03 0.  1.
    9900012    2    1    2    0    0 -0.85035287421E+01 -0.43209552456E+02 -0.94730179789E+01  0.46142317697E+02  0.99999994133E+01 0.  0.
         12    1    1    2    0    0  0.85035287421E+01  0.43209552456E+02  0.94730179789E+01  0.45045682303E+02  0.00000000000E+00 0. -1.
         11    1    3    3    0    0 -0.85805636693E+00 -0.17271758293E+02 -0.17924809442E+01  0.17385709173E+02  0.51100000000E-03 0. -1.
        -11    1    3    3    0    0 -0.11674555945E+01 -0.13573067231E+02 -0.24037785593E+01  0.13833627805E+02  0.51100000000E-03 0.  1.
         12    1    3    3    0    0 -0.64780167807E+01 -0.12364726932E+02 -0.52767584753E+01  0.14922980719E+02  0.00000000000E+00 0. -1.
</event>
<event>
 7    1  0.4452647E-009  0.4614231E+02  0.7816164E-02  0.1320468E+00
        -11   -1    0    0    0    0  0.00000000000E+00  0.00000000000E+00  0.45593999997E+02  0.45594000000E+02  0.51100000000E-03 0. -1.
         11   -1    0    0    0    0 -0.00000000000E+00 -0.00000000000E+00 -0.45593999997E+02  0.45594000000E+02  0.51100000000E-03 0.  1.
    9900012    2    1    2    0    0  0.34987567223E+01 -0.27103736961E+01  0.44827741647E+02  0.46142313798E+02  0.99999638648E+01 0.  0.
        -12    1    1    2    0    0 -0.34987567223E+01  0.27103736961E+01 -0.44827741647E+02  0.45045686202E+02  0.00000000000E+00 0.  1.
         11    1    3    3    0    0  0.29417010346E+01 -0.55631572332E+01  0.16603702424E+02  0.17756273760E+02  0.51100000000E-03 0.  1.
        -11    1    3    3    0    0  0.14860882013E+00  0.17113535045E+01  0.19926666692E+02  0.20000571520E+02  0.51100000000E-03 0. -1.
        -12    1    3    3    0    0  0.40844686752E+00  0.11414300325E+01  0.82973725312E+01  0.83854685190E+01  0.00000000000E+00 0.  1.
</event>
<event>
 7    1  0.4452647E-009  0.4614232E+02  0.7816164E-02  0.1320468E+00
        -11   -1    0    0    0    0  0.00000000000E+00  0.00000000000E+00  0.45593999997E+02  0.45594000000E+02  0.51100000000E-03 0.  1.
         11   -1    0    0    0    0 -0.00000000000E+00 -0.00000000000E+00 -0.45593999997E+02  0.45594000000E+02  0.51100000000E-03 0. -1.
    9900012    2    1    2    0    0 -0.11558694204E+02 -0.38164039852E+02 -0.20952709074E+02  0.46142319107E+02  0.10000012275E+02 0.  0.
         12    1    1    2    0    0  0.11558694204E+02  0.38164039852E+02  0.20952709074E+02  0.45045680893E+02  0.00000000000E+00 0. -1.
         11    1    3    3    0    0 -0.24642639510E+01 -0.13660010637E+01 -0.21416534302E+01  0.35391009314E+01  0.51100000000E-03 0. -1.
        -11    1    3    3    0    0 -0.70362890669E+01 -0.18537503847E+02 -0.90530944310E+01  0.21796947762E+02  0.51100000000E-03 0.  1.
         12    1    3    3    0    0 -0.20581411862E+01 -0.18260534942E+02 -0.97579612125E+01  0.20806270414E+02  0.00000000000E+00 0. -1.
</event>
<event>
 7    1  0.4452647E-009  0.4614232E+02  0.7816164E-02  0.1320468E+00
        -11   -1    0    0    0    0  0.00000000000E+00  0.00000000000E+00  0.45593999997E+02  0.45594000000E+02  0.51100000000E-03 0. -1.
         11   -1    0    0    0    0 -0.00000000000E+00 -0.00000000000E+00 -0.45593999997E+02  0.45594000000E+02  0.51100000000E-03 0.  1.
    9900012    2    1    2    0    0  0.60268317908E+01  0.20483887240E+02 -0.39663599514E+02  0.46142318028E+02  0.10000002435E+02 0.  0.
         12    1    1    2    0    0 -0.60268317908E+01 -0.20483887240E+02  0.39663599514E+02  0.45045681972E+02  0.00000000000E+00 0. -1.
         11    1    3    3    0    0  0.72392858888E+01  0.17274622777E+02 -0.37138988695E+02  0.41594763298E+02  0.51100000000E-03 0. -1.
        -11    1    3    3    0    0  0.26998652706E+00  0.54811152406E+00 -0.92043971363E+00  0.11047753143E+01  0.51100000000E-03 0.  1.
         12    1    3    3    0    0 -0.14824406250E+01  0.26611529383E+01 -0.16041711053E+01  0.34427794154E+01  0.00000000000E+00 0. -1.
</event>
<event>
 7    1  0.4452647E-009  0.4614232E+02  0.7816164E-02  0.1320468E+00
        -11   -1    0    0    0    0  0.00000000000E+00  0.00000000000E+00  0.45593999997E+02  0.45594000000E+02  0.51100000000E-03 0. -1.
         11   -1    0    0    0    0 -0.00000000000E+00 -0.00000000000E+00 -0.45593999997E+02  0.45594000000E+02  0.51100000000E-03 0.  1.
    9900012    2    1    2    0    0  0.19090231751E+02 -0.15860969723E+02 -0.37591304598E+02  0.46142317741E+02  0.99999998138E+01 0.  0.
         12    1    1    2    0    0 -0.19090231751E+02  0.15860969723E+02  0.37591304598E+02  0.45045682259E+02  0.00000000000E+00 0. -1.
         11    1    3    3    0    0  0.24303137310E+01 -0.29926282101E+01 -0.42183090921E+01  0.57145761254E+01  0.51100000000E-03 0. -1.
        -11    1    3    3    0    0  0.17239375562E+02 -0.11130958090E+02 -0.32405680021E+02  0.38356516990E+02  0.51100000000E-03 0.  1.
        -12    1    3    3    0    0 -0.57945754174E+00 -0.17373834226E+01 -0.96731548473E+00  0.20712246249E+01  0.00000000000E+00 0.  1.
</event>
<event>
 7    1  0.4452647E-009  0.4614232E+02  0.7816164E-02  0.1320468E+00
        -11   -1    0    0    0    0  0.00000000000E+00  0.00000000000E+00  0.45593999997E+02  0.45594000000E+02  0.51100000000E-03 0. -1.
         11   -1    0    0    0    0 -0.00000000000E+00 -0.00000000000E+00 -0.45593999997E+02  0.45594000000E+02  0.51100000000E-03 0.  1.
    9900012    2    1    2    0    0  0.14680751437E+02  0.22519046970E+01 -0.42526673597E+02  0.46142317580E+02  0.99999983458E+01 0.  0.
         12    1    1    2    0    0 -0.14680751437E+02 -0.22519046970E+01  0.42526673597E+02  0.45045682420E+02  0.00000000000E+00 0. -1.
         11    1    3    3    0    0 -0.14317411549E+01 -0.80491387426E-01 -0.19560052707E+01  0.24253491456E+01  0.51100000000E-03 0. -1.
        -11    1    3    3    0    0  0.88404359294E+01  0.14684139838E+01 -0.22288923454E+02  0.24023023458E+02  0.51100000000E-03 0.  1.
         12    1    3    3    0    0  0.72720566626E+01  0.86398210065E+00 -0.18281744872E+02  0.19693944976E+02  0.00000000000E+00 0. -1.
</event>
<event>
 7    1  0.4452647E-009  0.4614231E+02  0.7816164E-02  0.1320468E+00
        -11   -1    0    0    0    0  0.00000000000E+00  0.00000000000E+00  0.45593999997E+02  0.45594000000E+02  0.51100000000E-03 0. -1.
         11   -1    0    0    0    0 -0.00000000000E+00 -0.00000000000E+00 -0.45593999997E+02  0.45594000000E+02  0.51100000000E-03 0.  1.
    9900012    2    1    2    0    0 -0.29147554232E+02 -0.19411897840E+02  0.28332173304E+02  0.46142314973E+02  0.99999745743E+01 0.  0.
        -12    1    1    2    0    0  0.29147554232E+02  0.19411897840E+02 -0.28332173304E+02  0.45045685027E+02  0.00000000000E+00 0.  1.
         11    1    3    3    0    0 -0.89368380145E+00 -0.26779435734E+01  0.45606911999E+01  0.53637633245E+01  0.51100000000E-03 0. -1.
        -11    1    3    3    0    0 -0.34357139779E+00 -0.41023065491E+00 -0.15272001878E+00  0.55646577690E+00  0.51100000000E-03 0.  1.
         12    1    3    3    0    0 -0.27910299033E+02 -0.16323723612E+02  0.23924202122E+02  0.40222085871E+02  0.00000000000E+00 0. -1.
</event>
<event>
 7    1  0.4452647E-009  0.4614232E+02  0.7816164E-02  0.1320468E+00
        -11   -1    0    0    0    0  0.00000000000E+00  0.00000000000E+00  0.45593999997E+02  0.45594000000E+02  0.51100000000E-03 0.  1.
         11   -1    0    0    0    0 -0.00000000000E+00 -0.00000000000E+00 -0.45593999997E+02  0.45594000000E+02  0.51100000000E-03 0. -1.
    9900012    2    1    2    0    0  0.41568930828E+02 -0.78650416710E+01  0.15468629038E+02  0.46142319019E+02  0.10000011475E+02 0.  0.
        -12    1    1    2    0    0 -0.41568930828E+02  0.78650416710E+01 -0.15468629038E+02  0.45045680981E+02  0.00000000000E+00 0.  1.
         11    1    3    3    0    0  0.11570795855E+02 -0.22403678116E+01  0.30430622109E+01  0.12172213953E+02  0.51100000000E-03 0. -1.
        -11    1    3    3    0    0  0.15573543618E+02 -0.68349570446E+01  0.82615938817E+01  0.18907824633E+02  0.51100000000E-03 0.  1.
        -12    1    3    3    0    0  0.14424591356E+02  0.12102831853E+01  0.41639729454E+01  0.15062280434E+02  0.00000000000E+00 0.  1.
</event>
<event>
 7    1  0.4452647E-009  0.4614232E+02  0.7816164E-02  0.1320468E+00
        -11   -1    0    0    0    0  0.00000000000E+00  0.00000000000E+00  0.45593999997E+02  0.45594000000E+02  0.51100000000E-03 0. -1.
         11   -1    0    0    0    0 -0.00000000000E+00 -0.00000000000E+00 -0.45593999997E+02  0.45594000000E+02  0.51100000000E-03 0.  1.
    9900012    2    1    2    0    0 -0.19292664376E+02  0.95745821723E+01 -0.39563037586E+02  0.46142318015E+02  0.10000002314E+02 0.  0.
         12    1    1    2    0    0  0.19292664376E+02 -0.95745821723E+01  0.39563037586E+02  0.45045681985E+02  0.00000000000E+00 0. -1.
         11    1    3    3    0    0 -0.11217021318E+02  0.67585034276E+01 -0.20263279758E+02  0.24126737091E+02  0.51100000000E-03 0. -1.
        -11    1    3    3    0    0 -0.80771739100E+01  0.13065681078E+01 -0.11761189331E+02  0.14327366588E+02  0.51100000000E-03 0.  1.
         12    1    3    3    0    0  0.15308523804E-02  0.15095106370E+01 -0.75385684966E+01  0.76882143366E+01  0.00000000000E+00 0. -1.
</event>
<event>
 7    1  0.4452647E-009  0.4614232E+02  0.7816164E-02  0.1320468E+00
        -11   -1    0    0    0    0  0.00000000000E+00  0.00000000000E+00  0.45593999997E+02  0.45594000000E+02  0.51100000000E-03 0. -1.
         11   -1    0    0    0    0 -0.00000000000E+00 -0.00000000000E+00 -0.45593999997E+02  0.45594000000E+02  0.51100000000E-03 0.  1.
    9900012    2    1    2    0    0 -0.12029347598E+02  0.11191413427E+01 -0.43395338035E+02  0.46142322692E+02  0.10000044966E+02 0.  0.
         12    1    1    2    0    0  0.12029347598E+02 -0.11191413427E+01  0.43395338035E+02  0.45045677308E+02  0.00000000000E+00 0. -1.
         11    1    3    3    0    0 -0.76780723165E+01 -0.33469578078E+01 -0.17757613024E+02  0.19633841744E+02  0.51100000000E-03 0. -1.
        -11    1    3    3    0    0 -0.19531937988E+01  0.16375782456E+01 -0.15616761742E+02  0.15823396478E+02  0.51100000000E-03 0.  1.
         12    1    3    3    0    0 -0.23980814829E+01  0.28285209048E+01 -0.10020963268E+02  0.10685084470E+02  0.00000000000E+00 0. -1.
</event>
<event>
 7    1  0.4452647E-009  0.4614232E+02  0.7816164E-02  0.1320468E+00
        -11   -1    0    0    0    0  0.00000000000E+00  0.00000000000E+00  0.45593999997E+02  0.45594000000E+02  0.51100000000E-03 0. -1.
         11   -1    0    0    0    0 -0.00000000000E+00 -0.00000000000E+00 -0.45593999997E+02  0.45594000000E+02  0.51100000000E-03 0.  1.
    9900012    2    1    2    0    0 -0.11231091440E+02  0.56458656275E+01 -0.43256215749E+02  0.46142318580E+02  0.10000007469E+02 0.  0.
         12    1    1    2    0    0  0.11231091440E+02 -0.56458656275E+01  0.43256215749E+02  0.45045681420E+02  0.00000000000E+00 0. -1.
         11    1    3    3    0    0 -0.23278908629E+01 -0.16259124580E+01 -0.38354972210E+01  0.47721804643E+01  0.51100000000E-03 0. -1.
        -11    1    3    3    0    0 -0.46634923989E+01  0.68531497110E+01 -0.26058206471E+02  0.27344907150E+02  0.51100000000E-03 0.  1.
         12    1    3    3    0    0 -0.42397081784E+01  0.41862837451E+00 -0.13362512058E+02  0.14025230966E+02  0.00000000000E+00 0. -1.
</event>
<event>
 7    1  0.4452647E-009  0.4614233E+02  0.7816164E-02  0.1320468E+00
        -11   -1    0    0    0    0  0.00000000000E+00  0.00000000000E+00  0.45593999997E+02  0.45594000000E+02  0.51100000000E-03 0. -1.
         11   -1    0    0    0    0 -0.00000000000E+00 -0.00000000000E+00 -0.45593999997E+02  0.45594000000E+02  0.51100000000E-03 0.  1.
    9900012    2    1    2    0    0  0.77287719913E+01 -0.24362725507E+02 -0.37092268001E+02  0.46142326999E+02  0.10000084240E+02 0.  0.
         12    1    1    2    0    0 -0.77287719913E+01  0.24362725507E+02  0.37092268001E+02  0.45045673001E+02  0.00000000000E+00 0. -1.
         11    1    3    3    0    0  0.13182703794E+01  0.29129274767E+00 -0.19745548241E+01  0.23919772726E+01  0.51100000000E-03 0. -1.
        -11    1    3    3    0    0  0.47798201321E+01 -0.23278665400E+02 -0.30512107246E+02  0.38674689813E+02  0.51100000000E-03 0.  1.
        -12    1    3    3    0    0  0.16306814798E+01 -0.13753528548E+01 -0.46056059314E+01  0.50756599137E+01  0.00000000000E+00 0.  1.
</event>
<event>
 7    1  0.4452647E-009  0.4614232E+02  0.7816164E-02  0.1320468E+00
        -11   -1    0    0    0    0  0.00000000000E+00  0.00000000000E+00  0.45593999997E+02  0.45594000000E+02  0.51100000000E-03 0. -1.
         11   -1    0    0    0    0 -0.00000000000E+00 -0.00000000000E+00 -0.45593999997E+02  0.45594000000E+02  0.51100000000E-03 0.  1.
    9900012    2    1    2    0    0  0.15172348171E+02  0.24470662602E+02  0.34642456174E+02  0.46142320440E+02  0.10000024431E+02 0.  0.
        -12    1    1    2    0    0 -0.15172348171E+02 -0.24470662602E+02 -0.34642456174E+02  0.45045679560E+02  0.00000000000E+00 0.  1.
         11    1    3    3    0    0  0.96370733399E+01  0.74806629570E+01  0.11515677093E+02  0.16776302334E+02  0.51100000000E-03 0. -1.
        -11    1    3    3    0    0  0.33370724726E+01  0.10922315666E+02  0.12488106002E+02  0.16922937806E+02  0.51100000000E-03 0.  1.
         12    1    3    3    0    0  0.21982023588E+01  0.60676839787E+01  0.10638673079E+02  0.12443080300E+02  0.00000000000E+00 0. -1.
</event>
<event>
 7    1  0.4452647E-009  0.4614232E+02  0.7816164E-02  0.1320468E+00
        -11   -1    0    0    0    0  0.00000000000E+00  0.00000000000E+00  0.45593999997E+02  0.45594000000E+02  0.51100000000E-03 0. -1.
         11   -1    0    0    0    0 -0.00000000000E+00 -0.00000000000E+00 -0.45593999997E+02  0.45594000000E+02  0.51100000000E-03 0.  1.
    9900012    2    1    2    0    0 -0.61667789153E+01 -0.10153131502E+02 -0.43451101570E+02  0.46142317974E+02  0.10000001944E+02 0.  0.
         12    1    1    2    0    0  0.61667789153E+01  0.10153131502E+02  0.43451101570E+02  0.45045682026E+02  0.00000000000E+00 0. -1.
         11    1    3    3    0    0 -0.18805430768E+01 -0.54398047055E+01 -0.10191288713E+02  0.11704284831E+02  0.51100000000E-03 0. -1.
        -11    1    3    3    0    0 -0.40505317541E+01  0.65173157300E-01 -0.12774383234E+02  0.13401340317E+02  0.51100000000E-03 0.  1.
         12    1    3    3    0    0 -0.23570408443E+00 -0.47784999542E+01 -0.20485429623E+02  0.21036692826E+02  0.00000000000E+00 0. -1.
</event>
<event>
 7    1  0.4452647E-009  0.4614232E+02  0.7816164E-02  0.1320468E+00
        -11   -1    0    0    0    0  0.00000000000E+00  0.00000000000E+00  0.45593999997E+02  0.45594000000E+02  0.51100000000E-03 0. -1.
         11   -1    0    0    0    0 -0.00000000000E+00 -0.00000000000E+00 -0.45593999997E+02  0.45594000000E+02  0.51100000000E-03 0.  1.
    9900012    2    1    2    0    0 -0.10524835247E+02  0.28102691937E+02 -0.33594345939E+02  0.46142317297E+02  0.99999957711E+01 0.  0.
         12    1    1    2    0    0  0.10524835247E+02 -0.28102691937E+02  0.33594345939E+02  0.45045682703E+02  0.00000000000E+00 0. -1.
         11    1    3    3    0    0 -0.87590651791E+00  0.30874203282E+01 -0.92427030810E+01  0.97840143610E+01  0.51100000000E-03 0. -1.
        -11    1    3    3    0    0 -0.58508313699E+01  0.13349725857E+02 -0.11273970998E+02  0.18426877937E+02  0.51100000000E-03 0.  1.
        -12    1    3    3    0    0 -0.37980973594E+01  0.11665545751E+02 -0.13077671860E+02  0.17931424999E+02  0.00000000000E+00 0.  1.
</event>
<event>
 7    1  0.4452647E-009  0.4614232E+02  0.7816164E-02  0.1320468E+00
        -11   -1    0    0    0    0  0.00000000000E+00  0.00000000000E+00  0.45593999997E+02  0.45594000000E+02  0.51100000000E-03 0.  1.
         11   -1    0    0    0    0 -0.00000000000E+00 -0.00000000000E+00 -0.45593999997E+02  0.45594000000E+02  0.51100000000E-03 0. -1.
    9900012    2    1    2    0    0 -0.45018050799E+02 -0.28506158934E+00  0.15515836815E+01  0.46142316857E+02  0.99999917561E+01 0.  0.
        -12    1    1    2    0    0  0.45018050799E+02  0.28506158934E+00 -0.15515836815E+01  0.45045683143E+02  0.00000000000E+00 0.  1.
         11    1    3    3    0    0 -0.27634205561E+02  0.10626301114E+01 -0.10947463675E+01  0.27676288942E+02  0.51100000000E-03 0. -1.
        -11    1    3    3    0    0 -0.32211304949E+01 -0.16234881295E+01 -0.11759935766E+01  0.37939895262E+01  0.51100000000E-03 0.  1.
         12    1    3    3    0    0 -0.14162714743E+02  0.27579642881E+00  0.38223236257E+01  0.14672038388E+02  0.00000000000E+00 0. -1.
</event>
<event>
 7    1  0.6755325E-009  0.4614232E+02  0.7816164E-02  0.1320468E+00
        -11   -1    0    0    0    0  0.00000000000E+00  0.00000000000E+00  0.45593999997E+02  0.45594000000E+02  0.51100000000E-03 0. -1.
         11   -1    0    0    0    0 -0.00000000000E+00 -0.00000000000E+00 -0.45593999997E+02  0.45594000000E+02  0.51100000000E-03 0.  1.
    9900012    2    1    2    0    0 -0.30267678657E+02  0.85488167000E+01  0.32247463261E+02  0.46142317355E+02  0.99999962957E+01 0.  0.
        -12    1    1    2    0    0  0.30267678657E+02 -0.85488167000E+01 -0.32247463261E+02  0.45045682645E+02  0.00000000000E+00 0.  1.
         11    1    3    3    0    0 -0.17726393816E+02  0.72911866936E+00  0.13939538806E+02  0.22562521892E+02  0.51100000000E-03 0. -1.
        -11    1    3    3    0    0 -0.54347089245E+01  0.41386986194E+01  0.77416368996E+01  0.10324622487E+02  0.51100000000E-03 0.  1.
         12    1    3    3    0    0 -0.71065759161E+01  0.36809994112E+01  0.10566287555E+02  0.13255172975E+02  0.00000000000E+00 0. -1.
</event>
<event>
 7    1  0.4452647E-009  0.4614232E+02  0.7816164E-02  0.1320468E+00
        -11   -1    0    0    0    0  0.00000000000E+00  0.00000000000E+00  0.45593999997E+02  0.45594000000E+02  0.51100000000E-03 0. -1.
         11   -1    0    0    0    0 -0.00000000000E+00 -0.00000000000E+00 -0.45593999997E+02  0.45594000000E+02  0.51100000000E-03 0.  1.
    9900012    2    1    2    0    0 -0.10722099514E+02  0.43650447287E+01  0.43532705324E+02  0.46142318006E+02  0.10000002235E+02 0.  0.
        -12    1    1    2    0    0  0.10722099514E+02 -0.43650447287E+01 -0.43532705324E+02  0.45045681994E+02  0.00000000000E+00 0.  1.
         11    1    3    3    0    0 -0.20055981983E+01  0.33000401310E+01  0.25797932710E+02  0.26085360288E+02  0.51100000000E-03 0. -1.
        -11    1    3    3    0    0 -0.24073559340E+00  0.82883469680E+00  0.21118544430E+01  0.22814140418E+01  0.51100000000E-03 0.  1.
         12    1    3    3    0    0 -0.84757657228E+01  0.23616990091E+00  0.15622918171E+02  0.17775543676E+02  0.00000000000E+00 0. -1.
</event>
<event>
 7    1  0.4452647E-009  0.4614232E+02  0.7816164E-02  0.1320468E+00
        -11   -1    0    0    0    0  0.00000000000E+00  0.00000000000E+00  0.45593999997E+02  0.45594000000E+02  0.51100000000E-03 0. -1.
         11   -1    0    0    0    0 -0.00000000000E+00 -0.00000000000E+00 -0.45593999997E+02  0.45594000000E+02  0.51100000000E-03 0.  1.
    9900012    2    1    2    0    0 -0.12065281798E+02 -0.34867027464E+02 -0.25842458960E+02  0.46142319695E+02  0.10000017635E+02 0.  0.
         12    1    1    2    0    0  0.12065281798E+02  0.34867027464E+02  0.25842458960E+02  0.45045680305E+02  0.00000000000E+00 0. -1.
         11    1    3    3    0    0 -0.19011126904E+01 -0.30740247016E+01 -0.45744615842E+01  0.58300562925E+01  0.51100000000E-03 0. -1.
        -11    1    3    3    0    0 -0.31215273229E+01 -0.13717182892E+02 -0.13236638411E+02  0.19316149616E+02  0.51100000000E-03 0.  1.
         12    1    3    3    0    0 -0.70426417845E+01 -0.18075819871E+02 -0.80313589645E+01  0.20996113786E+02  0.00000000000E+00 0. -1.
</event>
<event>
 7    1  0.4452647E-009  0.4614232E+02  0.7816164E-02  0.1320468E+00
        -11   -1    0    0    0    0  0.00000000000E+00  0.00000000000E+00  0.45593999997E+02  0.45594000000E+02  0.51100000000E-03 0. -1.
         11   -1    0    0    0    0 -0.00000000000E+00 -0.00000000000E+00 -0.45593999997E+02  0.45594000000E+02  0.51100000000E-03 0.  1.
    9900012    2    1    2    0    0 -0.23143296221E+02  0.18126574470E+02  0.34131050717E+02  0.46142317798E+02  0.10000000337E+02 0.  0.
        -12    1    1    2    0    0  0.23143296221E+02 -0.18126574470E+02 -0.34131050717E+02  0.45045682202E+02  0.00000000000E+00 0.  1.
         11    1    3    3    0    0 -0.15626322400E+02  0.11793457994E+02  0.21419290428E+02  0.29018159933E+02  0.51100000000E-03 0. -1.
        -11    1    3    3    0    0 -0.35564827514E+01  0.65841467011E+01  0.77938995411E+01  0.10804833532E+02  0.51100000000E-03 0.  1.
        -12    1    3    3    0    0 -0.39604910697E+01 -0.25103022468E+00  0.49178607482E+01  0.63193243330E+01  0.00000000000E+00 0.  1.
</event>
<event>
 7    1  0.4452647E-009  0.4614232E+02  0.7816164E-02  0.1320468E+00
        -11   -1    0    0    0    0  0.00000000000E+00  0.00000000000E+00  0.45593999997E+02  0.45594000000E+02  0.51100000000E-03 0. -1.
         11   -1    0    0    0    0 -0.00000000000E+00 -0.00000000000E+00 -0.45593999997E+02  0.45594000000E+02  0.51100000000E-03 0.  1.
    9900012    2    1    2    0    0 -0.30246021605E+01  0.18093621322E+02 -0.41141051182E+02  0.46142318263E+02  0.10000004577E+02 0.  0.
         12    1    1    2    0    0  0.30246021605E+01 -0.18093621322E+02  0.41141051182E+02  0.45045681737E+02  0.00000000000E+00 0. -1.
         11    1    3    3    0    0  0.25958712760E+01  0.44878355252E+01 -0.14584535522E+02  0.15478626942E+02  0.51100000000E-03 0. -1.
        -11    1    3    3    0    0 -0.49440034367E+01  0.10186655375E+02 -0.16427563402E+02  0.19951840950E+02  0.51100000000E-03 0.  1.
        -12    1    3    3    0    0 -0.67646999983E+00  0.34191304218E+01 -0.10128952258E+02  0.10711850370E+02  0.00000000000E+00 0.  1.
</event>
<event>
 7    1  0.4452647E-009  0.4614232E+02  0.7816164E-02  0.1320468E+00
        -11   -1    0    0    0    0  0.00000000000E+00  0.00000000000E+00  0.45593999997E+02  0.45594000000E+02  0.51100000000E-03 0.  1.
         11   -1    0    0    0    0 -0.00000000000E+00 -0.00000000000E+00 -0.45593999997E+02  0.45594000000E+02  0.51100000000E-03 0. -1.
    9900012    2    1    2    0    0  0.76797252968E+01 -0.44318718723E+02  0.24467571896E+01  0.46142316182E+02  0.99999855995E+01 0.  0.
         12    1    1    2    0    0 -0.76797252968E+01  0.44318718723E+02 -0.24467571896E+01  0.45045683818E+02  0.00000000000E+00 0. -1.
         11    1    3    3    0    0  0.74808383412E+01 -0.33065382677E+02  0.28991222931E+01  0.34024805425E+02  0.51100000000E-03 0. -1.
        -11    1    3    3    0    0  0.57559112858E+00 -0.97967726172E+01  0.11954298618E+01  0.98862081546E+01  0.51100000000E-03 0.  1.
         12    1    3    3    0    0 -0.37670417301E+00 -0.14565634291E+01 -0.16477949653E+01  0.22313026026E+01  0.00000000000E+00 0. -1.
</event>
<event>
 7    1  0.4452647E-009  0.4614232E+02  0.7816164E-02  0.1320468E+00
        -11   -1    0    0    0    0  0.00000000000E+00  0.00000000000E+00  0.45593999997E+02  0.45594000000E+02  0.51100000000E-03 0. -1.
         11   -1    0    0    0    0 -0.00000000000E+00 -0.00000000000E+00 -0.45593999997E+02  0.45594000000E+02  0.51100000000E-03 0.  1.
    9900012    2    1    2    0    0  0.11378877934E+02  0.43151751992E+02  0.61286979708E+01  0.46142317611E+02  0.99999986343E+01 0.  0.
        -12    1    1    2    0    0 -0.11378877934E+02 -0.43151751992E+02 -0.61286979708E+01  0.45045682389E+02  0.00000000000E+00 0.  1.
         11    1    3    3    0    0  0.23858525854E+01  0.14049227578E+02  0.77757900009E+00  0.14271570252E+02  0.51100000000E-03 0. -1.
        -11    1    3    3    0    0  0.14104265498E+01  0.12850856090E+02 -0.69158487329E+00  0.12946508996E+02  0.51100000000E-03 0.  1.
        -12    1    3    3    0    0  0.75825987987E+01  0.16251668325E+02  0.60427038439E+01  0.18924238363E+02  0.00000000000E+00 0.  1.
</event>
<event>
 7    1  0.4452647E-009  0.4614232E+02  0.7816164E-02  0.1320468E+00
        -11   -1    0    0    0    0  0.00000000000E+00  0.00000000000E+00  0.45593999997E+02  0.45594000000E+02  0.51100000000E-03 0. -1.
         11   -1    0    0    0    0 -0.00000000000E+00 -0.00000000000E+00 -0.45593999997E+02  0.45594000000E+02  0.51100000000E-03 0.  1.
    9900012    2    1    2    0    0  0.34468767047E+02 -0.27970926237E+02  0.76579927015E+01  0.46142317982E+02  0.10000002010E+02 0.  0.
        -12    1    1    2    0    0 -0.34468767047E+02  0.27970926237E+02 -0.76579927015E+01  0.45045682018E+02  0.00000000000E+00 0.  1.
         11    1    3    3    0    0  0.16259953752E+02 -0.11435216206E+02  0.23425639447E+01  0.20015940442E+02  0.51100000000E-03 0. -1.
        -11    1    3    3    0    0  0.67728981376E-01 -0.22820259787E+01  0.15266796902E+01  0.27464487834E+01  0.51100000000E-03 0.  1.
        -12    1    3    3    0    0  0.18141084314E+02 -0.14253684052E+02  0.37887490666E+01  0.23379928756E+02  0.00000000000E+00 0.  1.
</event>
<event>
 7    1  0.4452647E-009  0.4614232E+02  0.7816164E-02  0.1320468E+00
        -11   -1    0    0    0    0  0.00000000000E+00  0.00000000000E+00  0.45593999997E+02  0.45594000000E+02  0.51100000000E-03 0.  1.
         11   -1    0    0    0    0 -0.00000000000E+00 -0.00000000000E+00 -0.45593999997E+02  0.45594000000E+02  0.51100000000E-03 0. -1.
    9900012    2    1    2    0    0 -0.22983446760E+02  0.37400183878E+02  0.10104493475E+02  0.46142319103E+02  0.10000012239E+02 0.  0.
        -12    1    1    2    0    0  0.22983446760E+02 -0.37400183878E+02 -0.10104493475E+02  0.45045680897E+02  0.00000000000E+00 0.  1.
         11    1    3    3    0    0 -0.17089866554E+02  0.28316071429E+02  0.11341429228E+02  0.34964145309E+02  0.51100000000E-03 0. -1.
        -11    1    3    3    0    0 -0.18993401782E+01  0.31092867310E+01 -0.16059545012E+01  0.39817392192E+01  0.51100000000E-03 0.  1.
         12    1    3    3    0    0 -0.39942400278E+01  0.59748257176E+01  0.36901874847E+00  0.71964345749E+01  0.00000000000E+00 0. -1.
</event>
<event>
 7    1  0.4452647E-009  0.4614233E+02  0.7816164E-02  0.1320468E+00
        -11   -1    0    0    0    0  0.00000000000E+00  0.00000000000E+00  0.45593999997E+02  0.45594000000E+02  0.51100000000E-03 0. -1.
         11   -1    0    0    0    0 -0.00000000000E+00 -0.00000000000E+00 -0.45593999997E+02  0.45594000000E+02  0.51100000000E-03 0.  1.
    9900012    2    1    2    0    0 -0.22149231483E+02  0.83382222434E+01 -0.38327512844E+02  0.46142327108E+02  0.10000085232E+02 0.  0.
         12    1    1    2    0    0  0.22149231483E+02 -0.83382222434E+01  0.38327512844E+02  0.45045672892E+02  0.00000000000E+00 0. -1.
         11    1    3    3    0    0 -0.63010552584E+00 -0.57264919564E+00 -0.11874395248E+01  0.14611546671E+01  0.51100000000E-03 0. -1.
        -11    1    3    3    0    0 -0.19850449713E+02  0.49784784259E+01 -0.29085439696E+02  0.35563863736E+02  0.51100000000E-03 0.  1.
        -12    1    3    3    0    0 -0.16686762440E+01  0.39323930131E+01 -0.80546336229E+01  0.91173087047E+01  0.00000000000E+00 0.  1.
</event>
<event>
 7    1  0.4452647E-009  0.4614232E+02  0.7816164E-02  0.1320468E+00
        -11   -1    0    0    0    0  0.00000000000E+00  0.00000000000E+00  0.45593999997E+02  0.45594000000E+02  0.51100000000E-03 0. -1.
         11   -1    0    0    0    0 -0.00000000000E+00 -0.00000000000E+00 -0.45593999997E+02  0.45594000000E+02  0.51100000000E-03 0.  1.
    9900012    2    1    2    0    0  0.35730494610E+02 -0.21172379674E+02 -0.17440630888E+02  0.46142317500E+02  0.99999976197E+01 0.  0.
         12    1    1    2    0    0 -0.35730494610E+02  0.21172379674E+02  0.17440630888E+02  0.45045682500E+02  0.00000000000E+00 0. -1.
         11    1    3    3    0    0  0.10516284923E+02 -0.61719488263E+01 -0.93269972773E+00  0.12229273483E+02  0.51100000000E-03 0.  1.
        -11    1    3    3    0    0  0.12283214869E+02 -0.68957899762E+01 -0.10239744805E+02  0.17414983802E+02  0.51100000000E-03 0. -1.
         12    1    3    3    0    0  0.12930994819E+02 -0.81046408714E+01 -0.62681863551E+01  0.16498060214E+02  0.00000000000E+00 0. -1.
</event>
<event>
 7    1  0.4452647E-009  0.4614231E+02  0.7816164E-02  0.1320468E+00
        -11   -1    0    0    0    0  0.00000000000E+00  0.00000000000E+00  0.45593999997E+02  0.45594000000E+02  0.51100000000E-03 0. -1.
         11   -1    0    0    0    0 -0.00000000000E+00 -0.00000000000E+00 -0.45593999997E+02  0.45594000000E+02  0.51100000000E-03 0.  1.
    9900012    2    1    2    0    0  0.11586517906E+02  0.24423118778E+02  0.36033009625E+02  0.46142313073E+02  0.99999572542E+01 0.  0.
        -12    1    1    2    0    0 -0.11586517906E+02 -0.24423118778E+02 -0.36033009625E+02  0.45045686927E+02  0.00000000000E+00 0.  1.
         11    1    3    3    0    0  0.47789804509E+01  0.91155467780E+01  0.11964084834E+02  0.15781988892E+02  0.51100000000E-03 0. -1.
        -11    1    3    3    0    0  0.83938089255E+00  0.62278734662E+01  0.37482912515E+01  0.73171480620E+01  0.51100000000E-03 0.  1.
        -12    1    3    3    0    0  0.59681565627E+01  0.90796985342E+01  0.20320633540E+02  0.23043176120E+02  0.00000000000E+00 0.  1.
</event>
<event>
 7    1  0.4452647E-009  0.4614232E+02  0.7816164E-02  0.1320468E+00
        -11   -1    0    0    0    0  0.00000000000E+00  0.00000000000E+00  0.45593999997E+02  0.45594000000E+02  0.51100000000E-03 0. -1.
         11   -1    0    0    0    0 -0.00000000000E+00 -0.00000000000E+00 -0.45593999997E+02  0.45594000000E+02  0.51100000000E-03 0.  1.
    9900012    2    1    2    0    0  0.32523241865E+02  0.25890394506E+02  0.17350494407E+02  0.46142318239E+02  0.10000004362E+02 0.  0.
        -12    1    1    2    0    0 -0.32523241865E+02 -0.25890394506E+02 -0.17350494407E+02  0.45045681761E+02  0.00000000000E+00 0.  1.
         11    1    3    3    0    0  0.14876300661E+02  0.11690765899E+02  0.67417255363E+01  0.20085546847E+02  0.51100000000E-03 0. -1.
        -11    1    3    3    0    0  0.72070205841E+01  0.80282541505E+01  0.85277342413E+01  0.13751954841E+02  0.51100000000E-03 0.  1.
        -12    1    3    3    0    0  0.10439920620E+02  0.61713744569E+01  0.20810346295E+01  0.12304816551E+02  0.00000000000E+00 0.  1.
</event>
<event>
 7    1  0.4452647E-009  0.4614232E+02  0.7816164E-02  0.1320468E+00
        -11   -1    0    0    0    0  0.00000000000E+00  0.00000000000E+00  0.45593999997E+02  0.45594000000E+02  0.51100000000E-03 0. -1.
         11   -1    0    0    0    0 -0.00000000000E+00 -0.00000000000E+00 -0.45593999997E+02  0.45594000000E+02  0.51100000000E-03 0.  1.
    9900012    2    1    2    0    0 -0.13808326322E+01 -0.10551120363E+02  0.43770774653E+02  0.46142317039E+02  0.99999934164E+01 0.  0.
        -12    1    1    2    0    0  0.13808326322E+01  0.10551120363E+02 -0.43770774653E+02  0.45045682961E+02  0.00000000000E+00 0.  1.
         11    1    3    3    0    0 -0.20439815819E+01 -0.45546209290E+01  0.13773890971E+02  0.14650682757E+02  0.51100000000E-03 0. -1.
        -11    1    3    3    0    0 -0.61844114771E+00 -0.17721171193E+01  0.23850341720E+02  0.23924081361E+02  0.51100000000E-03 0.  1.
        -12    1    3    3    0    0  0.12815900974E+01 -0.42243823145E+01  0.61465419618E+01  0.75675529205E+01  0.00000000000E+00 0.  1.
</event>
<event>
 7    1  0.4657612E-009  0.4614232E+02  0.7816164E-02  0.1320468E+00
        -11   -1    0    0    0    0  0.00000000000E+00  0.00000000000E+00  0.45593999997E+02  0.45594000000E+02  0.51100000000E-03 0. -1.
         11   -1    0    0    0    0 -0.00000000000E+00 -0.00000000000E+00 -0.45593999997E+02  0.45594000000E+02  0.51100000000E-03 0.  1.
    9900012    2    1    2    0    0 -0.14035695678E+02  0.15454029341E+02  0.39915981739E+02  0.46142319028E+02  0.10000011551E+02 0.  0.
        -12    1    1    2    0    0  0.14035695678E+02 -0.15454029341E+02 -0.39915981739E+02  0.45045680972E+02  0.00000000000E+00 0.  1.
         11    1    3    3    0    0 -0.11541908936E+02  0.10580913965E+02  0.22023305418E+02  0.27022164681E+02  0.51100000000E-03 0. -1.
        -11    1    3    3    0    0 -0.24311673534E+01  0.55122462731E+01  0.16860346725E+02  0.17904377275E+02  0.51100000000E-03 0.  1.
         12    1    3    3    0    0 -0.62619388651E-01 -0.63913089779E+00  0.10323295964E+01  0.12157770716E+01  0.00000000000E+00 0. -1.
</event>
<event>
 7    1  0.4452647E-009  0.4614232E+02  0.7816164E-02  0.1320468E+00
        -11   -1    0    0    0    0  0.00000000000E+00  0.00000000000E+00  0.45593999997E+02  0.45594000000E+02  0.51100000000E-03 0.  1.
         11   -1    0    0    0    0 -0.00000000000E+00 -0.00000000000E+00 -0.45593999997E+02  0.45594000000E+02  0.51100000000E-03 0. -1.
    9900012    2    1    2    0    0 -0.26339378572E+01  0.44857451667E+02  0.31598953017E+01  0.46142317222E+02  0.99999950796E+01 0.  0.
        -12    1    1    2    0    0  0.26339378572E+01 -0.44857451667E+02 -0.31598953017E+01  0.45045682778E+02  0.00000000000E+00 0.  1.
         11    1    3    3    0    0 -0.15464573635E+01  0.23334466585E+02  0.91290321566E+00  0.23403466703E+02  0.51100000000E-03 0. -1.
        -11    1    3    3    0    0 -0.21447111238E+01  0.88870565841E+01  0.39232756039E+01  0.99484497414E+01  0.51100000000E-03 0.  1.
         12    1    3    3    0    0  0.10572306302E+01  0.12635928498E+02 -0.16762835179E+01  0.12790400777E+02  0.00000000000E+00 0. -1.
</event>
<event>
 7    1  0.4452647E-009  0.4614232E+02  0.7816164E-02  0.1320468E+00
        -11   -1    0    0    0    0  0.00000000000E+00  0.00000000000E+00  0.45593999997E+02  0.45594000000E+02  0.51100000000E-03 0. -1.
         11   -1    0    0    0    0 -0.00000000000E+00 -0.00000000000E+00 -0.45593999997E+02  0.45594000000E+02  0.51100000000E-03 0.  1.
    9900012    2    1    2    0    0  0.17231173854E+01 -0.35846365546E+02 -0.27224665656E+02  0.46142317893E+02  0.10000001203E+02 0.  0.
         12    1    1    2    0    0 -0.17231173854E+01  0.35846365546E+02  0.27224665656E+02  0.45045682107E+02  0.00000000000E+00 0. -1.
         11    1    3    3    0    0 -0.20269921585E+01 -0.65839687214E+01 -0.18874939825E+01  0.71428268304E+01  0.51100000000E-03 0. -1.
        -11    1    3    3    0    0  0.82956105798E+00 -0.65057755522E+01 -0.40908591828E+01  0.77297099686E+01  0.51100000000E-03 0.  1.
         12    1    3    3    0    0  0.29205484859E+01 -0.22756621272E+02 -0.21246312491E+02  0.31269781094E+02  0.00000000000E+00 0. -1.
</event>
<event>
 7    1  0.4452647E-009  0.4614232E+02  0.7816164E-02  0.1320468E+00
        -11   -1    0    0    0    0  0.00000000000E+00  0.00000000000E+00  0.45593999997E+02  0.45594000000E+02  0.51100000000E-03 0. -1.
         11   -1    0    0    0    0 -0.00000000000E+00 -0.00000000000E+00 -0.45593999997E+02  0.45594000000E+02  0.51100000000E-03 0.  1.
    9900012    2    1    2    0    0 -0.23704011761E+02  0.32097197322E+02 -0.20904623097E+02  0.46142317450E+02  0.99999971641E+01 0.  0.
         12    1    1    2    0    0  0.23704011761E+02 -0.32097197322E+02  0.20904623097E+02  0.45045682550E+02  0.00000000000E+00 0. -1.
         11    1    3    3    0    0 -0.78761836299E+01  0.15540591680E+02 -0.62062796417E+01  0.18494922698E+02  0.51100000000E-03 0. -1.
        -11    1    3    3    0    0 -0.21987292365E+01  0.51982122239E+01 -0.41650196106E+01  0.70144999250E+01  0.51100000000E-03 0.  1.
        -12    1    3    3    0    0 -0.13629098895E+02  0.11358393419E+02 -0.10533323845E+02  0.20632894828E+02  0.00000000000E+00 0.  1.
</event>
<event>
 7    1  0.4452647E-009  0.4614232E+02  0.7816164E-02  0.1320468E+00
        -11   -1    0    0    0    0  0.00000000000E+00  0.00000000000E+00  0.45593999997E+02  0.45594000000E+02  0.51100000000E-03 0. -1.
         11   -1    0    0    0    0 -0.00000000000E+00 -0.00000000000E+00 -0.45593999997E+02  0.45594000000E+02  0.51100000000E-03 0.  1.
    9900012    2    1    2    0    0  0.15090709637E+02  0.21556577490E+02 -0.36560878880E+02  0.46142318577E+02  0.10000007438E+02 0.  0.
         12    1    1    2    0    0 -0.15090709637E+02 -0.21556577490E+02  0.36560878880E+02  0.45045681423E+02  0.00000000000E+00 0. -1.
         11    1    3    3    0    0  0.22676485591E+01  0.10675872624E+01 -0.31547069943E+01  0.40291623238E+01  0.51100000000E-03 0. -1.
        -11    1    3    3    0    0  0.48267664415E+01  0.18286110820E+01 -0.89183279693E+01  0.10304274201E+02  0.51100000000E-03 0.  1.
        -12    1    3    3    0    0  0.79962946362E+01  0.18660379146E+02 -0.24487843916E+02  0.31808882052E+02  0.00000000000E+00 0.  1.
</event>
<event>
 7    1  0.4452647E-009  0.4614232E+02  0.7816164E-02  0.1320468E+00
        -11   -1    0    0    0    0  0.00000000000E+00  0.00000000000E+00  0.45593999997E+02  0.45594000000E+02  0.51100000000E-03 0. -1.
         11   -1    0    0    0    0 -0.00000000000E+00 -0.00000000000E+00 -0.45593999997E+02  0.45594000000E+02  0.51100000000E-03 0.  1.
    9900012    2    1    2    0    0 -0.81266406037E+01  0.24148399237E+02 -0.37147355633E+02  0.46142317591E+02  0.99999984458E+01 0.  0.
         12    1    1    2    0    0  0.81266406037E+01 -0.24148399237E+02  0.37147355633E+02  0.45045682409E+02  0.00000000000E+00 0. -1.
         11    1    3    3    0    0  0.10454626470E+01  0.13799736486E+01 -0.53864901193E+00  0.18131360777E+01  0.51100000000E-03 0. -1.
        -11    1    3    3    0    0 -0.82337279481E+01  0.22457754128E+02 -0.34289075577E+02  0.41807722977E+02  0.51100000000E-03 0.  1.
         12    1    3    3    0    0 -0.93837530256E+00  0.31067146034E+00 -0.23196310445E+01  0.25214585357E+01  0.00000000000E+00 0. -1.
</event>
<event>
 7    1  0.4452647E-009  0.4614231E+02  0.7816164E-02  0.1320468E+00
        -11   -1    0    0    0    0  0.00000000000E+00  0.00000000000E+00  0.45593999997E+02  0.45594000000E+02  0.51100000000E-03 0. -1.
         11   -1    0    0    0    0 -0.00000000000E+00 -0.00000000000E+00 -0.45593999997E+02  0.45594000000E+02  0.51100000000E-03 0.  1.
    9900012    2    1    2    0    0  0.32882584940E+02  0.16246512015E+02 -0.26151485704E+02  0.46142314862E+02  0.99999735670E+01 0.  0.
         12    1    1    2    0    0 -0.32882584940E+02 -0.16246512015E+02  0.26151485704E+02  0.45045685138E+02  0.00000000000E+00 0. -1.
         11    1    3    3    0    0  0.15565620260E+01 -0.10244902878E+01 -0.15306589463E+01  0.24115104731E+01  0.51100000000E-03 0. -1.
        -11    1    3    3    0    0  0.19726490304E+02  0.13600711563E+02 -0.15744071516E+02  0.28670360356E+02  0.51100000000E-03 0.  1.
         12    1    3    3    0    0  0.11599532609E+02  0.36702907400E+01 -0.88767552417E+01  0.15060444034E+02  0.00000000000E+00 0. -1.
</event>
<event>
 7    1  0.4452647E-009  0.4614231E+02  0.7816164E-02  0.1320468E+00
        -11   -1    0    0    0    0  0.00000000000E+00  0.00000000000E+00  0.45593999997E+02  0.45594000000E+02  0.51100000000E-03 0. -1.
         11   -1    0    0    0    0 -0.00000000000E+00 -0.00000000000E+00 -0.45593999997E+02  0.45594000000E+02  0.51100000000E-03 0.  1.
    9900012    2    1    2    0    0 -0.22906127767E+02 -0.12816058548E+02 -0.36608356822E+02  0.46142313911E+02  0.99999648941E+01 0.  0.
         12    1    1    2    0    0  0.22906127767E+02  0.12816058548E+02  0.36608356822E+02  0.45045686089E+02  0.00000000000E+00 0. -1.
         11    1    3    3    0    0 -0.53558624086E+01 -0.32032210348E+00 -0.51321476905E+01  0.74247429968E+01  0.51100000000E-03 0. -1.
        -11    1    3    3    0    0 -0.50815791366E+01 -0.52822452423E+01 -0.15861874304E+02  0.17473511897E+02  0.51100000000E-03 0.  1.
        -12    1    3    3    0    0 -0.12468686222E+02 -0.72134912019E+01 -0.15614334827E+02  0.21244059017E+02  0.00000000000E+00 0.  1.
</event>
<event>
 7    1  0.4452647E-009  0.4614232E+02  0.7816164E-02  0.1320468E+00
        -11   -1    0    0    0    0  0.00000000000E+00  0.00000000000E+00  0.45593999997E+02  0.45594000000E+02  0.51100000000E-03 0. -1.
         11   -1    0    0    0    0 -0.00000000000E+00 -0.00000000000E+00 -0.45593999997E+02  0.45594000000E+02  0.51100000000E-03 0.  1.
    9900012    2    1    2    0    0  0.31658344039E+01 -0.16673325375E+02 -0.41726384148E+02  0.46142318513E+02  0.10000006857E+02 0.  0.
         12    1    1    2    0    0 -0.31658344039E+01  0.16673325375E+02  0.41726384148E+02  0.45045681487E+02  0.00000000000E+00 0. -1.
         11    1    3    3    0    0 -0.50667422754E+00  0.91703202322E+00 -0.31684371198E+01  0.33371635483E+01  0.51100000000E-03 0. -1.
        -11    1    3    3    0    0  0.38455872292E+01 -0.15006560818E+02 -0.28714754635E+02  0.32627021665E+02  0.51100000000E-03 0.  1.
        -12    1    3    3    0    0 -0.17307859774E+00 -0.25837965795E+01 -0.98431923939E+01  0.10178133300E+02  0.00000000000E+00 0.  1.
</event>
<event>
 7    1  0.4452647E-009  0.4614232E+02  0.7816164E-02  0.1320468E+00
        -11   -1    0    0    0    0  0.00000000000E+00  0.00000000000E+00  0.45593999997E+02  0.45594000000E+02  0.51100000000E-03 0.  1.
         11   -1    0    0    0    0 -0.00000000000E+00 -0.00000000000E+00 -0.45593999997E+02  0.45594000000E+02  0.51100000000E-03 0. -1.
    9900012    2    1    2    0    0 -0.15899320774E+02  0.39489463932E+02  0.14727781164E+02  0.46142315404E+02  0.99999785032E+01 0.  0.
        -12    1    1    2    0    0  0.15899320774E+02 -0.39489463932E+02 -0.14727781164E+02  0.45045684596E+02  0.00000000000E+00 0.  1.
         11    1    3    3    0    0 -0.43175433951E+01  0.11411383847E+02  0.33332481197E+01  0.12647980296E+02  0.51100000000E-03 0. -1.
        -11    1    3    3    0    0 -0.77949197967E+01  0.26069693236E+02  0.98511851163E+01  0.28938478338E+02  0.51100000000E-03 0.  1.
        -12    1    3    3    0    0 -0.37868575819E+01  0.20083868494E+01  0.15433479282E+01  0.45558567701E+01  0.00000000000E+00 0.  1.
</event>
<event>
 7    1  0.4452647E-009  0.4614232E+02  0.7816164E-02  0.1320468E+00
        -11   -1    0    0    0    0  0.00000000000E+00  0.00000000000E+00  0.45593999997E+02  0.45594000000E+02  0.51100000000E-03 0. -1.
         11   -1    0    0    0    0 -0.00000000000E+00 -0.00000000000E+00 -0.45593999997E+02  0.45594000000E+02  0.51100000000E-03 0.  1.
    9900012    2    1    2    0    0 -0.37954688973E+02  0.85534815555E+01  0.22702266991E+02  0.46142318872E+02  0.10000010128E+02 0.  0.
        -12    1    1    2    0    0  0.37954688973E+02 -0.85534815555E+01 -0.22702266991E+02  0.45045681128E+02  0.00000000000E+00 0.  1.
         11    1    3    3    0    0 -0.18381079061E+02  0.83679916233E+01  0.11769088330E+02  0.23375174687E+02  0.51100000000E-03 0. -1.
        -11    1    3    3    0    0 -0.98122549898E+01 -0.18815321113E+01  0.53373145772E+01  0.11327287329E+02  0.51100000000E-03 0.  1.
        -12    1    3    3    0    0 -0.97613549226E+01  0.20670220435E+01  0.55958640838E+01  0.11439856856E+02  0.00000000000E+00 0.  1.
</event>
<event>
 7    1  0.4741556E-009  0.4614232E+02  0.7816164E-02  0.1320468E+00
        -11   -1    0    0    0    0  0.00000000000E+00  0.00000000000E+00  0.45593999997E+02  0.45594000000E+02  0.51100000000E-03 0. -1.
         11   -1    0    0    0    0 -0.00000000000E+00 -0.00000000000E+00 -0.45593999997E+02  0.45594000000E+02  0.51100000000E-03 0.  1.
    9900012    2    1    2    0    0  0.17521905919E+02  0.68405756985E+01  0.40930462907E+02  0.46142318113E+02  0.10000003207E+02 0.  0.
        -12    1    1    2    0    0 -0.17521905919E+02 -0.68405756985E+01 -0.40930462907E+02  0.45045681887E+02  0.00000000000E+00 0.  1.
         11    1    3    3    0    0  0.10646899277E+02  0.56988019551E+01  0.22024950100E+02  0.25118344593E+02  0.51100000000E-03 0. -1.
        -11    1    3    3    0    0  0.94704612064E+00 -0.21863087499E+00 -0.18379215427E+00  0.98917927152E+00  0.51100000000E-03 0.  1.
         12    1    3    3    0    0  0.59279605216E+01  0.13604046184E+01  0.19089304962E+02  0.20034794249E+02  0.00000000000E+00 0. -1.
</event>
<event>
 7    1  0.4452647E-009  0.4614232E+02  0.7816164E-02  0.1320468E+00
        -11   -1    0    0    0    0  0.00000000000E+00  0.00000000000E+00  0.45593999997E+02  0.45594000000E+02  0.51100000000E-03 0. -1.
         11   -1    0    0    0    0 -0.00000000000E+00 -0.00000000000E+00 -0.45593999997E+02  0.45594000000E+02  0.51100000000E-03 0.  1.
    9900012    2    1    2    0    0 -0.18605000665E+02 -0.26277803657E+02  0.31503086397E+02  0.46142317995E+02  0.10000002132E+02 0.  0.
        -12    1    1    2    0    0  0.18605000665E+02  0.26277803657E+02 -0.31503086397E+02  0.45045682005E+02  0.00000000000E+00 0.  1.
         11    1    3    3    0    0 -0.53956887159E+01 -0.28391192825E+01  0.79973337543E+01  0.10056411013E+02  0.51100000000E-03 0. -1.
        -11    1    3    3    0    0 -0.31529368033E+01 -0.10426587339E+02  0.83944321362E+01  0.13752135295E+02  0.51100000000E-03 0.  1.
         12    1    3    3    0    0 -0.10056375146E+02 -0.13012097036E+02  0.15111320506E+02  0.22333771688E+02  0.00000000000E+00 0. -1.
</event>
<event>
 7    1  0.5331941E-009  0.4614232E+02  0.7816164E-02  0.1320468E+00
        -11   -1    0    0    0    0  0.00000000000E+00  0.00000000000E+00  0.45593999997E+02  0.45594000000E+02  0.51100000000E-03 0. -1.
         11   -1    0    0    0    0 -0.00000000000E+00 -0.00000000000E+00 -0.45593999997E+02  0.45594000000E+02  0.51100000000E-03 0.  1.
    9900012    2    1    2    0    0 -0.82191802186E+01  0.67448119545E+01  0.43772892098E+02  0.46142317694E+02  0.99999993900E+01 0.  0.
        -12    1    1    2    0    0  0.82191802186E+01 -0.67448119545E+01 -0.43772892098E+02  0.45045682306E+02  0.00000000000E+00 0.  1.
         11    1    3    3    0    0 -0.55102482908E+01  0.68120356765E+01  0.38674205830E+02  0.39654266645E+02  0.51100000000E-03 0. -1.
        -11    1    3    3    0    0  0.56344466577E+00  0.40223905503E+00  0.11005931146E+01  0.13002198329E+01  0.51100000000E-03 0.  1.
         12    1    3    3    0    0 -0.32723765936E+01 -0.46946277701E+00  0.39980931536E+01  0.51878312168E+01  0.00000000000E+00 0. -1.
</event>
<event>
 7    1  0.4452647E-009  0.4614232E+02  0.7816164E-02  0.1320468E+00
        -11   -1    0    0    0    0  0.00000000000E+00  0.00000000000E+00  0.45593999997E+02  0.45594000000E+02  0.51100000000E-03 0. -1.
         11   -1    0    0    0    0 -0.00000000000E+00 -0.00000000000E+00 -0.45593999997E+02  0.45594000000E+02  0.51100000000E-03 0.  1.
    9900012    2    1    2    0    0  0.45566122278E+01 -0.16897979763E+02  0.41506735964E+02  0.46142316906E+02  0.99999922010E+01 0.  0.
        -12    1    1    2    0    0 -0.45566122278E+01  0.16897979763E+02 -0.41506735964E+02  0.45045683094E+02  0.00000000000E+00 0.  1.
         11    1    3    3    0    0 -0.83225937891E+00 -0.29370172091E+01  0.84559294281E+01  0.89900761129E+01  0.51100000000E-03 0. -1.
        -11    1    3    3    0    0  0.25303472749E+01 -0.12578361641E+02  0.20321924946E+02  0.24033278443E+02  0.51100000000E-03 0.  1.
        -12    1    3    3    0    0  0.28585243318E+01 -0.13826009124E+01  0.12728881589E+02  0.13118962350E+02  0.00000000000E+00 0.  1.
</event>
<event>
 7    1  0.4452647E-009  0.4614232E+02  0.7816164E-02  0.1320468E+00
        -11   -1    0    0    0    0  0.00000000000E+00  0.00000000000E+00  0.45593999997E+02  0.45594000000E+02  0.51100000000E-03 0. -1.
         11   -1    0    0    0    0 -0.00000000000E+00 -0.00000000000E+00 -0.45593999997E+02  0.45594000000E+02  0.51100000000E-03 0.  1.
    9900012    2    1    2    0    0  0.36334542344E+02 -0.16697609201E+02 -0.20738956561E+02  0.46142318302E+02  0.10000004935E+02 0.  0.
         12    1    1    2    0    0 -0.36334542344E+02  0.16697609201E+02  0.20738956561E+02  0.45045681698E+02  0.00000000000E+00 0. -1.
         11    1    3    3    0    0  0.73818605629E+01 -0.26605003691E+01 -0.42529320910E+00  0.78581805883E+01  0.51100000000E-03 0. -1.
        -11    1    3    3    0    0  0.14621311838E+02 -0.76595091443E+01 -0.80032066438E+01  0.18343995122E+02  0.51100000000E-03 0.  1.
         12    1    3    3    0    0  0.14331369943E+02 -0.63775996873E+01 -0.12310456708E+02  0.19940142592E+02  0.00000000000E+00 0. -1.
</event>
<event>
 7    1  0.4452647E-009  0.4614232E+02  0.7816164E-02  0.1320468E+00
        -11   -1    0    0    0    0  0.00000000000E+00  0.00000000000E+00  0.45593999997E+02  0.45594000000E+02  0.51100000000E-03 0. -1.
         11   -1    0    0    0    0 -0.00000000000E+00 -0.00000000000E+00 -0.45593999997E+02  0.45594000000E+02  0.51100000000E-03 0.  1.
    9900012    2    1    2    0    0 -0.29006601777E+02  0.40204020967E+01  0.34228159863E+02  0.46142317552E+02  0.99999980896E+01 0.  0.
        -12    1    1    2    0    0  0.29006601777E+02 -0.40204020967E+01 -0.34228159863E+02  0.45045682448E+02  0.00000000000E+00 0.  1.
         11    1    3    3    0    0 -0.16252757873E+02  0.11026871362E+01  0.20651336722E+02  0.26302961165E+02  0.51100000000E-03 0. -1.
        -11    1    3    3    0    0 -0.10631616248E+02  0.47523638388E+01  0.11294688502E+02  0.16223014970E+02  0.51100000000E-03 0.  1.
         12    1    3    3    0    0 -0.21222276558E+01 -0.18346488783E+01  0.22821346388E+01  0.36163414163E+01  0.00000000000E+00 0. -1.
</event>
<event>
 7    1  0.4452647E-009  0.4614232E+02  0.7816164E-02  0.1320468E+00
        -11   -1    0    0    0    0  0.00000000000E+00  0.00000000000E+00  0.45593999997E+02  0.45594000000E+02  0.51100000000E-03 0. -1.
         11   -1    0    0    0    0 -0.00000000000E+00 -0.00000000000E+00 -0.45593999997E+02  0.45594000000E+02  0.51100000000E-03 0.  1.
    9900012    2    1    2    0    0 -0.33532522233E+02 -0.32674500778E+01  0.29899951450E+02  0.46142319030E+02  0.10000011573E+02 0.  0.
        -12    1    1    2    0    0  0.33532522233E+02  0.32674500778E+01 -0.29899951450E+02  0.45045680970E+02  0.00000000000E+00 0.  1.
         11    1    3    3    0    0 -0.16509150372E+02  0.24392417716E+01  0.13734517597E+02  0.21613396779E+02  0.51100000000E-03 0. -1.
        -11    1    3    3    0    0 -0.48123417705E+01 -0.20246056023E+01  0.23467750577E+01  0.57240732520E+01  0.51100000000E-03 0.  1.
        -12    1    3    3    0    0 -0.12211030090E+02 -0.36820862470E+01  0.13818658795E+02  0.18804848999E+02  0.00000000000E+00 0.  1.
</event>
<event>
 7    1  0.4452647E-009  0.4614232E+02  0.7816164E-02  0.1320468E+00
        -11   -1    0    0    0    0  0.00000000000E+00  0.00000000000E+00  0.45593999997E+02  0.45594000000E+02  0.51100000000E-03 0. -1.
         11   -1    0    0    0    0 -0.00000000000E+00 -0.00000000000E+00 -0.45593999997E+02  0.45594000000E+02  0.51100000000E-03 0.  1.
    9900012    2    1    2    0    0  0.16180391162E+02 -0.52128955253E+01 -0.41714911235E+02  0.46142321437E+02  0.10000033517E+02 0.  0.
         12    1    1    2    0    0 -0.16180391162E+02  0.52128955253E+01  0.41714911235E+02  0.45045678563E+02  0.00000000000E+00 0. -1.
         11    1    3    3    0    0  0.11779954201E+02 -0.85472655890E+00 -0.21694462647E+02  0.24701165727E+02  0.51100000000E-03 0. -1.
        -11    1    3    3    0    0  0.47710130898E+01 -0.18396328628E+01 -0.14002232549E+02  0.14906687479E+02  0.51100000000E-03 0.  1.
         12    1    3    3    0    0 -0.37057612891E+00 -0.25185361036E+01 -0.60182160385E+01  0.65344682307E+01  0.00000000000E+00 0. -1.
</event>
<event>
 7    1  0.4452647E-009  0.4614232E+02  0.7816164E-02  0.1320468E+00
        -11   -1    0    0    0    0  0.00000000000E+00  0.00000000000E+00  0.45593999997E+02  0.45594000000E+02  0.51100000000E-03 0.  1.
         11   -1    0    0    0    0 -0.00000000000E+00 -0.00000000000E+00 -0.45593999997E+02  0.45594000000E+02  0.51100000000E-03 0. -1.
    9900012    2    1    2    0    0 -0.26797477048E+01  0.38983911330E+02 -0.22409528913E+02  0.46142319004E+02  0.10000011332E+02 0.  0.
         12    1    1    2    0    0  0.26797477048E+01 -0.38983911330E+02  0.22409528913E+02  0.45045680996E+02  0.00000000000E+00 0. -1.
         11    1    3    3    0    0 -0.18022911768E+01  0.10833803526E+02 -0.10152421804E+02  0.14956310410E+02  0.51100000000E-03 0. -1.
        -11    1    3    3    0    0  0.16588198140E+01  0.18425888457E+02 -0.65293800848E+01  0.19618813755E+02  0.51100000000E-03 0.  1.
        -12    1    3    3    0    0 -0.25362763419E+01  0.97242193472E+01 -0.57277270239E+01  0.11567194840E+02  0.00000000000E+00 0.  1.
</event>
<event>
 7    1  0.4452647E-009  0.4614232E+02  0.7816164E-02  0.1320468E+00
        -11   -1    0    0    0    0  0.00000000000E+00  0.00000000000E+00  0.45593999997E+02  0.45594000000E+02  0.51100000000E-03 0. -1.
         11   -1    0    0    0    0 -0.00000000000E+00 -0.00000000000E+00 -0.45593999997E+02  0.45594000000E+02  0.51100000000E-03 0.  1.
    9900012    2    1    2    0    0  0.22072777960E+02  0.17661472286E+02 -0.35071048311E+02  0.46142316968E+02  0.99999927704E+01 0.  0.
         12    1    1    2    0    0 -0.22072777960E+02 -0.17661472286E+02  0.35071048311E+02  0.45045683032E+02  0.00000000000E+00 0. -1.
         11    1    3    3    0    0  0.19320069626E+01  0.17605710800E+01 -0.72151712163E+00  0.27116136615E+01  0.51100000000E-03 0. -1.
        -11    1    3    3    0    0  0.19454790325E+02  0.16529936545E+02 -0.33772273715E+02  0.42335495048E+02  0.51100000000E-03 0.  1.
        -12    1    3    3    0    0  0.68598067164E+00 -0.62903533871E+00 -0.57725747385E+00  0.10952082589E+01  0.00000000000E+00 0.  1.
</event>
<event>
 7    1  0.4452647E-009  0.4614232E+02  0.7816164E-02  0.1320468E+00
        -11   -1    0    0    0    0  0.00000000000E+00  0.00000000000E+00  0.45593999997E+02  0.45594000000E+02  0.51100000000E-03 0.  1.
         11   -1    0    0    0    0 -0.00000000000E+00 -0.00000000000E+00 -0.45593999997E+02  0.45594000000E+02  0.51100000000E-03 0. -1.
    9900012    2    1    2    0    0  0.16698108419E+02 -0.41819094035E+02  0.12041951143E+01  0.46142317227E+02  0.99999951267E+01 0.  0.
         12    1    1    2    0    0 -0.16698108419E+02  0.41819094035E+02 -0.12041951143E+01  0.45045682773E+02  0.00000000000E+00 0. -1.
         11    1    3    3    0    0  0.40826039993E+00 -0.18029239442E+01 -0.19765116220E+01  0.27062538232E+01  0.51100000000E-03 0. -1.
        -11    1    3    3    0    0  0.10797350727E+02 -0.23219795279E+02  0.95968965365E+00  0.25625430338E+02  0.51100000000E-03 0.  1.
         12    1    3    3    0    0  0.54924972915E+01 -0.16796374811E+02  0.22210170826E+01  0.17810633065E+02  0.00000000000E+00 0. -1.
</event>
<event>
 7    1  0.4452647E-009  0.4614232E+02  0.7816164E-02  0.1320468E+00
        -11   -1    0    0    0    0  0.00000000000E+00  0.00000000000E+00  0.45593999997E+02  0.45594000000E+02  0.51100000000E-03 0. -1.
         11   -1    0    0    0    0 -0.00000000000E+00 -0.00000000000E+00 -0.45593999997E+02  0.45594000000E+02  0.51100000000E-03 0.  1.
    9900012    2    1    2    0    0 -0.41545560378E+02  0.13322610245E+02 -0.11206584675E+02  0.46142322395E+02  0.10000042252E+02 0.  0.
         12    1    1    2    0    0  0.41545560378E+02 -0.13322610245E+02  0.11206584675E+02  0.45045677605E+02  0.00000000000E+00 0. -1.
         11    1    3    3    0    0 -0.13589388074E+02  0.11479199943E+01 -0.16891675253E+01  0.13741996789E+02  0.51100000000E-03 0. -1.
        -11    1    3    3    0    0 -0.46353108031E+01  0.37502946749E+01 -0.33893910943E+01  0.68584829694E+01  0.51100000000E-03 0.  1.
         12    1    3    3    0    0 -0.23320861500E+02  0.84243955762E+01 -0.61280260557E+01  0.25541842637E+02  0.00000000000E+00 0. -1.
</event>
<event>
 7    1  0.4452647E-009  0.4614232E+02  0.7816164E-02  0.1320468E+00
        -11   -1    0    0    0    0  0.00000000000E+00  0.00000000000E+00  0.45593999997E+02  0.45594000000E+02  0.51100000000E-03 0. -1.
         11   -1    0    0    0    0 -0.00000000000E+00 -0.00000000000E+00 -0.45593999997E+02  0.45594000000E+02  0.51100000000E-03 0.  1.
    9900012    2    1    2    0    0 -0.21570153605E+02 -0.26045618606E+02  0.29756810087E+02  0.46142317392E+02  0.99999966321E+01 0.  0.
        -12    1    1    2    0    0  0.21570153605E+02  0.26045618606E+02 -0.29756810087E+02  0.45045682608E+02  0.00000000000E+00 0.  1.
         11    1    3    3    0    0 -0.12233872276E+02 -0.10617824722E+02  0.11181619790E+02  0.19683354747E+02  0.51100000000E-03 0.  1.
        -11    1    3    3    0    0 -0.62351609796E+01 -0.13412923939E+02  0.12592978083E+02  0.19425932623E+02  0.51100000000E-03 0. -1.
        -12    1    3    3    0    0 -0.31011203490E+01 -0.20148699454E+01  0.59822122137E+01  0.70330300217E+01  0.00000000000E+00 0.  1.
</event>
<event>
 7    1  0.4452647E-009  0.4614232E+02  0.7816164E-02  0.1320468E+00
        -11   -1    0    0    0    0  0.00000000000E+00  0.00000000000E+00  0.45593999997E+02  0.45594000000E+02  0.51100000000E-03 0. -1.
         11   -1    0    0    0    0 -0.00000000000E+00 -0.00000000000E+00 -0.45593999997E+02  0.45594000000E+02  0.51100000000E-03 0.  1.
    9900012    2    1    2    0    0  0.27935010313E+00 -0.41286143428E+01  0.44855210093E+02  0.46142319126E+02  0.10000012450E+02 0.  0.
        -12    1    1    2    0    0 -0.27935010313E+00  0.41286143428E+01 -0.44855210093E+02  0.45045680874E+02  0.00000000000E+00 0.  1.
         11    1    3    3    0    0  0.14294547862E+01 -0.34960666995E+01  0.32911011497E+02  0.33127035807E+02  0.51100000000E-03 0. -1.
        -11    1    3    3    0    0 -0.57516965801E+00  0.15488321544E+01  0.12132954185E+01  0.20498261418E+01  0.51100000000E-03 0.  1.
         12    1    3    3    0    0 -0.57493502503E+00 -0.21813797977E+01  0.10730903177E+02  0.10965457177E+02  0.00000000000E+00 0. -1.
</event>
<event>
 7    1  0.4452647E-009  0.4614232E+02  0.7816164E-02  0.1320468E+00
        -11   -1    0    0    0    0  0.00000000000E+00  0.00000000000E+00  0.45593999997E+02  0.45594000000E+02  0.51100000000E-03 0. -1.
         11   -1    0    0    0    0 -0.00000000000E+00 -0.00000000000E+00 -0.45593999997E+02  0.45594000000E+02  0.51100000000E-03 0.  1.
    9900012    2    1    2    0    0  0.27268720022E+01 -0.18621600731E+02 -0.40925708264E+02  0.46142318280E+02  0.10000004732E+02 0.  0.
         12    1    1    2    0    0 -0.27268720022E+01  0.18621600731E+02  0.40925708264E+02  0.45045681720E+02  0.00000000000E+00 0. -1.
         11    1    3    3    0    0  0.32740672861E+00 -0.26279703798E+01 -0.24553926126E+01  0.36114230750E+01  0.51100000000E-03 0. -1.
        -11    1    3    3    0    0 -0.15409997444E+01 -0.12299533211E+02 -0.22739191947E+02  0.25898340643E+02  0.51100000000E-03 0.  1.
        -12    1    3    3    0    0  0.39404650179E+01 -0.36940971403E+01 -0.15731123705E+02  0.16632554562E+02  0.00000000000E+00 0.  1.
</event>
<event>
 7    1  0.4706679E-009  0.4614232E+02  0.7816164E-02  0.1320468E+00
        -11   -1    0    0    0    0  0.00000000000E+00  0.00000000000E+00  0.45593999997E+02  0.45594000000E+02  0.51100000000E-03 0. -1.
         11   -1    0    0    0    0 -0.00000000000E+00 -0.00000000000E+00 -0.45593999997E+02  0.45594000000E+02  0.51100000000E-03 0.  1.
    9900012    2    1    2    0    0 -0.16697530658E+02  0.25492140656E+02  0.33173132549E+02  0.46142317761E+02  0.10000000000E+02 0.  0.
        -12    1    1    2    0    0  0.16697530658E+02 -0.25492140656E+02 -0.33173132549E+02  0.45045682239E+02  0.00000000000E+00 0.  1.
         11    1    3    3    0    0 -0.70492974490E+01  0.16178330837E+02  0.16370586371E+02  0.24071291648E+02  0.51100000000E-03 0. -1.
        -11    1    3    3    0    0 -0.59743245616E+01  0.42961114566E+01  0.55595105874E+01  0.92226506953E+01  0.51100000000E-03 0.  1.
         12    1    3    3    0    0 -0.36739086470E+01  0.50176983619E+01  0.11243035590E+02  0.12848375418E+02  0.00000000000E+00 0. -1.
</event>
<event>
 7    1  0.4452647E-009  0.4614232E+02  0.7816164E-02  0.1320468E+00
        -11   -1    0    0    0    0  0.00000000000E+00  0.00000000000E+00  0.45593999997E+02  0.45594000000E+02  0.51100000000E-03 0. -1.
         11   -1    0    0    0    0 -0.00000000000E+00 -0.00000000000E+00 -0.45593999997E+02  0.45594000000E+02  0.51100000000E-03 0.  1.
    9900012    2    1    2    0    0  0.10244957507E+02 -0.15952370337E+02 -0.40861671873E+02  0.46142317611E+02  0.99999986281E+01 0.  0.
         12    1    1    2    0    0 -0.10244957507E+02  0.15952370337E+02  0.40861671873E+02  0.45045682389E+02  0.00000000000E+00 0. -1.
         11    1    3    3    0    0  0.28970545244E+01 -0.77933778610E+01 -0.14395572694E+02  0.16624144394E+02  0.51100000000E-03 0.  1.
        -11    1    3    3    0    0 -0.21337265758E+00 -0.62802893248E+00  0.28124735594E+00  0.72045025322E+00  0.51100000000E-03 0. -1.
         12    1    3    3    0    0  0.75612756399E+01 -0.75309635431E+01 -0.26747346535E+02  0.28797722963E+02  0.00000000000E+00 0. -1.
</event>
<event>
 7    1  0.4452647E-009  0.4614232E+02  0.7816164E-02  0.1320468E+00
        -11   -1    0    0    0    0  0.00000000000E+00  0.00000000000E+00  0.45593999997E+02  0.45594000000E+02  0.51100000000E-03 0. -1.
         11   -1    0    0    0    0 -0.00000000000E+00 -0.00000000000E+00 -0.45593999997E+02  0.45594000000E+02  0.51100000000E-03 0.  1.
    9900012    2    1    2    0    0 -0.29739860682E+02  0.22753389111E+01  0.33756140222E+02  0.46142317818E+02  0.10000000522E+02 0.  0.
        -12    1    1    2    0    0  0.29739860682E+02 -0.22753389111E+01 -0.33756140222E+02  0.45045682182E+02  0.00000000000E+00 0.  1.
         11    1    3    3    0    0 -0.11448517904E+02  0.12114080405E+01  0.72261362991E+01  0.13592391906E+02  0.51100000000E-03 0. -1.
        -11    1    3    3    0    0 -0.11064010615E+02  0.27826297077E+01  0.16818967600E+02  0.20323214076E+02  0.51100000000E-03 0.  1.
        -12    1    3    3    0    0 -0.72273321631E+01 -0.17186988371E+01  0.97110363226E+01  0.12226711837E+02  0.00000000000E+00 0.  1.
</event>
<event>
 7    1  0.4452647E-009  0.4614232E+02  0.7816164E-02  0.1320468E+00
        -11   -1    0    0    0    0  0.00000000000E+00  0.00000000000E+00  0.45593999997E+02  0.45594000000E+02  0.51100000000E-03 0. -1.
         11   -1    0    0    0    0 -0.00000000000E+00 -0.00000000000E+00 -0.45593999997E+02  0.45594000000E+02  0.51100000000E-03 0.  1.
    9900012    2    1    2    0    0  0.17131007247E+02  0.24266881646E+02 -0.33863852658E+02  0.46142317955E+02  0.10000001766E+02 0.  0.
         12    1    1    2    0    0 -0.17131007247E+02 -0.24266881646E+02  0.33863852658E+02  0.45045682045E+02  0.00000000000E+00 0. -1.
         11    1    3    3    0    0  0.34516495535E+01  0.30709107507E+01 -0.73199072951E+01  0.86559471203E+01  0.51100000000E-03 0. -1.
        -11    1    3    3    0    0  0.74834352307E+00  0.59295476216E+01 -0.93989193251E+01  0.11138188262E+02  0.51100000000E-03 0.  1.
        -12    1    3    3    0    0  0.12931014170E+02  0.15266423273E+02 -0.17145026037E+02  0.26348182572E+02  0.00000000000E+00 0.  1.
</event>
<event>
 7    1  0.4452647E-009  0.4614232E+02  0.7816164E-02  0.1320468E+00
        -11   -1    0    0    0    0  0.00000000000E+00  0.00000000000E+00  0.45593999997E+02  0.45594000000E+02  0.51100000000E-03 0.  1.
         11   -1    0    0    0    0 -0.00000000000E+00 -0.00000000000E+00 -0.45593999997E+02  0.45594000000E+02  0.51100000000E-03 0. -1.
    9900012    2    1    2    0    0 -0.43490025572E+02  0.76786945290E+01  0.88751743837E+01  0.46142318805E+02  0.10000009522E+02 0.  0.
         12    1    1    2    0    0  0.43490025572E+02 -0.76786945290E+01 -0.88751743837E+01  0.45045681195E+02  0.00000000000E+00 0. -1.
         11    1    3    3    0    0 -0.41987046121E+01 -0.16820689410E+01  0.61783636379E+00  0.45651066117E+01  0.51100000000E-03 0. -1.
        -11    1    3    3    0    0 -0.16310312262E+02  0.13867364710E+01  0.22674644212E+01  0.16525456704E+02  0.51100000000E-03 0.  1.
         12    1    3    3    0    0 -0.22981008698E+02  0.79740269990E+01  0.59898735987E+01  0.25051755489E+02  0.00000000000E+00 0. -1.
</event>
<event>
 7    1  0.4452647E-009  0.4614232E+02  0.7816164E-02  0.1320468E+00
        -11   -1    0    0    0    0  0.00000000000E+00  0.00000000000E+00  0.45593999997E+02  0.45594000000E+02  0.51100000000E-03 0. -1.
         11   -1    0    0    0    0 -0.00000000000E+00 -0.00000000000E+00 -0.45593999997E+02  0.45594000000E+02  0.51100000000E-03 0.  1.
    9900012    2    1    2    0    0  0.24719175383E+02 -0.14205610631E+02 -0.34875156573E+02  0.46142317066E+02  0.99999936629E+01 0.  0.
         12    1    1    2    0    0 -0.24719175383E+02  0.14205610631E+02  0.34875156573E+02  0.45045682934E+02  0.00000000000E+00 0. -1.
         11    1    3    3    0    0  0.20342391510E+02 -0.95341610339E+01 -0.27552402304E+02  0.35550639825E+02  0.51100000000E-03 0. -1.
        -11    1    3    3    0    0  0.17582349467E+01 -0.26471744876E+01 -0.79965612129E+00  0.32769456921E+01  0.51100000000E-03 0.  1.
        -12    1    3    3    0    0  0.26185489262E+01 -0.20242751094E+01 -0.65230981476E+01  0.73147315495E+01  0.00000000000E+00 0.  1.
</event>
<event>
 7    1  0.4452647E-009  0.4614232E+02  0.7816164E-02  0.1320468E+00
        -11   -1    0    0    0    0  0.00000000000E+00  0.00000000000E+00  0.45593999997E+02  0.45594000000E+02  0.51100000000E-03 0.  1.
         11   -1    0    0    0    0 -0.00000000000E+00 -0.00000000000E+00 -0.45593999997E+02  0.45594000000E+02  0.51100000000E-03 0. -1.
    9900012    2    1    2    0    0  0.34968306784E+02  0.27294655121E+02 -0.78315307194E+01  0.46142317067E+02  0.99999936701E+01 0.  0.
         12    1    1    2    0    0 -0.34968306784E+02 -0.27294655121E+02  0.78315307194E+01  0.45045682933E+02  0.00000000000E+00 0. -1.
         11    1    3    3    0    0  0.45305040715E+01  0.31085202204E+01  0.27566394848E+00  0.55013049339E+01  0.51100000000E-03 0. -1.
        -11    1    3    3    0    0  0.33471239190E+01  0.55672119708E+00 -0.25977235327E+01  0.42733294787E+01  0.51100000000E-03 0.  1.
        -12    1    3    3    0    0  0.27090678793E+02  0.23629413704E+02 -0.55094711351E+01  0.36367682654E+02  0.00000000000E+00 0.  1.
</event>
<event>
 7    1  0.4452647E-009  0.4614232E+02  0.7816164E-02  0.1320468E+00
        -11   -1    0    0    0    0  0.00000000000E+00  0.00000000000E+00  0.45593999997E+02  0.45594000000E+02  0.51100000000E-03 0. -1.
         11   -1    0    0    0    0 -0.00000000000E+00 -0.00000000000E+00 -0.45593999997E+02  0.45594000000E+02  0.51100000000E-03 0.  1.
    9900012    2    1    2    0    0  0.14181438454E+02  0.27602677919E+01 -0.42665925914E+02  0.46142317532E+02  0.99999979104E+01 0.  0.
         12    1    1    2    0    0 -0.14181438454E+02 -0.27602677919E+01  0.42665925914E+02  0.45045682468E+02  0.00000000000E+00 0. -1.
         11    1    3    3    0    0 -0.13639368345E+00  0.36453514118E+00 -0.15264409355E+01  0.15752813389E+01  0.51100000000E-03 0. -1.
        -11    1    3    3    0    0  0.14825423336E+02  0.14520113571E+00 -0.35175083233E+02  0.38171988960E+02  0.51100000000E-03 0.  1.
        -12    1    3    3    0    0 -0.50759119928E+00  0.22505315150E+01 -0.59644017457E+01  0.63950472328E+01  0.00000000000E+00 0.  1.
</event>
<event>
 7    1  0.4900853E-009  0.4614232E+02  0.7816164E-02  0.1320468E+00
        -11   -1    0    0    0    0  0.00000000000E+00  0.00000000000E+00  0.45593999997E+02  0.45594000000E+02  0.51100000000E-03 0. -1.
         11   -1    0    0    0    0 -0.00000000000E+00 -0.00000000000E+00 -0.45593999997E+02  0.45594000000E+02  0.51100000000E-03 0.  1.
    9900012    2    1    2    0    0 -0.15308818332E+02 -0.16896050982E+02  0.38849415265E+02  0.46142317366E+02  0.99999963962E+01 0.  0.
        -12    1    1    2    0    0  0.15308818332E+02  0.16896050982E+02 -0.38849415265E+02  0.45045682634E+02  0.00000000000E+00 0.  1.
         11    1    3    3    0    0 -0.46151679038E+01 -0.39839704120E+01  0.17306404487E+02  0.18348935434E+02  0.51100000000E-03 0. -1.
        -11    1    3    3    0    0 -0.32985098857E+01 -0.15651125119E+01  0.24993259824E+01  0.44245197782E+01  0.51100000000E-03 0.  1.
         12    1    3    3    0    0 -0.73951405423E+01 -0.11346968059E+02  0.19043684796E+02  0.23368862154E+02  0.00000000000E+00 0. -1.
</event>
<event>
 7    1  0.4452647E-009  0.4614232E+02  0.7816164E-02  0.1320468E+00
        -11   -1    0    0    0    0  0.00000000000E+00  0.00000000000E+00  0.45593999997E+02  0.45594000000E+02  0.51100000000E-03 0. -1.
         11   -1    0    0    0    0 -0.00000000000E+00 -0.00000000000E+00 -0.45593999997E+02  0.45594000000E+02  0.51100000000E-03 0.  1.
    9900012    2    1    2    0    0 -0.22425230338E+02  0.27130874069E+02 -0.28109398202E+02  0.46142317068E+02  0.99999936835E+01 0.  0.
         12    1    1    2    0    0  0.22425230338E+02 -0.27130874069E+02  0.28109398202E+02  0.45045682932E+02  0.00000000000E+00 0. -1.
         11    1    3    3    0    0 -0.15521414871E+02  0.20198265344E+02 -0.17040134508E+02  0.30647192805E+02  0.51100000000E-03 0. -1.
        -11    1    3    3    0    0 -0.19058632928E+01  0.49468213630E+01 -0.68372874488E+01  0.86516967357E+01  0.51100000000E-03 0.  1.
         12    1    3    3    0    0 -0.49979521744E+01  0.19857873619E+01 -0.42319762459E+01  0.68434275280E+01  0.00000000000E+00 0. -1.
</event>
<event>
 7    1  0.4452647E-009  0.4614233E+02  0.7816164E-02  0.1320468E+00
        -11   -1    0    0    0    0  0.00000000000E+00  0.00000000000E+00  0.45593999997E+02  0.45594000000E+02  0.51100000000E-03 0. -1.
         11   -1    0    0    0    0 -0.00000000000E+00 -0.00000000000E+00 -0.45593999997E+02  0.45594000000E+02  0.51100000000E-03 0.  1.
    9900012    2    1    2    0    0 -0.20549955233E+02 -0.27845695001E+02 -0.28834512367E+02  0.46142328803E+02  0.10000100685E+02 0.  0.
         12    1    1    2    0    0  0.20549955233E+02  0.27845695001E+02  0.28834512367E+02  0.45045671197E+02  0.00000000000E+00 0. -1.
         11    1    3    3    0    0 -0.42865467545E+01 -0.12179473613E+02 -0.92474079415E+01  0.15881706913E+02  0.51100000000E-03 0. -1.
        -11    1    3    3    0    0 -0.30354296304E+01 -0.51614079476E+01 -0.68942322876E+01  0.91315061265E+01  0.51100000000E-03 0.  1.
         12    1    3    3    0    0 -0.13227978848E+02 -0.10504813441E+02 -0.12692872138E+02  0.21129115763E+02  0.00000000000E+00 0. -1.
</event>
<event>
 7    1  0.4452647E-009  0.4614232E+02  0.7816164E-02  0.1320468E+00
        -11   -1    0    0    0    0  0.00000000000E+00  0.00000000000E+00  0.45593999997E+02  0.45594000000E+02  0.51100000000E-03 0. -1.
         11   -1    0    0    0    0 -0.00000000000E+00 -0.00000000000E+00 -0.45593999997E+02  0.45594000000E+02  0.51100000000E-03 0.  1.
    9900012    2    1    2    0    0 -0.38063336635E+02  0.18218884954E+02  0.15759698508E+02  0.46142318056E+02  0.10000002686E+02 0.  0.
        -12    1    1    2    0    0  0.38063336635E+02 -0.18218884954E+02 -0.15759698508E+02  0.45045681944E+02  0.00000000000E+00 0.  1.
         11    1    3    3    0    0 -0.36000872409E+01  0.10699840967E+00  0.17714171648E+01  0.40137259292E+01  0.51100000000E-03 0. -1.
        -11    1    3    3    0    0 -0.24995246317E+02  0.10691932186E+02  0.12776525656E+02  0.30038631135E+02  0.51100000000E-03 0.  1.
        -12    1    3    3    0    0 -0.94680030765E+01  0.74199543582E+01  0.12117556874E+01  0.12089960992E+02  0.00000000000E+00 0.  1.
</event>
<event>
 7    1  0.4452647E-009  0.4614232E+02  0.7816164E-02  0.1320468E+00
        -11   -1    0    0    0    0  0.00000000000E+00  0.00000000000E+00  0.45593999997E+02  0.45594000000E+02  0.51100000000E-03 0. -1.
         11   -1    0    0    0    0 -0.00000000000E+00 -0.00000000000E+00 -0.45593999997E+02  0.45594000000E+02  0.51100000000E-03 0.  1.
    9900012    2    1    2    0    0  0.21325903654E+02  0.12285750123E+02  0.37727705111E+02  0.46142317014E+02  0.99999931828E+01 0.  0.
        -12    1    1    2    0    0 -0.21325903654E+02 -0.12285750123E+02 -0.37727705111E+02  0.45045682986E+02  0.00000000000E+00 0.  1.
         11    1    3    3    0    0  0.11994123952E+02  0.36523472490E+01  0.16885293981E+02  0.21031210210E+02  0.51100000000E-03 0. -1.
        -11    1    3    3    0    0  0.83626421483E+01  0.55604721926E+01  0.18747441648E+02  0.21267797331E+02  0.51100000000E-03 0.  1.
        -12    1    3    3    0    0  0.96913755389E+00  0.30729306813E+01  0.20949694820E+01  0.38433094724E+01  0.00000000000E+00 0.  1.
</event>
<event>
 7    1  0.4452647E-009  0.4614232E+02  0.7816164E-02  0.1320468E+00
        -11   -1    0    0    0    0  0.00000000000E+00  0.00000000000E+00  0.45593999997E+02  0.45594000000E+02  0.51100000000E-03 0. -1.
         11   -1    0    0    0    0 -0.00000000000E+00 -0.00000000000E+00 -0.45593999997E+02  0.45594000000E+02  0.51100000000E-03 0.  1.
    9900012    2    1    2    0    0 -0.75872959135E+00  0.16899560295E+02  0.41748565675E+02  0.46142317136E+02  0.99999943025E+01 0.  0.
        -12    1    1    2    0    0  0.75872959135E+00 -0.16899560295E+02 -0.41748565675E+02  0.45045682864E+02  0.00000000000E+00 0.  1.
         11    1    3    3    0    0 -0.15665929659E+01  0.59731651922E+00  0.94762063271E+00  0.19258727033E+01  0.51100000000E-03 0.  1.
        -11    1    3    3    0    0  0.15734553220E+01  0.14905695421E+02  0.32854331293E+02  0.36111806970E+02  0.51100000000E-03 0. -1.
        -12    1    3    3    0    0 -0.76559194746E+00  0.13965483548E+01  0.79466137488E+01  0.81046374632E+01  0.00000000000E+00 0.  1.
</event>
<event>
 7    1  0.4452647E-009  0.4614232E+02  0.7816164E-02  0.1320468E+00
        -11   -1    0    0    0    0  0.00000000000E+00  0.00000000000E+00  0.45593999997E+02  0.45594000000E+02  0.51100000000E-03 0.  1.
         11   -1    0    0    0    0 -0.00000000000E+00 -0.00000000000E+00 -0.45593999997E+02  0.45594000000E+02  0.51100000000E-03 0. -1.
    9900012    2    1    2    0    0  0.18771628067E+02 -0.39922706873E+02  0.91058771713E+01  0.46142317150E+02  0.99999944294E+01 0.  0.
         12    1    1    2    0    0 -0.18771628067E+02  0.39922706873E+02 -0.91058771713E+01  0.45045682850E+02  0.00000000000E+00 0. -1.
         11    1    3    3    0    0  0.40687807997E+00 -0.86261466725E+01  0.32239004167E+01  0.92178896905E+01  0.51100000000E-03 0. -1.
        -11    1    3    3    0    0  0.50769934537E+01 -0.10471437964E+02  0.32423977494E+01  0.12080563687E+02  0.51100000000E-03 0.  1.
         12    1    3    3    0    0  0.13287756533E+02 -0.20825122236E+02  0.26395790051E+01  0.24843863773E+02  0.00000000000E+00 0. -1.
</event>
<event>
 7    1  0.4452647E-009  0.4614232E+02  0.7816164E-02  0.1320468E+00
        -11   -1    0    0    0    0  0.00000000000E+00  0.00000000000E+00  0.45593999997E+02  0.45594000000E+02  0.51100000000E-03 0. -1.
         11   -1    0    0    0    0 -0.00000000000E+00 -0.00000000000E+00 -0.45593999997E+02  0.45594000000E+02  0.51100000000E-03 0.  1.
    9900012    2    1    2    0    0 -0.33080118153E+02  0.11416165472E+02  0.28363540641E+02  0.46142317756E+02  0.99999999567E+01 0.  0.
        -12    1    1    2    0    0  0.33080118153E+02 -0.11416165472E+02 -0.28363540641E+02  0.45045682244E+02  0.00000000000E+00 0.  1.
         11    1    3    3    0    0 -0.53199119820E+01  0.60976439267E+01  0.56959036199E+01  0.98957588522E+01  0.51100000000E-03 0. -1.
        -11    1    3    3    0    0 -0.20224346742E+02  0.36201855895E+01  0.16967058215E+02  0.26646031779E+02  0.51100000000E-03 0.  1.
         12    1    3    3    0    0 -0.75358594293E+01  0.16983359555E+01  0.57005788058E+01  0.96005271250E+01  0.00000000000E+00 0. -1.
</event>
<event>
 7    1  0.4452647E-009  0.4614232E+02  0.7816164E-02  0.1320468E+00
        -11   -1    0    0    0    0  0.00000000000E+00  0.00000000000E+00  0.45593999997E+02  0.45594000000E+02  0.51100000000E-03 0.  1.
         11   -1    0    0    0    0 -0.00000000000E+00 -0.00000000000E+00 -0.45593999997E+02  0.45594000000E+02  0.51100000000E-03 0. -1.
    9900012    2    1    2    0    0  0.12145875644E+02 -0.43375166610E+02  0.43151671067E+00  0.46142316740E+02  0.99999906929E+01 0.  0.
        -12    1    1    2    0    0 -0.12145875644E+02  0.43375166610E+02 -0.43151671067E+00  0.45045683260E+02  0.00000000000E+00 0.  1.
         11    1    3    3    0    0  0.10113066683E+02 -0.35143658678E+02 -0.10455577512E+01  0.36584751663E+02  0.51100000000E-03 0. -1.
        -11    1    3    3    0    0 -0.86725586128E+00 -0.19526593467E+01 -0.79194742567E+00  0.22786382423E+01  0.51100000000E-03 0.  1.
         12    1    3    3    0    0  0.29000648230E+01 -0.62788485861E+01  0.22690218875E+01  0.72789268351E+01  0.00000000000E+00 0. -1.
</event>
<event>
 7    1  0.4452647E-009  0.4614232E+02  0.7816164E-02  0.1320468E+00
        -11   -1    0    0    0    0  0.00000000000E+00  0.00000000000E+00  0.45593999997E+02  0.45594000000E+02  0.51100000000E-03 0. -1.
         11   -1    0    0    0    0 -0.00000000000E+00 -0.00000000000E+00 -0.45593999997E+02  0.45594000000E+02  0.51100000000E-03 0.  1.
    9900012    2    1    2    0    0  0.10120925310E+02 -0.19877796859E+02  0.39135066426E+02  0.46142319172E+02  0.10000012861E+02 0.  0.
        -12    1    1    2    0    0 -0.10120925310E+02  0.19877796859E+02 -0.39135066426E+02  0.45045680828E+02  0.00000000000E+00 0.  1.
         11    1    3    3    0    0  0.45870521664E+01 -0.13147772426E+02  0.21739396886E+02  0.25816784164E+02  0.51100000000E-03 0. -1.
        -11    1    3    3    0    0  0.21672134810E+01 -0.28029862195E+01  0.19661845083E+01  0.40520893131E+01  0.51100000000E-03 0.  1.
        -12    1    3    3    0    0  0.33666596629E+01 -0.39270382133E+01  0.15429485032E+02  0.16273445695E+02  0.00000000000E+00 0.  1.
</event>
<event>
 7    1  0.4452647E-009  0.4614232E+02  0.7816164E-02  0.1320468E+00
        -11   -1    0    0    0    0  0.00000000000E+00  0.00000000000E+00  0.45593999997E+02  0.45594000000E+02  0.51100000000E-03 0. -1.
         11   -1    0    0    0    0 -0.00000000000E+00 -0.00000000000E+00 -0.45593999997E+02  0.45594000000E+02  0.51100000000E-03 0.  1.
    9900012    2    1    2    0    0 -0.33823192798E+02 -0.99793794712E+01 -0.28027078497E+02  0.46142317468E+02  0.99999973292E+01 0.  0.
         12    1    1    2    0    0  0.33823192798E+02  0.99793794712E+01  0.28027078497E+02  0.45045682532E+02  0.00000000000E+00 0. -1.
         11    1    3    3    0    0 -0.29842362741E+01 -0.88624166608E+00 -0.41175546739E+01  0.51619131322E+01  0.51100000000E-03 0.  1.
        -11    1    3    3    0    0 -0.11612636591E+02  0.82990248302E+00 -0.80528406246E+01  0.14155928409E+02  0.51100000000E-03 0. -1.
        -12    1    3    3    0    0 -0.19226319933E+02 -0.99230402882E+01 -0.15856683198E+02  0.26824475927E+02  0.00000000000E+00 0.  1.
</event>
<event>
 7    1  0.4452647E-009  0.4614232E+02  0.7816164E-02  0.1320468E+00
        -11   -1    0    0    0    0  0.00000000000E+00  0.00000000000E+00  0.45593999997E+02  0.45594000000E+02  0.51100000000E-03 0. -1.
         11   -1    0    0    0    0 -0.00000000000E+00 -0.00000000000E+00 -0.45593999997E+02  0.45594000000E+02  0.51100000000E-03 0.  1.
    9900012    2    1    2    0    0 -0.80276411803E+00  0.60673653318E+01  0.44627975511E+02  0.46142317071E+02  0.99999937080E+01 0.  0.
        -12    1    1    2    0    0  0.80276411803E+00 -0.60673653318E+01 -0.44627975511E+02  0.45045682929E+02  0.00000000000E+00 0.  1.
         11    1    3    3    0    0  0.10886224463E+01  0.54022041137E+01  0.16232323009E+02  0.17142264105E+02  0.51100000000E-03 0.  1.
        -11    1    3    3    0    0 -0.30555486276E+01  0.22847707593E+01  0.20791209978E+02  0.21138376651E+02  0.51100000000E-03 0. -1.
         12    1    3    3    0    0  0.11641620632E+01 -0.16196095412E+01  0.76044425244E+01  0.78616763150E+01  0.00000000000E+00 0. -1.
</event>
<event>
 7    1  0.4452647E-009  0.4614232E+02  0.7816164E-02  0.1320468E+00
        -11   -1    0    0    0    0  0.00000000000E+00  0.00000000000E+00  0.45593999997E+02  0.45594000000E+02  0.51100000000E-03 0. -1.
         11   -1    0    0    0    0 -0.00000000000E+00 -0.00000000000E+00 -0.45593999997E+02  0.45594000000E+02  0.51100000000E-03 0.  1.
    9900012    2    1    2    0    0 -0.18754512340E+02 -0.34898279099E+02 -0.21435761272E+02  0.46142317871E+02  0.10000001003E+02 0.  0.
         12    1    1    2    0    0  0.18754512340E+02  0.34898279099E+02  0.21435761272E+02  0.45045682129E+02  0.00000000000E+00 0. -1.
         11    1    3    3    0    0 -0.60039235166E+01 -0.13956721998E+02 -0.10896679211E+02  0.18696919655E+02  0.51100000000E-03 0. -1.
        -11    1    3    3    0    0 -0.10209078452E+02 -0.11679204845E+02 -0.82586298119E+01  0.17573675634E+02  0.51100000000E-03 0.  1.
        -12    1    3    3    0    0 -0.25415103721E+01 -0.92623522558E+01 -0.22804522491E+01  0.98717225823E+01  0.00000000000E+00 0.  1.
</event>
<event>
 7    1  0.4452647E-009  0.4614232E+02  0.7816164E-02  0.1320468E+00
        -11   -1    0    0    0    0  0.00000000000E+00  0.00000000000E+00  0.45593999997E+02  0.45594000000E+02  0.51100000000E-03 0. -1.
         11   -1    0    0    0    0 -0.00000000000E+00 -0.00000000000E+00 -0.45593999997E+02  0.45594000000E+02  0.51100000000E-03 0.  1.
    9900012    2    1    2    0    0 -0.65054724747E+01  0.36898060999E+01 -0.44420463813E+02  0.46142318226E+02  0.10000004238E+02 0.  0.
         12    1    1    2    0    0  0.65054724747E+01 -0.36898060999E+01  0.44420463813E+02  0.45045681774E+02  0.00000000000E+00 0. -1.
         11    1    3    3    0    0 -0.23289919888E+01  0.65093413921E+00 -0.54911083102E+01  0.60000158061E+01  0.51100000000E-03 0. -1.
        -11    1    3    3    0    0  0.13485590969E+01  0.31604777576E+01 -0.23566531490E+02  0.23815722497E+02  0.51100000000E-03 0.  1.
        -12    1    3    3    0    0 -0.55250395827E+01 -0.12160579697E+00 -0.15362824012E+02  0.16326579923E+02  0.00000000000E+00 0.  1.
</event>
<event>
 7    1  0.4452647E-009  0.4614232E+02  0.7816164E-02  0.1320468E+00
        -11   -1    0    0    0    0  0.00000000000E+00  0.00000000000E+00  0.45593999997E+02  0.45594000000E+02  0.51100000000E-03 0. -1.
         11   -1    0    0    0    0 -0.00000000000E+00 -0.00000000000E+00 -0.45593999997E+02  0.45594000000E+02  0.51100000000E-03 0.  1.
    9900012    2    1    2    0    0 -0.38884984945E+02  0.13498944259E+02  0.18298906159E+02  0.46142317444E+02  0.99999971088E+01 0.  0.
        -12    1    1    2    0    0  0.38884984945E+02 -0.13498944259E+02 -0.18298906159E+02  0.45045682556E+02  0.00000000000E+00 0.  1.
         11    1    3    3    0    0 -0.19794201109E+02  0.66042867325E+01  0.78278578167E+01  0.22286820299E+02  0.51100000000E-03 0. -1.
        -11    1    3    3    0    0 -0.58495039560E+01 -0.10842070440E+01  0.23886815930E+01  0.64107722982E+01  0.51100000000E-03 0.  1.
         12    1    3    3    0    0 -0.13241279880E+02  0.79788645701E+01  0.80823667496E+01  0.17444724847E+02  0.00000000000E+00 0. -1.
</event>
<event>
 7    1  0.4452647E-009  0.4614232E+02  0.7816164E-02  0.1320468E+00
        -11   -1    0    0    0    0  0.00000000000E+00  0.00000000000E+00  0.45593999997E+02  0.45594000000E+02  0.51100000000E-03 0.  1.
         11   -1    0    0    0    0 -0.00000000000E+00 -0.00000000000E+00 -0.45593999997E+02  0.45594000000E+02  0.51100000000E-03 0. -1.
    9900012    2    1    2    0    0 -0.20659337741E+02 -0.39395121671E+02  0.70943296279E+01  0.46142319184E+02  0.10000012971E+02 0.  0.
        -12    1    1    2    0    0  0.20659337741E+02  0.39395121671E+02 -0.70943296279E+01  0.45045680816E+02  0.00000000000E+00 0.  1.
         11    1    3    3    0    0 -0.12716435499E+02 -0.17038993132E+02  0.33263606948E+01  0.21519751265E+02  0.51100000000E-03 0. -1.
        -11    1    3    3    0    0 -0.16509968217E+01 -0.40262314776E+01 -0.13899964162E+01  0.45681966589E+01  0.51100000000E-03 0.  1.
         12    1    3    3    0    0 -0.62919054198E+01 -0.18329897061E+02  0.51579653492E+01  0.20054371260E+02  0.00000000000E+00 0. -1.
</event>
<event>
 7    1  0.4452647E-009  0.4614232E+02  0.7816164E-02  0.1320468E+00
        -11   -1    0    0    0    0  0.00000000000E+00  0.00000000000E+00  0.45593999997E+02  0.45594000000E+02  0.51100000000E-03 0. -1.
         11   -1    0    0    0    0 -0.00000000000E+00 -0.00000000000E+00 -0.45593999997E+02  0.45594000000E+02  0.51100000000E-03 0.  1.
    9900012    2    1    2    0    0  0.20571019672E+02 -0.13560608683E+02 -0.37710165421E+02  0.46142317252E+02  0.99999953534E+01 0.  0.
         12    1    1    2    0    0 -0.20571019672E+02  0.13560608683E+02  0.37710165421E+02  0.45045682748E+02  0.00000000000E+00 0. -1.
         11    1    3    3    0    0 -0.39499542078E-02 -0.18034489886E+00 -0.11249079198E-01  0.18073928069E+00  0.51100000000E-03 0. -1.
        -11    1    3    3    0    0  0.14030538270E+02 -0.35708998316E+01 -0.21705978312E+02  0.26091317033E+02  0.51100000000E-03 0.  1.
        -12    1    3    3    0    0  0.65444313557E+01 -0.98093639525E+01 -0.15992938030E+02  0.19870260938E+02  0.00000000000E+00 0.  1.
</event>
<event>
 7    1  0.4452647E-009  0.4614233E+02  0.7816164E-02  0.1320468E+00
        -11   -1    0    0    0    0  0.00000000000E+00  0.00000000000E+00  0.45593999997E+02  0.45594000000E+02  0.51100000000E-03 0. -1.
         11   -1    0    0    0    0 -0.00000000000E+00 -0.00000000000E+00 -0.45593999997E+02  0.45594000000E+02  0.51100000000E-03 0.  1.
    9900012    2    1    2    0    0 -0.42112444059E+00  0.95077128309E+01  0.44028837171E+02  0.46142329268E+02  0.10000104926E+02 0.  0.
        -12    1    1    2    0    0  0.42112444059E+00 -0.95077128309E+01 -0.44028837171E+02  0.45045670732E+02  0.00000000000E+00 0.  1.
         11    1    3    3    0    0  0.12679104616E+00  0.16984117866E+01  0.10346725655E+02  0.10485962550E+02  0.51100000000E-03 0. -1.
        -11    1    3    3    0    0 -0.40688444058E+01  0.47734129140E+01  0.25355862286E+02  0.26120120945E+02  0.51100000000E-03 0.  1.
        -12    1    3    3    0    0  0.35209289190E+01  0.30358881302E+01  0.83262492304E+01  0.95362457728E+01  0.00000000000E+00 0.  1.
</event>
<event>
 7    1  0.4452647E-009  0.4614232E+02  0.7816164E-02  0.1320468E+00
        -11   -1    0    0    0    0  0.00000000000E+00  0.00000000000E+00  0.45593999997E+02  0.45594000000E+02  0.51100000000E-03 0. -1.
         11   -1    0    0    0    0 -0.00000000000E+00 -0.00000000000E+00 -0.45593999997E+02  0.45594000000E+02  0.51100000000E-03 0.  1.
    9900012    2    1    2    0    0  0.70142067748E+01  0.34039368025E+02 -0.28657212251E+02  0.46142317785E+02  0.10000000218E+02 0.  0.
         12    1    1    2    0    0 -0.70142067748E+01 -0.34039368025E+02  0.28657212251E+02  0.45045682215E+02  0.00000000000E+00 0. -1.
         11    1    3    3    0    0  0.15145950057E+01  0.10592530130E+02 -0.61017012120E+01  0.12317729114E+02  0.51100000000E-03 0. -1.
        -11    1    3    3    0    0  0.45511183154E+01  0.60980734228E+01 -0.90134191662E+01  0.11795800215E+02  0.51100000000E-03 0.  1.
        -12    1    3    3    0    0  0.94849345371E+00  0.17348764472E+02 -0.13542091873E+02  0.22028788456E+02  0.00000000000E+00 0.  1.
</event>
<event>
 7    1  0.4452647E-009  0.4614232E+02  0.7816164E-02  0.1320468E+00
        -11   -1    0    0    0    0  0.00000000000E+00  0.00000000000E+00  0.45593999997E+02  0.45594000000E+02  0.51100000000E-03 0. -1.
         11   -1    0    0    0    0 -0.00000000000E+00 -0.00000000000E+00 -0.45593999997E+02  0.45594000000E+02  0.51100000000E-03 0.  1.
    9900012    2    1    2    0    0 -0.44981967182E+02  0.20250002883E+01  0.12788681110E+01  0.46142317617E+02  0.99999986869E+01 0.  0.
        -12    1    1    2    0    0  0.44981967182E+02 -0.20250002883E+01 -0.12788681110E+01  0.45045682383E+02  0.00000000000E+00 0.  1.
         11    1    3    3    0    0 -0.23797139364E+02  0.33354916324E+01 -0.13543863644E+01  0.24067897894E+02  0.51100000000E-03 0. -1.
        -11    1    3    3    0    0 -0.79480443572E+01 -0.24857908309E+01  0.27960675634E+01  0.87845636909E+01  0.51100000000E-03 0.  1.
        -12    1    3    3    0    0 -0.13236783460E+02  0.11752994868E+01 -0.16281308811E+00  0.13289856032E+02  0.00000000000E+00 0.  1.
</event>
<event>
 7    1  0.4452647E-009  0.4614232E+02  0.7816164E-02  0.1320468E+00
        -11   -1    0    0    0    0  0.00000000000E+00  0.00000000000E+00  0.45593999997E+02  0.45594000000E+02  0.51100000000E-03 0. -1.
         11   -1    0    0    0    0 -0.00000000000E+00 -0.00000000000E+00 -0.45593999997E+02  0.45594000000E+02  0.51100000000E-03 0.  1.
    9900012    2    1    2    0    0  0.20921162839E+02 -0.27369097880E+02  0.29023281754E+02  0.46142318109E+02  0.10000003173E+02 0.  0.
        -12    1    1    2    0    0 -0.20921162839E+02  0.27369097880E+02 -0.29023281754E+02  0.45045681891E+02  0.00000000000E+00 0.  1.
         11    1    3    3    0    0  0.14156848246E+02 -0.16101492573E+02  0.18725194824E+02  0.28465897787E+02  0.51100000000E-03 0. -1.
        -11    1    3    3    0    0  0.41569976652E+01 -0.69855673972E+01  0.96560068979E+01  0.12622093761E+02  0.51100000000E-03 0.  1.
        -12    1    3    3    0    0  0.26073169273E+01 -0.42820379097E+01  0.64208003167E+00  0.50543265611E+01  0.00000000000E+00 0.  1.
</event>
<event>
 7    1  0.4452647E-009  0.4614232E+02  0.7816164E-02  0.1320468E+00
        -11   -1    0    0    0    0  0.00000000000E+00  0.00000000000E+00  0.45593999997E+02  0.45594000000E+02  0.51100000000E-03 0. -1.
         11   -1    0    0    0    0 -0.00000000000E+00 -0.00000000000E+00 -0.45593999997E+02  0.45594000000E+02  0.51100000000E-03 0.  1.
    9900012    2    1    2    0    0  0.12541345416E+02  0.10205537672E+02 -0.42043724428E+02  0.46142321985E+02  0.10000038520E+02 0.  0.
         12    1    1    2    0    0 -0.12541345416E+02 -0.10205537672E+02  0.42043724428E+02  0.45045678015E+02  0.00000000000E+00 0. -1.
         11    1    3    3    0    0  0.45736537303E+01  0.58258768913E+01 -0.10501247327E+02  0.12850499822E+02  0.51100000000E-03 0. -1.
        -11    1    3    3    0    0  0.33890670006E+01 -0.39337521596E+00 -0.59529031817E+01  0.68613100605E+01  0.51100000000E-03 0.  1.
         12    1    3    3    0    0  0.45786246847E+01  0.47730359968E+01 -0.25589573919E+02  0.26430512102E+02  0.00000000000E+00 0. -1.
</event>
<event>
 7    1  0.4452647E-009  0.4614232E+02  0.7816164E-02  0.1320468E+00
        -11   -1    0    0    0    0  0.00000000000E+00  0.00000000000E+00  0.45593999997E+02  0.45594000000E+02  0.51100000000E-03 0. -1.
         11   -1    0    0    0    0 -0.00000000000E+00 -0.00000000000E+00 -0.45593999997E+02  0.45594000000E+02  0.51100000000E-03 0.  1.
    9900012    2    1    2    0    0 -0.34999713322E+02 -0.16164790579E+02  0.23298779461E+02  0.46142317505E+02  0.99999976647E+01 0.  0.
        -12    1    1    2    0    0  0.34999713322E+02  0.16164790579E+02 -0.23298779461E+02  0.45045682495E+02  0.00000000000E+00 0.  1.
         11    1    3    3    0    0 -0.13562478219E+02 -0.12083782652E+01  0.90639618911E+01  0.16357151307E+02  0.51100000000E-03 0. -1.
        -11    1    3    3    0    0 -0.11640469490E+02 -0.87824879703E+01  0.77690352885E+01  0.16522425199E+02  0.51100000000E-03 0.  1.
         12    1    3    3    0    0 -0.97967656131E+01 -0.61739243439E+01  0.64657822814E+01  0.13262740999E+02  0.00000000000E+00 0. -1.
</event>
<event>
 7    1  0.4452647E-009  0.4614232E+02  0.7816164E-02  0.1320468E+00
        -11   -1    0    0    0    0  0.00000000000E+00  0.00000000000E+00  0.45593999997E+02  0.45594000000E+02  0.51100000000E-03 0.  1.
         11   -1    0    0    0    0 -0.00000000000E+00 -0.00000000000E+00 -0.45593999997E+02  0.45594000000E+02  0.51100000000E-03 0. -1.
    9900012    2    1    2    0    0 -0.91695650381E+01  0.42731064417E+02 -0.10912776065E+02  0.46142317957E+02  0.10000001790E+02 0.  0.
         12    1    1    2    0    0  0.91695650381E+01 -0.42731064417E+02  0.10912776065E+02  0.45045682043E+02  0.00000000000E+00 0. -1.
         11    1    3    3    0    0 -0.68466415246E+01  0.17791143460E+02 -0.16145111070E+01  0.19131333779E+02  0.51100000000E-03 0. -1.
        -11    1    3    3    0    0 -0.49868846009E+00  0.97266118855E+00 -0.12552067251E+01  0.16644230688E+01  0.51100000000E-03 0.  1.
         12    1    3    3    0    0 -0.18242350534E+01  0.23967259768E+02 -0.80430582327E+01  0.25346561109E+02  0.00000000000E+00 0. -1.
</event>
<event>
 7    1  0.4452647E-009  0.4614232E+02  0.7816164E-02  0.1320468E+00
        -11   -1    0    0    0    0  0.00000000000E+00  0.00000000000E+00  0.45593999997E+02  0.45594000000E+02  0.51100000000E-03 0. -1.
         11   -1    0    0    0    0 -0.00000000000E+00 -0.00000000000E+00 -0.45593999997E+02  0.45594000000E+02  0.51100000000E-03 0.  1.
    9900012    2    1    2    0    0 -0.19876841768E+02 -0.16340565776E+02 -0.36973106761E+02  0.46142317054E+02  0.99999935493E+01 0.  0.
         12    1    1    2    0    0  0.19876841768E+02  0.16340565776E+02  0.36973106761E+02  0.45045682946E+02  0.00000000000E+00 0. -1.
         11    1    3    3    0    0 -0.71215674322E+01 -0.28251037491E+01 -0.14500235515E+02  0.16399840369E+02  0.51100000000E-03 0. -1.
        -11    1    3    3    0    0 -0.67971818776E+01 -0.64713402424E+01 -0.69252923233E+01  0.11663601504E+02  0.51100000000E-03 0.  1.
         12    1    3    3    0    0 -0.59580924586E+01 -0.70441217845E+01 -0.15547578922E+02  0.18078875181E+02  0.00000000000E+00 0. -1.
</event>
<event>
 7    1  0.4452647E-009  0.4614232E+02  0.7816164E-02  0.1320468E+00
        -11   -1    0    0    0    0  0.00000000000E+00  0.00000000000E+00  0.45593999997E+02  0.45594000000E+02  0.51100000000E-03 0.  1.
         11   -1    0    0    0    0 -0.00000000000E+00 -0.00000000000E+00 -0.45593999997E+02  0.45594000000E+02  0.51100000000E-03 0. -1.
    9900012    2    1    2    0    0  0.38269846098E+02 -0.23700588136E+02 -0.16776733125E+01  0.46142316676E+02  0.99999901061E+01 0.  0.
         12    1    1    2    0    0 -0.38269846098E+02  0.23700588136E+02  0.16776733125E+01  0.45045683324E+02  0.00000000000E+00 0. -1.
         11    1    3    3    0    0  0.14370418193E+02 -0.12932021554E+02  0.10730664315E+01  0.19362271879E+02  0.51100000000E-03 0. -1.
        -11    1    3    3    0    0  0.46442040529E+01 -0.62165875451E+00  0.71756036625E+00  0.47402514735E+01  0.51100000000E-03 0.  1.
         12    1    3    3    0    0  0.19255223853E+02 -0.10146907828E+02 -0.34683001102E+01  0.22039793323E+02  0.00000000000E+00 0. -1.
</event>
<event>
 7    1  0.4628034E-009  0.4614232E+02  0.7816164E-02  0.1320468E+00
        -11   -1    0    0    0    0  0.00000000000E+00  0.00000000000E+00  0.45593999997E+02  0.45594000000E+02  0.51100000000E-03 0. -1.
         11   -1    0    0    0    0 -0.00000000000E+00 -0.00000000000E+00 -0.45593999997E+02  0.45594000000E+02  0.51100000000E-03 0.  1.
    9900012    2    1    2    0    0  0.19606667643E+02 -0.35396901880E+02  0.19792710164E+02  0.46142318138E+02  0.10000003434E+02 0.  0.
        -12    1    1    2    0    0 -0.19606667643E+02  0.35396901880E+02 -0.19792710164E+02  0.45045681862E+02  0.00000000000E+00 0.  1.
         11    1    3    3    0    0  0.53871830223E+01 -0.13248175663E+02  0.34240875846E+01  0.14705790539E+02  0.51100000000E-03 0. -1.
        -11    1    3    3    0    0  0.51754557971E+00 -0.18106445584E+01  0.29012732343E+01  0.34588544035E+01  0.51100000000E-03 0.  1.
         12    1    3    3    0    0  0.13701939041E+02 -0.20338081659E+02  0.13467349345E+02  0.27977673195E+02  0.00000000000E+00 0. -1.
</event>
<event>
 7    1  0.4452647E-009  0.4614232E+02  0.7816164E-02  0.1320468E+00
        -11   -1    0    0    0    0  0.00000000000E+00  0.00000000000E+00  0.45593999997E+02  0.45594000000E+02  0.51100000000E-03 0. -1.
         11   -1    0    0    0    0 -0.00000000000E+00 -0.00000000000E+00 -0.45593999997E+02  0.45594000000E+02  0.51100000000E-03 0.  1.
    9900012    2    1    2    0    0  0.62755505560E+01  0.29607733018E+01  0.44508030539E+02  0.46142317679E+02  0.99999992489E+01 0.  0.
        -12    1    1    2    0    0 -0.62755505560E+01 -0.29607733018E+01 -0.44508030539E+02  0.45045682321E+02  0.00000000000E+00 0.  1.
         11    1    3    3    0    0  0.39444647294E+00 -0.98363965399E+00  0.51332563716E+01  0.52415127804E+01  0.51100000000E-03 0. -1.
        -11    1    3    3    0    0  0.12010164522E+01 -0.26072462203E+01  0.13518731642E+02  0.13820140334E+02  0.51100000000E-03 0.  1.
        -12    1    3    3    0    0  0.46800876309E+01  0.65516591761E+01  0.25856042525E+02  0.27080664564E+02  0.00000000000E+00 0.  1.
</event>
<event>
 7    1  0.4452647E-009  0.4614232E+02  0.7816164E-02  0.1320468E+00
        -11   -1    0    0    0    0  0.00000000000E+00  0.00000000000E+00  0.45593999997E+02  0.45594000000E+02  0.51100000000E-03 0. -1.
         11   -1    0    0    0    0 -0.00000000000E+00 -0.00000000000E+00 -0.45593999997E+02  0.45594000000E+02  0.51100000000E-03 0.  1.
    9900012    2    1    2    0    0  0.77639523304E+01  0.71221904083E+01  0.43796220622E+02  0.46142317713E+02  0.99999995585E+01 0.  0.
        -12    1    1    2    0    0 -0.77639523304E+01 -0.71221904083E+01 -0.43796220622E+02  0.45045682287E+02  0.00000000000E+00 0.  1.
         11    1    3    3    0    0  0.11262956772E+01  0.11330984762E+01  0.79267875253E+01  0.80861866687E+01  0.51100000000E-03 0. -1.
        -11    1    3    3    0    0  0.22374325888E+01  0.71752378708E+01  0.27699565460E+02  0.28701151023E+02  0.51100000000E-03 0.  1.
        -12    1    3    3    0    0  0.44002240644E+01 -0.11861459387E+01  0.81698676358E+01  0.93549800209E+01  0.00000000000E+00 0.  1.
</event>
<event>
 7    1  0.4452647E-009  0.4614231E+02  0.7816164E-02  0.1320468E+00
        -11   -1    0    0    0    0  0.00000000000E+00  0.00000000000E+00  0.45593999997E+02  0.45594000000E+02  0.51100000000E-03 0. -1.
         11   -1    0    0    0    0 -0.00000000000E+00 -0.00000000000E+00 -0.45593999997E+02  0.45594000000E+02  0.51100000000E-03 0.  1.
    9900012    2    1    2    0    0  0.29701480390E+02 -0.50079082430E+01  0.33494138701E+02  0.46142307535E+02  0.99999067499E+01 0.  0.
        -12    1    1    2    0    0 -0.29701480390E+02  0.50079082430E+01 -0.33494138701E+02  0.45045692465E+02  0.00000000000E+00 0.  1.
         11    1    3    3    0    0  0.27786357957E+01 -0.76741715093E+00  0.21454240395E+01  0.35934093197E+01  0.51100000000E-03 0. -1.
        -11    1    3    3    0    0  0.10758123236E+02 -0.62523873842E+01  0.14646054377E+02  0.19218128750E+02  0.51100000000E-03 0.  1.
        -12    1    3    3    0    0  0.16164721358E+02  0.20118962921E+01  0.16702660284E+02  0.23330769465E+02  0.00000000000E+00 0.  1.
</event>
<event>
 7    1  0.4452647E-009  0.4614232E+02  0.7816164E-02  0.1320468E+00
        -11   -1    0    0    0    0  0.00000000000E+00  0.00000000000E+00  0.45593999997E+02  0.45594000000E+02  0.51100000000E-03 0. -1.
         11   -1    0    0    0    0 -0.00000000000E+00 -0.00000000000E+00 -0.45593999997E+02  0.45594000000E+02  0.51100000000E-03 0.  1.
    9900012    2    1    2    0    0  0.11956188891E+01  0.12821993493E+02 -0.43165732387E+02  0.46142317919E+02  0.10000001440E+02 0.  0.
         12    1    1    2    0    0 -0.11956188891E+01 -0.12821993493E+02  0.43165732387E+02  0.45045682081E+02  0.00000000000E+00 0. -1.
         11    1    3    3    0    0  0.94491667872E+00  0.12781602546E+00 -0.18346333234E+01  0.20676276644E+01  0.51100000000E-03 0. -1.
        -11    1    3    3    0    0  0.30951157006E+01  0.98541388469E+01 -0.35645171031E+02  0.37111480861E+02  0.51100000000E-03 0.  1.
        -12    1    3    3    0    0 -0.28444134902E+01  0.28400386207E+01 -0.56859280320E+01  0.69632093933E+01  0.00000000000E+00 0.  1.
</event>
<event>
 7    1  0.4452647E-009  0.4614232E+02  0.7816164E-02  0.1320468E+00
        -11   -1    0    0    0    0  0.00000000000E+00  0.00000000000E+00  0.45593999997E+02  0.45594000000E+02  0.51100000000E-03 0. -1.
         11   -1    0    0    0    0 -0.00000000000E+00 -0.00000000000E+00 -0.45593999997E+02  0.45594000000E+02  0.51100000000E-03 0.  1.
    9900012    2    1    2    0    0  0.29737158166E+02 -0.15547387610E+01 -0.33799373234E+02  0.46142318527E+02  0.10000006981E+02 0.  0.
         12    1    1    2    0    0 -0.29737158166E+02  0.15547387610E+01  0.33799373234E+02  0.45045681473E+02  0.00000000000E+00 0. -1.
         11    1    3    3    0    0  0.19426259656E+02  0.19939549974E+01 -0.24226885330E+02  0.31117477305E+02  0.51100000000E-03 0. -1.
        -11    1    3    3    0    0  0.29417791480E+01 -0.49937936369E+00 -0.50254837090E+01  0.58445642331E+01  0.51100000000E-03 0.  1.
         12    1    3    3    0    0  0.73691193614E+01 -0.30493143947E+01 -0.45470041954E+01  0.91802769890E+01  0.00000000000E+00 0. -1.
</event>
<event>
 7    1  0.4452647E-009  0.4614231E+02  0.7816164E-02  0.1320468E+00
        -11   -1    0    0    0    0  0.00000000000E+00  0.00000000000E+00  0.45593999997E+02  0.45594000000E+02  0.51100000000E-03 0. -1.
         11   -1    0    0    0    0 -0.00000000000E+00 -0.00000000000E+00 -0.45593999997E+02  0.45594000000E+02  0.51100000000E-03 0.  1.
    9900012    2    1    2    0    0  0.63279886331E+01  0.66546071453E+01 -0.44099737753E+02  0.46142310903E+02  0.99999374588E+01 0.  0.
         12    1    1    2    0    0 -0.63279886331E+01 -0.66546071453E+01  0.44099737753E+02  0.45045689097E+02  0.00000000000E+00 0. -1.
         11    1    3    3    0    0  0.37117266054E+01 -0.10106830733E+01 -0.14246231136E+02  0.14756473038E+02  0.51100000000E-03 0. -1.
        -11    1    3    3    0    0 -0.35989708776E+00  0.59260808203E+01 -0.22406672299E+02  0.23179881872E+02  0.51100000000E-03 0.  1.
        -12    1    3    3    0    0  0.29761591154E+01  0.17392093983E+01 -0.74468343171E+01  0.82059559929E+01  0.00000000000E+00 0.  1.
</event>
<event>
 7    1  0.4452647E-009  0.4614232E+02  0.7816164E-02  0.1320468E+00
        -11   -1    0    0    0    0  0.00000000000E+00  0.00000000000E+00  0.45593999997E+02  0.45594000000E+02  0.51100000000E-03 0.  1.
         11   -1    0    0    0    0 -0.00000000000E+00 -0.00000000000E+00 -0.45593999997E+02  0.45594000000E+02  0.51100000000E-03 0. -1.
    9900012    2    1    2    0    0  0.36324472054E+02  0.26283280853E+02 -0.43399574606E+01  0.46142319262E+02  0.10000013687E+02 0.  0.
         12    1    1    2    0    0 -0.36324472054E+02 -0.26283280853E+02  0.43399574606E+01  0.45045680738E+02  0.00000000000E+00 0. -1.
         11    1    3    3    0    0  0.86318181101E-01 -0.13903176519E+00 -0.40650664186E+00  0.43821064697E+00  0.51100000000E-03 0. -1.
        -11    1    3    3    0    0  0.22427124846E+02  0.19437602986E+02 -0.53724977115E+01  0.30160571457E+02  0.51100000000E-03 0.  1.
        -12    1    3    3    0    0  0.13811029027E+02  0.69847096320E+01  0.14390468928E+01  0.15543537158E+02  0.00000000000E+00 0.  1.
</event>
<event>
 7    1  0.4452647E-009  0.4614232E+02  0.7816164E-02  0.1320468E+00
        -11   -1    0    0    0    0  0.00000000000E+00  0.00000000000E+00  0.45593999997E+02  0.45594000000E+02  0.51100000000E-03 0. -1.
         11   -1    0    0    0    0 -0.00000000000E+00 -0.00000000000E+00 -0.45593999997E+02  0.45594000000E+02  0.51100000000E-03 0.  1.
    9900012    2    1    2    0    0  0.30036340232E+02 -0.25023437357E+02 -0.22377652395E+02  0.46142317872E+02  0.10000001015E+02 0.  0.
         12    1    1    2    0    0 -0.30036340232E+02  0.25023437357E+02  0.22377652395E+02  0.45045682128E+02  0.00000000000E+00 0. -1.
         11    1    3    3    0    0  0.51695074929E+01 -0.22796917423E+01 -0.19399793599E+01  0.59736356046E+01  0.51100000000E-03 0. -1.
        -11    1    3    3    0    0  0.10410151997E+02 -0.46045395710E+01 -0.69453768857E+01  0.13334590718E+02  0.51100000000E-03 0.  1.
        -12    1    3    3    0    0  0.14456680742E+02 -0.18139206043E+02 -0.13492296149E+02  0.26834091550E+02  0.00000000000E+00 0.  1.
</event>
<event>
 7    1  0.4452647E-009  0.4614231E+02  0.7816164E-02  0.1320468E+00
        -11   -1    0    0    0    0  0.00000000000E+00  0.00000000000E+00  0.45593999997E+02  0.45594000000E+02  0.51100000000E-03 0. -1.
         11   -1    0    0    0    0 -0.00000000000E+00 -0.00000000000E+00 -0.45593999997E+02  0.45594000000E+02  0.51100000000E-03 0.  1.
    9900012    2    1    2    0    0  0.28817707712E+02 -0.21161124760E+01 -0.34556846480E+02  0.46142313765E+02  0.99999635593E+01 0.  0.
         12    1    1    2    0    0 -0.28817707712E+02  0.21161124760E+01  0.34556846480E+02  0.45045686235E+02  0.00000000000E+00 0. -1.
         11    1    3    3    0    0  0.48249120391E+01 -0.35397120682E+01 -0.68986521610E+01  0.91324005393E+01  0.51100000000E-03 0. -1.
        -11    1    3    3    0    0  0.21904937026E+02  0.26225495605E+01 -0.25936415869E+02  0.34049988263E+02  0.51100000000E-03 0.  1.
        -12    1    3    3    0    0  0.20878586465E+01 -0.11989499684E+01 -0.17217784495E+01  0.29599249625E+01  0.00000000000E+00 0.  1.
</event>
<event>
 7    1  0.4452647E-009  0.4614232E+02  0.7816164E-02  0.1320468E+00
        -11   -1    0    0    0    0  0.00000000000E+00  0.00000000000E+00  0.45593999997E+02  0.45594000000E+02  0.51100000000E-03 0. -1.
         11   -1    0    0    0    0 -0.00000000000E+00 -0.00000000000E+00 -0.45593999997E+02  0.45594000000E+02  0.51100000000E-03 0.  1.
    9900012    2    1    2    0    0  0.17134529481E+02  0.32124626928E+02  0.26524132582E+02  0.46142319130E+02  0.10000012483E+02 0.  0.
        -12    1    1    2    0    0 -0.17134529481E+02 -0.32124626928E+02 -0.26524132582E+02  0.45045680870E+02  0.00000000000E+00 0.  1.
         11    1    3    3    0    0  0.63986797179E+01  0.14595716878E+02  0.17117566176E+02  0.23387798643E+02  0.51100000000E-03 0. -1.
        -11    1    3    3    0    0  0.90629140481E+00  0.46216174547E+00  0.59126008687E+00  0.11766674725E+01  0.51100000000E-03 0.  1.
         12    1    3    3    0    0  0.98295583580E+01  0.17066748305E+02  0.88153063194E+01  0.21577853014E+02  0.00000000000E+00 0. -1.
</event>
<event>
 7    1  0.4452647E-009  0.4614232E+02  0.7816164E-02  0.1320468E+00
        -11   -1    0    0    0    0  0.00000000000E+00  0.00000000000E+00  0.45593999997E+02  0.45594000000E+02  0.51100000000E-03 0. -1.
         11   -1    0    0    0    0 -0.00000000000E+00 -0.00000000000E+00 -0.45593999997E+02  0.45594000000E+02  0.51100000000E-03 0.  1.
    9900012    2    1    2    0    0 -0.40052921316E+01  0.18511342233E+02 -0.40870543338E+02  0.46142317975E+02  0.10000001951E+02 0.  0.
         12    1    1    2    0    0  0.40052921316E+01 -0.18511342233E+02  0.40870543338E+02  0.45045682025E+02  0.00000000000E+00 0. -1.
         11    1    3    3    0    0  0.26284267499E+01  0.31269606005E+01 -0.12900412014E+02  0.13531708694E+02  0.51100000000E-03 0. -1.
        -11    1    3    3    0    0 -0.90292495146E+00  0.26352759197E+01 -0.44153244601E+01  0.52206362630E+01  0.51100000000E-03 0.  1.
         12    1    3    3    0    0 -0.57307939300E+01  0.12749105713E+02 -0.23554806864E+02  0.27389973018E+02  0.00000000000E+00 0. -1.
</event>
<event>
 7    1  0.4452647E-009  0.4614232E+02  0.7816164E-02  0.1320468E+00
        -11   -1    0    0    0    0  0.00000000000E+00  0.00000000000E+00  0.45593999997E+02  0.45594000000E+02  0.51100000000E-03 0. -1.
         11   -1    0    0    0    0 -0.00000000000E+00 -0.00000000000E+00 -0.45593999997E+02  0.45594000000E+02  0.51100000000E-03 0.  1.
    9900012    2    1    2    0    0  0.26203987079E+02 -0.59722590976E+00  0.36634790349E+02  0.46142317836E+02  0.10000000687E+02 0.  0.
        -12    1    1    2    0    0 -0.26203987079E+02  0.59722590976E+00 -0.36634790349E+02  0.45045682164E+02  0.00000000000E+00 0.  1.
         11    1    3    3    0    0  0.12498619394E+02  0.29696236948E+01  0.15774553465E+02  0.20343812055E+02  0.51100000000E-03 0. -1.
        -11    1    3    3    0    0  0.98908167275E+01 -0.40872710029E+01  0.11668744600E+02  0.15833307949E+02  0.51100000000E-03 0.  1.
        -12    1    3    3    0    0  0.38145509580E+01  0.52042139841E+00  0.91914922842E+01  0.99651978331E+01  0.00000000000E+00 0.  1.
</event>
<event>
 7    1  0.4452647E-009  0.4614232E+02  0.7816164E-02  0.1320468E+00
        -11   -1    0    0    0    0  0.00000000000E+00  0.00000000000E+00  0.45593999997E+02  0.45594000000E+02  0.51100000000E-03 0. -1.
         11   -1    0    0    0    0 -0.00000000000E+00 -0.00000000000E+00 -0.45593999997E+02  0.45594000000E+02  0.51100000000E-03 0.  1.
    9900012    2    1    2    0    0 -0.14512927564E+02  0.71870117675E+01  0.42033739679E+02  0.46142317898E+02  0.10000001250E+02 0.  0.
        -12    1    1    2    0    0  0.14512927564E+02 -0.71870117675E+01 -0.42033739679E+02  0.45045682102E+02  0.00000000000E+00 0.  1.
         11    1    3    3    0    0 -0.44472876393E+01  0.54174870104E+01  0.19447039663E+02  0.20671596087E+02  0.51100000000E-03 0. -1.
        -11    1    3    3    0    0  0.54008687316E+00  0.76243378714E+00  0.33857027189E+01  0.35122617033E+01  0.51100000000E-03 0.  1.
         12    1    3    3    0    0 -0.10605726797E+02  0.10070909700E+01  0.19200997297E+02  0.21958460108E+02  0.00000000000E+00 0. -1.
</event>
<event>
 7    1  0.4452647E-009  0.4614232E+02  0.7816164E-02  0.1320468E+00
        -11   -1    0    0    0    0  0.00000000000E+00  0.00000000000E+00  0.45593999997E+02  0.45594000000E+02  0.51100000000E-03 0. -1.
         11   -1    0    0    0    0 -0.00000000000E+00 -0.00000000000E+00 -0.45593999997E+02  0.45594000000E+02  0.51100000000E-03 0.  1.
    9900012    2    1    2    0    0 -0.25623569731E+02  0.29146807949E+02  0.22869406572E+02  0.46142317673E+02  0.99999991934E+01 0.  0.
        -12    1    1    2    0    0  0.25623569731E+02 -0.29146807949E+02 -0.22869406572E+02  0.45045682327E+02  0.00000000000E+00 0.  1.
         11    1    3    3    0    0 -0.35582399318E+01  0.53815463019E+01  0.57909671727E+01  0.86693375218E+01  0.51100000000E-03 0. -1.
        -11    1    3    3    0    0 -0.13275475937E+02  0.13994965537E+02  0.14371276607E+02  0.24054748249E+02  0.51100000000E-03 0.  1.
        -12    1    3    3    0    0 -0.87898538620E+01  0.97702961096E+01  0.27071627929E+01  0.13418231902E+02  0.00000000000E+00 0.  1.
</event>
<event>
 7    1  0.4452647E-009  0.4614232E+02  0.7816164E-02  0.1320468E+00
        -11   -1    0    0    0    0  0.00000000000E+00  0.00000000000E+00  0.45593999997E+02  0.45594000000E+02  0.51100000000E-03 0. -1.
         11   -1    0    0    0    0 -0.00000000000E+00 -0.00000000000E+00 -0.45593999997E+02  0.45594000000E+02  0.51100000000E-03 0.  1.
    9900012    2    1    2    0    0  0.36916229035E+02  0.14685509997E+02 -0.21228313514E+02  0.46142318025E+02  0.10000002402E+02 0.  0.
         12    1    1    2    0    0 -0.36916229035E+02 -0.14685509997E+02  0.21228313514E+02  0.45045681975E+02  0.00000000000E+00 0. -1.
         11    1    3    3    0    0 -0.21513316759E+00  0.64629323831E+00  0.29899280882E+00  0.74389124913E+00  0.51100000000E-03 0. -1.
        -11    1    3    3    0    0  0.14318823593E+02  0.40348913301E+01 -0.10177892580E+02  0.18024942573E+02  0.51100000000E-03 0.  1.
         12    1    3    3    0    0  0.22812538610E+02  0.10004325428E+02 -0.11349413743E+02  0.27373484203E+02  0.00000000000E+00 0. -1.
</event>
<event>
 7    1  0.4452647E-009  0.4614232E+02  0.7816164E-02  0.1320468E+00
        -11   -1    0    0    0    0  0.00000000000E+00  0.00000000000E+00  0.45593999997E+02  0.45594000000E+02  0.51100000000E-03 0. -1.
         11   -1    0    0    0    0 -0.00000000000E+00 -0.00000000000E+00 -0.45593999997E+02  0.45594000000E+02  0.51100000000E-03 0.  1.
    9900012    2    1    2    0    0  0.14892886376E+02  0.19495775001E+02 -0.37778699657E+02  0.46142318128E+02  0.10000003346E+02 0.  0.
         12    1    1    2    0    0 -0.14892886376E+02 -0.19495775001E+02  0.37778699657E+02  0.45045681872E+02  0.00000000000E+00 0. -1.
         11    1    3    3    0    0  0.94891018291E+01  0.10814803068E+02 -0.13884076569E+02  0.19994264211E+02  0.51100000000E-03 0. -1.
        -11    1    3    3    0    0  0.46497142992E+01  0.50184862787E+01 -0.16488300629E+02  0.17851305428E+02  0.51100000000E-03 0.  1.
         12    1    3    3    0    0  0.75407024800E+00  0.36624856545E+01 -0.74063224598E+01  0.82967484888E+01  0.00000000000E+00 0. -1.
</event>
<event>
 7    1  0.4452647E-009  0.4614232E+02  0.7816164E-02  0.1320468E+00
        -11   -1    0    0    0    0  0.00000000000E+00  0.00000000000E+00  0.45593999997E+02  0.45594000000E+02  0.51100000000E-03 0. -1.
         11   -1    0    0    0    0 -0.00000000000E+00 -0.00000000000E+00 -0.45593999997E+02  0.45594000000E+02  0.51100000000E-03 0.  1.
    9900012    2    1    2    0    0  0.33655492803E+00 -0.44630577327E+02  0.60919493805E+01  0.46142317088E+02  0.99999938604E+01 0.  0.
        -12    1    1    2    0    0 -0.33655492803E+00  0.44630577327E+02 -0.60919493805E+01  0.45045682912E+02  0.00000000000E+00 0.  1.
         11    1    3    3    0    0  0.19427226419E+01 -0.25589516170E+02  0.46692355536E+01  0.26084464150E+02  0.51100000000E-03 0. -1.
        -11    1    3    3    0    0 -0.29033213047E+01 -0.90092977236E+01 -0.13698774394E+01  0.95641666929E+01  0.51100000000E-03 0.  1.
        -12    1    3    3    0    0  0.12971535908E+01 -0.10031763434E+02  0.27925912663E+01  0.10493686245E+02  0.00000000000E+00 0.  1.
</event>
<event>
 7    1  0.4452647E-009  0.4614232E+02  0.7816164E-02  0.1320468E+00
        -11   -1    0    0    0    0  0.00000000000E+00  0.00000000000E+00  0.45593999997E+02  0.45594000000E+02  0.51100000000E-03 0. -1.
         11   -1    0    0    0    0 -0.00000000000E+00 -0.00000000000E+00 -0.45593999997E+02  0.45594000000E+02  0.51100000000E-03 0.  1.
    9900012    2    1    2    0    0 -0.19329966494E+02  0.21620995968E+02 -0.34467352689E+02  0.46142317935E+02  0.10000001582E+02 0.  0.
         12    1    1    2    0    0  0.19329966494E+02 -0.21620995968E+02  0.34467352689E+02  0.45045682065E+02  0.00000000000E+00 0. -1.
         11    1    3    3    0    0 -0.66363860722E+01  0.86126188885E+01 -0.81521747586E+01  0.13589583429E+02  0.51100000000E-03 0. -1.
        -11    1    3    3    0    0  0.26760681304E+00  0.79285359312E+00 -0.35555821859E+01  0.36527243488E+01  0.51100000000E-03 0.  1.
        -12    1    3    3    0    0 -0.12961187235E+02  0.12215523487E+02 -0.22759595745E+02  0.28900010157E+02  0.00000000000E+00 0.  1.
</event>
<event>
 7    1  0.4452647E-009  0.4614232E+02  0.7816164E-02  0.1320468E+00
        -11   -1    0    0    0    0  0.00000000000E+00  0.00000000000E+00  0.45593999997E+02  0.45594000000E+02  0.51100000000E-03 0. -1.
         11   -1    0    0    0    0 -0.00000000000E+00 -0.00000000000E+00 -0.45593999997E+02  0.45594000000E+02  0.51100000000E-03 0.  1.
    9900012    2    1    2    0    0  0.14691225924E+02 -0.12998785395E+02 -0.40550127012E+02  0.46142319390E+02  0.10000014853E+02 0.  0.
         12    1    1    2    0    0 -0.14691225924E+02  0.12998785395E+02  0.40550127012E+02  0.45045680610E+02  0.00000000000E+00 0. -1.
         11    1    3    3    0    0  0.25392751388E+01 -0.29315694061E+01 -0.14762223194E+02  0.15263199249E+02  0.51100000000E-03 0. -1.
        -11    1    3    3    0    0  0.41514402684E+01 -0.40609887208E-01 -0.66753196423E+01  0.78610430639E+01  0.51100000000E-03 0.  1.
        -12    1    3    3    0    0  0.80005105165E+01 -0.10026606102E+02 -0.19112584176E+02  0.23018077077E+02  0.00000000000E+00 0.  1.
</event>
<event>
 7    1  0.5345756E-009  0.4614232E+02  0.7816164E-02  0.1320468E+00
        -11   -1    0    0    0    0  0.00000000000E+00  0.00000000000E+00  0.45593999997E+02  0.45594000000E+02  0.51100000000E-03 0. -1.
         11   -1    0    0    0    0 -0.00000000000E+00 -0.00000000000E+00 -0.45593999997E+02  0.45594000000E+02  0.51100000000E-03 0.  1.
    9900012    2    1    2    0    0 -0.89352402247E+01  0.10074490002E+02  0.42985803687E+02  0.46142321125E+02  0.10000030671E+02 0.  0.
        -12    1    1    2    0    0  0.89352402247E+01 -0.10074490002E+02 -0.42985803687E+02  0.45045678875E+02  0.00000000000E+00 0.  1.
         11    1    3    3    0    0 -0.74868450923E+01  0.91746106387E+01  0.36180766681E+02  0.38069334217E+02  0.51100000000E-03 0. -1.
        -11    1    3    3    0    0 -0.43886491216E+00  0.11583617872E+01  0.51772359407E-01  0.12397923534E+01  0.51100000000E-03 0.  1.
         12    1    3    3    0    0 -0.10095302202E+01 -0.25848242349E+00  0.67532646471E+01  0.68331945547E+01  0.00000000000E+00 0. -1.
</event>
<event>
 7    1  0.4452647E-009  0.4614232E+02  0.7816164E-02  0.1320468E+00
        -11   -1    0    0    0    0  0.00000000000E+00  0.00000000000E+00  0.45593999997E+02  0.45594000000E+02  0.51100000000E-03 0. -1.
         11   -1    0    0    0    0 -0.00000000000E+00 -0.00000000000E+00 -0.45593999997E+02  0.45594000000E+02  0.51100000000E-03 0.  1.
    9900012    2    1    2    0    0 -0.17180183860E+02  0.79340816415E+01  0.40877928657E+02  0.46142318518E+02  0.10000006898E+02 0.  0.
        -12    1    1    2    0    0  0.17180183860E+02 -0.79340816415E+01 -0.40877928657E+02  0.45045681482E+02  0.00000000000E+00 0.  1.
         11    1    3    3    0    0 -0.99532734766E+01  0.15426363058E+01  0.15056707563E+02  0.18114961291E+02  0.51100000000E-03 0.  1.
        -11    1    3    3    0    0 -0.19246914710E+01  0.37826810610E+01  0.16108792540E+02  0.16658520662E+02  0.51100000000E-03 0. -1.
         12    1    3    3    0    0 -0.53022189122E+01  0.26087642747E+01  0.97124285530E+01  0.11368836565E+02  0.00000000000E+00 0. -1.
</event>
<event>
 7    1  0.4452647E-009  0.4614232E+02  0.7816164E-02  0.1320468E+00
        -11   -1    0    0    0    0  0.00000000000E+00  0.00000000000E+00  0.45593999997E+02  0.45594000000E+02  0.51100000000E-03 0. -1.
         11   -1    0    0    0    0 -0.00000000000E+00 -0.00000000000E+00 -0.45593999997E+02  0.45594000000E+02  0.51100000000E-03 0.  1.
    9900012    2    1    2    0    0  0.20573525552E+02 -0.30154768898E+02  0.26391920659E+02  0.46142317443E+02  0.99999971023E+01 0.  0.
        -12    1    1    2    0    0 -0.20573525552E+02  0.30154768898E+02 -0.26391920659E+02  0.45045682557E+02  0.00000000000E+00 0.  1.
         11    1    3    3    0    0  0.40254455960E+01 -0.47290369177E+01  0.28212327055E+01  0.68210964408E+01  0.51100000000E-03 0. -1.
        -11    1    3    3    0    0  0.31745608741E+01 -0.11670061568E+02  0.11271229849E+02  0.16532053603E+02  0.51100000000E-03 0.  1.
        -12    1    3    3    0    0  0.13373519081E+02 -0.13755670412E+02  0.12299458104E+02  0.22789167400E+02  0.00000000000E+00 0.  1.
</event>
<event>
 7    1  0.4452647E-009  0.4614231E+02  0.7816164E-02  0.1320468E+00
        -11   -1    0    0    0    0  0.00000000000E+00  0.00000000000E+00  0.45593999997E+02  0.45594000000E+02  0.51100000000E-03 0. -1.
         11   -1    0    0    0    0 -0.00000000000E+00 -0.00000000000E+00 -0.45593999997E+02  0.45594000000E+02  0.51100000000E-03 0.  1.
    9900012    2    1    2    0    0  0.23199821450E+02  0.55181671720E+01 -0.38215602836E+02  0.46142310036E+02  0.99999295552E+01 0.  0.
         12    1    1    2    0    0 -0.23199821450E+02 -0.55181671720E+01  0.38215602836E+02  0.45045689964E+02  0.00000000000E+00 0. -1.
         11    1    3    3    0    0  0.18676475294E+01  0.23512126829E+01 -0.16277372507E+01  0.34155288306E+01  0.51100000000E-03 0. -1.
        -11    1    3    3    0    0  0.18605141681E+02  0.36869817789E+01 -0.33994375095E+02  0.38927659446E+02  0.51100000000E-03 0.  1.
        -12    1    3    3    0    0  0.27270322395E+01 -0.52002728984E+00 -0.25934904898E+01  0.37991217588E+01  0.00000000000E+00 0.  1.
</event>
<event>
 7    1  0.4452647E-009  0.4614232E+02  0.7816164E-02  0.1320468E+00
        -11   -1    0    0    0    0  0.00000000000E+00  0.00000000000E+00  0.45593999997E+02  0.45594000000E+02  0.51100000000E-03 0. -1.
         11   -1    0    0    0    0 -0.00000000000E+00 -0.00000000000E+00 -0.45593999997E+02  0.45594000000E+02  0.51100000000E-03 0.  1.
    9900012    2    1    2    0    0 -0.25514174972E+02 -0.12466599256E+02 -0.34967473500E+02  0.46142318470E+02  0.10000006461E+02 0.  0.
         12    1    1    2    0    0  0.25514174972E+02  0.12466599256E+02  0.34967473500E+02  0.45045681530E+02  0.00000000000E+00 0. -1.
         11    1    3    3    0    0 -0.24616899797E+01 -0.13941814823E+01 -0.96284475520E+01  0.10035470197E+02  0.51100000000E-03 0. -1.
        -11    1    3    3    0    0 -0.70028822411E+01 -0.19892184443E+01 -0.72967941900E+01  0.10307305924E+02  0.51100000000E-03 0.  1.
         12    1    3    3    0    0 -0.16049602752E+02 -0.90831993293E+01 -0.18042231758E+02  0.25799542348E+02  0.00000000000E+00 0. -1.
</event>
<event>
 7    1  0.4452647E-009  0.4614232E+02  0.7816164E-02  0.1320468E+00
        -11   -1    0    0    0    0  0.00000000000E+00  0.00000000000E+00  0.45593999997E+02  0.45594000000E+02  0.51100000000E-03 0. -1.
         11   -1    0    0    0    0 -0.00000000000E+00 -0.00000000000E+00 -0.45593999997E+02  0.45594000000E+02  0.51100000000E-03 0.  1.
    9900012    2    1    2    0    0 -0.20062114264E+02  0.19914161121E+02 -0.35072086748E+02  0.46142317512E+02  0.99999977302E+01 0.  0.
         12    1    1    2    0    0  0.20062114264E+02 -0.19914161121E+02  0.35072086748E+02  0.45045682488E+02  0.00000000000E+00 0. -1.
         11    1    3    3    0    0 -0.63629100825E+01  0.52364834069E+01 -0.44930505303E+01  0.93858876255E+01  0.51100000000E-03 0. -1.
        -11    1    3    3    0    0 -0.47340826100E+01  0.41570274708E+01 -0.12508831150E+02  0.14005829949E+02  0.51100000000E-03 0.  1.
         12    1    3    3    0    0 -0.89651215717E+01  0.10520650244E+02 -0.18070205068E+02  0.22750599938E+02  0.00000000000E+00 0. -1.
</event>
<event>
 7    1  0.4452647E-009  0.4614232E+02  0.7816164E-02  0.1320468E+00
        -11   -1    0    0    0    0  0.00000000000E+00  0.00000000000E+00  0.45593999997E+02  0.45594000000E+02  0.51100000000E-03 0. -1.
         11   -1    0    0    0    0 -0.00000000000E+00 -0.00000000000E+00 -0.45593999997E+02  0.45594000000E+02  0.51100000000E-03 0.  1.
    9900012    2    1    2    0    0  0.15634653551E+02  0.14240267761E+02  0.39772930429E+02  0.46142316384E+02  0.99999874398E+01 0.  0.
        -12    1    1    2    0    0 -0.15634653551E+02 -0.14240267761E+02 -0.39772930429E+02  0.45045683616E+02  0.00000000000E+00 0.  1.
         11    1    3    3    0    0  0.70947827799E+00  0.39324305467E+01  0.84738718430E+01  0.93687711950E+01  0.51100000000E-03 0. -1.
        -11    1    3    3    0    0  0.99477828371E+01  0.50105187714E+01  0.24068601043E+02  0.26520958470E+02  0.51100000000E-03 0.  1.
         12    1    3    3    0    0  0.49773924360E+01  0.52973184432E+01  0.72304575424E+01  0.10252586719E+02  0.00000000000E+00 0. -1.
</event>
<event>
 7    1  0.4452647E-009  0.4614232E+02  0.7816164E-02  0.1320468E+00
        -11   -1    0    0    0    0  0.00000000000E+00  0.00000000000E+00  0.45593999997E+02  0.45594000000E+02  0.51100000000E-03 0.  1.
         11   -1    0    0    0    0 -0.00000000000E+00 -0.00000000000E+00 -0.45593999997E+02  0.45594000000E+02  0.51100000000E-03 0. -1.
    9900012    2    1    2    0    0  0.38159437877E+01 -0.44740236873E+02 -0.35865400717E+01  0.46142317720E+02  0.99999996237E+01 0.  0.
        -12    1    1    2    0    0 -0.38159437877E+01  0.44740236873E+02  0.35865400717E+01  0.45045682280E+02  0.00000000000E+00 0.  1.
         11    1    3    3    0    0  0.10152066544E+01 -0.36970236990E+02 -0.85941623799E+00  0.36994157163E+02  0.51100000000E-03 0. -1.
        -11    1    3    3    0    0  0.18255500840E+01 -0.41663956704E+01 -0.29277549776E+01  0.54095503937E+01  0.51100000000E-03 0.  1.
         12    1    3    3    0    0  0.97518704929E+00 -0.36036042121E+01  0.20063114390E+00  0.37386101635E+01  0.00000000000E+00 0. -1.
</event>
<event>
 7    1  0.4452647E-009  0.4614232E+02  0.7816164E-02  0.1320468E+00
        -11   -1    0    0    0    0  0.00000000000E+00  0.00000000000E+00  0.45593999997E+02  0.45594000000E+02  0.51100000000E-03 0. -1.
         11   -1    0    0    0    0 -0.00000000000E+00 -0.00000000000E+00 -0.45593999997E+02  0.45594000000E+02  0.51100000000E-03 0.  1.
    9900012    2    1    2    0    0  0.26440127572E+02  0.30805180601E+01 -0.36339282252E+02  0.46142319051E+02  0.10000011761E+02 0.  0.
         12    1    1    2    0    0 -0.26440127572E+02 -0.30805180601E+01  0.36339282252E+02  0.45045680949E+02  0.00000000000E+00 0. -1.
         11    1    3    3    0    0  0.20487700780E+01 -0.21803886389E+01 -0.53133302597E+01  0.60977891206E+01  0.51100000000E-03 0. -1.
        -11    1    3    3    0    0  0.21945496225E+02  0.53433234426E+01 -0.29524978117E+02  0.37173649849E+02  0.51100000000E-03 0.  1.
         12    1    3    3    0    0  0.24458612696E+01 -0.82416743697E-01 -0.15009738750E+01  0.28708800817E+01  0.00000000000E+00 0. -1.
</event>
<event>
 7    1  0.4452647E-009  0.4614232E+02  0.7816164E-02  0.1320468E+00
        -11   -1    0    0    0    0  0.00000000000E+00  0.00000000000E+00  0.45593999997E+02  0.45594000000E+02  0.51100000000E-03 0. -1.
         11   -1    0    0    0    0 -0.00000000000E+00 -0.00000000000E+00 -0.45593999997E+02  0.45594000000E+02  0.51100000000E-03 0.  1.
    9900012    2    1    2    0    0  0.22018503970E+02  0.32326679859E+02  0.22344680597E+02  0.46142317646E+02  0.99999989514E+01 0.  0.
        -12    1    1    2    0    0 -0.22018503970E+02 -0.32326679859E+02 -0.22344680597E+02  0.45045682354E+02  0.00000000000E+00 0.  1.
         11    1    3    3    0    0  0.86686918044E+01  0.81277885495E+01  0.70499262551E+01  0.13816968726E+02  0.51100000000E-03 0.  1.
        -11    1    3    3    0    0  0.54677606737E+01  0.42612431687E+01  0.49695186171E+01  0.85294030081E+01  0.51100000000E-03 0. -1.
         12    1    3    3    0    0  0.78820514918E+01  0.19937648140E+02  0.10325235725E+02  0.23795945912E+02  0.00000000000E+00 0. -1.
</event>
<event>
 7    1  0.4452647E-009  0.4614232E+02  0.7816164E-02  0.1320468E+00
        -11   -1    0    0    0    0  0.00000000000E+00  0.00000000000E+00  0.45593999997E+02  0.45594000000E+02  0.51100000000E-03 0. -1.
         11   -1    0    0    0    0 -0.00000000000E+00 -0.00000000000E+00 -0.45593999997E+02  0.45594000000E+02  0.51100000000E-03 0.  1.
    9900012    2    1    2    0    0  0.26720773296E+02  0.26774627775E+02  0.24458803050E+02  0.46142318024E+02  0.10000002402E+02 0.  0.
        -12    1    1    2    0    0 -0.26720773296E+02 -0.26774627775E+02 -0.24458803050E+02  0.45045681976E+02  0.00000000000E+00 0.  1.
         11    1    3    3    0    0  0.76929556931E+01  0.90612004541E+01  0.12170081797E+02  0.17011696334E+02  0.51100000000E-03 0. -1.
        -11    1    3    3    0    0  0.58307193080E+01  0.85307442228E+01  0.49478767852E+01  0.11456542654E+02  0.51100000000E-03 0.  1.
        -12    1    3    3    0    0  0.13197098295E+02  0.91826830980E+01  0.73408444680E+01  0.17674079036E+02  0.00000000000E+00 0.  1.
</event>
<event>
 7    1  0.4452647E-009  0.4614232E+02  0.7816164E-02  0.1320468E+00
        -11   -1    0    0    0    0  0.00000000000E+00  0.00000000000E+00  0.45593999997E+02  0.45594000000E+02  0.51100000000E-03 0. -1.
         11   -1    0    0    0    0 -0.00000000000E+00 -0.00000000000E+00 -0.45593999997E+02  0.45594000000E+02  0.51100000000E-03 0.  1.
    9900012    2    1    2    0    0 -0.25468095750E+02 -0.16191044095E+02  0.33441582972E+02  0.46142320055E+02  0.10000020915E+02 0.  0.
        -12    1    1    2    0    0  0.25468095750E+02  0.16191044095E+02 -0.33441582972E+02  0.45045679945E+02  0.00000000000E+00 0.  1.
         11    1    3    3    0    0 -0.13928294144E+02 -0.59583868872E+01  0.16547408064E+02  0.22434715642E+02  0.51100000000E-03 0. -1.
        -11    1    3    3    0    0  0.72797817030E-01 -0.21751215423E+01  0.87856293899E+00  0.23469823912E+01  0.51100000000E-03 0.  1.
        -12    1    3    3    0    0 -0.11612599423E+02 -0.80575356657E+01  0.16015611970E+02  0.21360622021E+02  0.00000000000E+00 0.  1.
</event>
<event>
 7    1  0.4452647E-009  0.4614232E+02  0.7816164E-02  0.1320468E+00
        -11   -1    0    0    0    0  0.00000000000E+00  0.00000000000E+00  0.45593999997E+02  0.45594000000E+02  0.51100000000E-03 0. -1.
         11   -1    0    0    0    0 -0.00000000000E+00 -0.00000000000E+00 -0.45593999997E+02  0.45594000000E+02  0.51100000000E-03 0.  1.
    9900012    2    1    2    0    0  0.77955276265E+01  0.24100267876E+02 -0.37249433210E+02  0.46142318330E+02  0.10000005186E+02 0.  0.
         12    1    1    2    0    0 -0.77955276265E+01 -0.24100267876E+02  0.37249433210E+02  0.45045681670E+02  0.00000000000E+00 0. -1.
         11    1    3    3    0    0  0.10912754602E+01  0.16774348926E+02 -0.26969144587E+02  0.31778993440E+02  0.51100000000E-03 0. -1.
        -11    1    3    3    0    0  0.35198708220E+00  0.67804730506E+00 -0.13169320403E+01  0.15224826153E+01  0.51100000000E-03 0.  1.
         12    1    3    3    0    0  0.63522650841E+01  0.66478716440E+01 -0.89633565831E+01  0.12840842275E+02  0.00000000000E+00 0. -1.
</event>
<event>
 7    1  0.4452647E-009  0.4614232E+02  0.7816164E-02  0.1320468E+00
        -11   -1    0    0    0    0  0.00000000000E+00  0.00000000000E+00  0.45593999997E+02  0.45594000000E+02  0.51100000000E-03 0.  1.
         11   -1    0    0    0    0 -0.00000000000E+00 -0.00000000000E+00 -0.45593999997E+02  0.45594000000E+02  0.51100000000E-03 0. -1.
    9900012    2    1    2    0    0 -0.30886673429E+02  0.31762227917E+02 -0.81417287877E+01  0.46142318016E+02  0.10000002320E+02 0.  0.
         12    1    1    2    0    0  0.30886673429E+02 -0.31762227917E+02  0.81417287877E+01  0.45045681984E+02  0.00000000000E+00 0. -1.
         11    1    3    3    0    0 -0.52761835401E+01  0.49850232441E+01  0.22168669580E+01  0.75896685609E+01  0.51100000000E-03 0. -1.
        -11    1    3    3    0    0 -0.16082705847E+02  0.18288851560E+02 -0.73976263092E+01  0.25453101854E+02  0.51100000000E-03 0.  1.
         12    1    3    3    0    0 -0.95277840425E+01  0.84883531135E+01 -0.29609694365E+01  0.13099547601E+02  0.00000000000E+00 0. -1.
</event>
<event>
 7    1  0.4452647E-009  0.4614232E+02  0.7816164E-02  0.1320468E+00
        -11   -1    0    0    0    0  0.00000000000E+00  0.00000000000E+00  0.45593999997E+02  0.45594000000E+02  0.51100000000E-03 0. -1.
         11   -1    0    0    0    0 -0.00000000000E+00 -0.00000000000E+00 -0.45593999997E+02  0.45594000000E+02  0.51100000000E-03 0.  1.
    9900012    2    1    2    0    0  0.11076536685E+02  0.10267333759E+02 -0.42438257390E+02  0.46142317657E+02  0.99999990490E+01 0.  0.
         12    1    1    2    0    0 -0.11076536685E+02 -0.10267333759E+02  0.42438257390E+02  0.45045682343E+02  0.00000000000E+00 0. -1.
         11    1    3    3    0    0  0.17602409136E+01 -0.11838982754E+01 -0.50692715392E+01  0.54952322426E+01  0.51100000000E-03 0.  1.
        -11    1    3    3    0    0  0.92720186120E+01  0.10898514615E+02 -0.37446450422E+02  0.40087212418E+02  0.51100000000E-03 0. -1.
         12    1    3    3    0    0  0.44277159798E-01  0.55271741920E+00  0.77464571252E-01  0.55987299646E+00  0.00000000000E+00 0. -1.
</event>
<event>
 7    1  0.4452647E-009  0.4614232E+02  0.7816164E-02  0.1320468E+00
        -11   -1    0    0    0    0  0.00000000000E+00  0.00000000000E+00  0.45593999997E+02  0.45594000000E+02  0.51100000000E-03 0. -1.
         11   -1    0    0    0    0 -0.00000000000E+00 -0.00000000000E+00 -0.45593999997E+02  0.45594000000E+02  0.51100000000E-03 0.  1.
    9900012    2    1    2    0    0 -0.75971293486E+01  0.20202598664E+02 -0.39537978753E+02  0.46142321728E+02  0.10000036170E+02 0.  0.
         12    1    1    2    0    0  0.75971293486E+01 -0.20202598664E+02  0.39537978753E+02  0.45045678272E+02  0.00000000000E+00 0. -1.
         11    1    3    3    0    0 -0.13509931486E+01  0.15842678567E+02 -0.23888101034E+02  0.28695940792E+02  0.51100000000E-03 0. -1.
        -11    1    3    3    0    0 -0.57718652760E+01  0.41569214365E+01 -0.13791530529E+02  0.15517755611E+02  0.51100000000E-03 0.  1.
         12    1    3    3    0    0 -0.47427092400E+00  0.20299866097E+00 -0.18583471902E+01  0.19286253252E+01  0.00000000000E+00 0. -1.
</event>
<event>
 7    1  0.4452647E-009  0.4614232E+02  0.7816164E-02  0.1320468E+00
        -11   -1    0    0    0    0  0.00000000000E+00  0.00000000000E+00  0.45593999997E+02  0.45594000000E+02  0.51100000000E-03 0. -1.
         11   -1    0    0    0    0 -0.00000000000E+00 -0.00000000000E+00 -0.45593999997E+02  0.45594000000E+02  0.51100000000E-03 0.  1.
    9900012    2    1    2    0    0  0.20709957737E+02  0.24944099542E+02 -0.31273040071E+02  0.46142317780E+02  0.10000000170E+02 0.  0.
         12    1    1    2    0    0 -0.20709957737E+02 -0.24944099542E+02  0.31273040071E+02  0.45045682220E+02  0.00000000000E+00 0. -1.
         11    1    3    3    0    0  0.58715556152E+01  0.42189746731E+01 -0.86869357039E+01  0.11302113290E+02  0.51100000000E-03 0. -1.
        -11    1    3    3    0    0  0.60242968946E+01  0.30091255922E+01 -0.60591358180E+01  0.90587039374E+01  0.51100000000E-03 0.  1.
        -12    1    3    3    0    0  0.88141052277E+01  0.17715999276E+02 -0.16526968549E+02  0.25781500552E+02  0.00000000000E+00 0.  1.
</event>
<event>
 7    1  0.4452647E-009  0.4614232E+02  0.7816164E-02  0.1320468E+00
        -11   -1    0    0    0    0  0.00000000000E+00  0.00000000000E+00  0.45593999997E+02  0.45594000000E+02  0.51100000000E-03 0. -1.
         11   -1    0    0    0    0 -0.00000000000E+00 -0.00000000000E+00 -0.45593999997E+02  0.45594000000E+02  0.51100000000E-03 0.  1.
    9900012    2    1    2    0    0 -0.13353611686E+02  0.14225017697E+01  0.42997334340E+02  0.46142320776E+02  0.10000027496E+02 0.  0.
        -12    1    1    2    0    0  0.13353611686E+02 -0.14225017697E+01 -0.42997334340E+02  0.45045679224E+02  0.00000000000E+00 0.  1.
         11    1    3    3    0    0 -0.57169428125E+01  0.38732762006E+01  0.29855830660E+02  0.30644025981E+02  0.51100000000E-03 0. -1.
        -11    1    3    3    0    0 -0.45487748313E+01 -0.17281830726E+01  0.94682706788E+01  0.10645474114E+02  0.51100000000E-03 0.  1.
         12    1    3    3    0    0 -0.30878940424E+01 -0.72259135835E+00  0.36732330015E+01  0.48528206820E+01  0.00000000000E+00 0. -1.
</event>
<event>
 7    1  0.4452647E-009  0.4614232E+02  0.7816164E-02  0.1320468E+00
        -11   -1    0    0    0    0  0.00000000000E+00  0.00000000000E+00  0.45593999997E+02  0.45594000000E+02  0.51100000000E-03 0. -1.
         11   -1    0    0    0    0 -0.00000000000E+00 -0.00000000000E+00 -0.45593999997E+02  0.45594000000E+02  0.51100000000E-03 0.  1.
    9900012    2    1    2    0    0 -0.24858448549E+02  0.29080455752E+02  0.23780205397E+02  0.46142317191E+02  0.99999947970E+01 0.  0.
        -12    1    1    2    0    0  0.24858448549E+02 -0.29080455752E+02 -0.23780205397E+02  0.45045682809E+02  0.00000000000E+00 0.  1.
         11    1    3    3    0    0 -0.97591387058E+01  0.13662078646E+02  0.93158109533E+01  0.19200976934E+02  0.51100000000E-03 0. -1.
        -11    1    3    3    0    0 -0.10356289606E+02  0.12708256193E+02  0.13818311909E+02  0.21440574949E+02  0.51100000000E-03 0.  1.
        -12    1    3    3    0    0 -0.47430202371E+01  0.27101209132E+01  0.64608253522E+00  0.55007653082E+01  0.00000000000E+00 0.  1.
</event>
<event>
 7    1  0.4452647E-009  0.4614232E+02  0.7816164E-02  0.1320468E+00
        -11   -1    0    0    0    0  0.00000000000E+00  0.00000000000E+00  0.45593999997E+02  0.45594000000E+02  0.51100000000E-03 0. -1.
         11   -1    0    0    0    0 -0.00000000000E+00 -0.00000000000E+00 -0.45593999997E+02  0.45594000000E+02  0.51100000000E-03 0.  1.
    9900012    2    1    2    0    0 -0.41204835386E+01 -0.72413662490E+01  0.44268474040E+02  0.46142316927E+02  0.99999923921E+01 0.  0.
        -12    1    1    2    0    0  0.41204835386E+01  0.72413662490E+01 -0.44268474040E+02  0.45045683073E+02  0.00000000000E+00 0.  1.
         11    1    3    3    0    0 -0.32457659267E+01 -0.63282384751E+01  0.25459438237E+02  0.26434155827E+02  0.51100000000E-03 0.  1.
        -11    1    3    3    0    0 -0.21594228603E+01 -0.27569952672E+01  0.13418068797E+02  0.13867541257E+02  0.51100000000E-03 0. -1.
         12    1    3    3    0    0  0.12847052484E+01  0.18438674934E+01  0.53909670049E+01  0.58406198435E+01  0.00000000000E+00 0. -1.
</event>
<event>
 7    1  0.4452647E-009  0.4614232E+02  0.7816164E-02  0.1320468E+00
        -11   -1    0    0    0    0  0.00000000000E+00  0.00000000000E+00  0.45593999997E+02  0.45594000000E+02  0.51100000000E-03 0. -1.
         11   -1    0    0    0    0 -0.00000000000E+00 -0.00000000000E+00 -0.45593999997E+02  0.45594000000E+02  0.51100000000E-03 0.  1.
    9900012    2    1    2    0    0 -0.11854446230E+02 -0.15919424339E+01  0.43428692480E+02  0.46142317558E+02  0.99999981516E+01 0.  0.
        -12    1    1    2    0    0  0.11854446230E+02  0.15919424339E+01 -0.43428692480E+02  0.45045682442E+02  0.00000000000E+00 0.  1.
         11    1    3    3    0    0 -0.99726236822E+01 -0.35442913217E+01  0.33542872773E+02  0.35172994445E+02  0.51100000000E-03 0. -1.
        -11    1    3    3    0    0 -0.20860569608E+01  0.26877089481E+01  0.51496660916E+01  0.61720721115E+01  0.51100000000E-03 0.  1.
        -12    1    3    3    0    0  0.20423441251E+00 -0.73536006038E+00  0.47361536146E+01  0.47972510019E+01  0.00000000000E+00 0.  1.
</event>
<event>
 7    1  0.4452647E-009  0.4614233E+02  0.7816164E-02  0.1320468E+00
        -11   -1    0    0    0    0  0.00000000000E+00  0.00000000000E+00  0.45593999997E+02  0.45594000000E+02  0.51100000000E-03 0. -1.
         11   -1    0    0    0    0 -0.00000000000E+00 -0.00000000000E+00 -0.45593999997E+02  0.45594000000E+02  0.51100000000E-03 0.  1.
    9900012    2    1    2    0    0 -0.14516808890E+02 -0.16157031520E+02 -0.39462959600E+02  0.46142327752E+02  0.10000091102E+02 0.  0.
         12    1    1    2    0    0  0.14516808890E+02  0.16157031520E+02  0.39462959600E+02  0.45045672248E+02  0.00000000000E+00 0. -1.
         11    1    3    3    0    0  0.10827213492E+01 -0.27733489905E+01 -0.73106993117E+01  0.78936730886E+01  0.51100000000E-03 0. -1.
        -11    1    3    3    0    0 -0.38346805182E+01 -0.46167007773E+01 -0.82402137207E+01  0.10194107277E+02  0.51100000000E-03 0.  1.
         12    1    3    3    0    0 -0.11764849721E+02 -0.87669817522E+01 -0.23912046568E+02  0.28054547386E+02  0.00000000000E+00 0. -1.
</event>
<event>
 7    1  0.4452647E-009  0.4614232E+02  0.7816164E-02  0.1320468E+00
        -11   -1    0    0    0    0  0.00000000000E+00  0.00000000000E+00  0.45593999997E+02  0.45594000000E+02  0.51100000000E-03 0. -1.
         11   -1    0    0    0    0 -0.00000000000E+00 -0.00000000000E+00 -0.45593999997E+02  0.45594000000E+02  0.51100000000E-03 0.  1.
    9900012    2    1    2    0    0  0.34316342318E+02  0.25920113506E+01  0.29065161222E+02  0.46142317968E+02  0.10000001885E+02 0.  0.
        -12    1    1    2    0    0 -0.34316342318E+02 -0.25920113506E+01 -0.29065161222E+02  0.45045682032E+02  0.00000000000E+00 0.  1.
         11    1    3    3    0    0  0.18159314679E+02  0.11794789414E+01  0.10867805300E+02  0.21195779591E+02  0.51100000000E-03 0.  1.
        -11    1    3    3    0    0  0.11705445613E+02 -0.10563980574E+01  0.10764139984E+02  0.15937381959E+02  0.51100000000E-03 0. -1.
         12    1    3    3    0    0  0.44515820263E+01  0.24689304666E+01  0.74332159377E+01  0.90091564178E+01  0.00000000000E+00 0. -1.
</event>
<event>
 7    1  0.4452647E-009  0.4614232E+02  0.7816164E-02  0.1320468E+00
        -11   -1    0    0    0    0  0.00000000000E+00  0.00000000000E+00  0.45593999997E+02  0.45594000000E+02  0.51100000000E-03 0. -1.
         11   -1    0    0    0    0 -0.00000000000E+00 -0.00000000000E+00 -0.45593999997E+02  0.45594000000E+02  0.51100000000E-03 0.  1.
    9900012    2    1    2    0    0  0.15568492787E+00 -0.36307442233E+02 -0.26661929988E+02  0.46142321961E+02  0.10000038302E+02 0.  0.
         12    1    1    2    0    0 -0.15568492787E+00  0.36307442233E+02  0.26661929988E+02  0.45045678039E+02  0.00000000000E+00 0. -1.
         11    1    3    3    0    0 -0.69719260828E+00 -0.19102856287E+01 -0.39598097890E+01  0.44514449949E+01  0.51100000000E-03 0. -1.
        -11    1    3    3    0    0 -0.19216426498E+01 -0.20062346375E+02 -0.10876079596E+02  0.22901518730E+02  0.51100000000E-03 0.  1.
        -12    1    3    3    0    0  0.27745201860E+01 -0.14334810230E+02 -0.11826040603E+02  0.18789358236E+02  0.00000000000E+00 0.  1.
</event>
<event>
 7    1  0.4452647E-009  0.4614232E+02  0.7816164E-02  0.1320468E+00
        -11   -1    0    0    0    0  0.00000000000E+00  0.00000000000E+00  0.45593999997E+02  0.45594000000E+02  0.51100000000E-03 0. -1.
         11   -1    0    0    0    0 -0.00000000000E+00 -0.00000000000E+00 -0.45593999997E+02  0.45594000000E+02  0.51100000000E-03 0.  1.
    9900012    2    1    2    0    0 -0.17692749959E+02 -0.23076483561E+02 -0.34402848850E+02  0.46142317592E+02  0.99999984543E+01 0.  0.
         12    1    1    2    0    0  0.17692749959E+02  0.23076483561E+02  0.34402848850E+02  0.45045682408E+02  0.00000000000E+00 0. -1.
         11    1    3    3    0    0 -0.51449227037E+01 -0.79623807047E+01 -0.91900044714E+01  0.13203254090E+02  0.51100000000E-03 0. -1.
        -11    1    3    3    0    0 -0.42821069391E+01 -0.57950428654E+01 -0.15669990668E+02  0.17247248170E+02  0.51100000000E-03 0.  1.
        -12    1    3    3    0    0 -0.82657203159E+01 -0.93190599912E+01 -0.95428537102E+01  0.15691815331E+02  0.00000000000E+00 0.  1.
</event>
<event>
 7    1  0.4452647E-009  0.4614231E+02  0.7816164E-02  0.1320468E+00
        -11   -1    0    0    0    0  0.00000000000E+00  0.00000000000E+00  0.45593999997E+02  0.45594000000E+02  0.51100000000E-03 0. -1.
         11   -1    0    0    0    0 -0.00000000000E+00 -0.00000000000E+00 -0.45593999997E+02  0.45594000000E+02  0.51100000000E-03 0.  1.
    9900012    2    1    2    0    0  0.33423613791E+02 -0.17643602694E+02 -0.24508760692E+02  0.46142311799E+02  0.99999456292E+01 0.  0.
         12    1    1    2    0    0 -0.33423613791E+02  0.17643602694E+02  0.24508760692E+02  0.45045688201E+02  0.00000000000E+00 0. -1.
         11    1    3    3    0    0  0.50365749600E+01  0.50807461533E-01 -0.52452459852E+01  0.72720199692E+01  0.51100000000E-03 0. -1.
        -11    1    3    3    0    0  0.11649484722E+02 -0.99186057058E+01 -0.83791041106E+01  0.17444157171E+02  0.51100000000E-03 0.  1.
         12    1    3    3    0    0  0.16737554109E+02 -0.77758044497E+01 -0.10884410596E+02  0.21426134659E+02  0.00000000000E+00 0. -1.
</event>
<event>
 7    1  0.4452647E-009  0.4614232E+02  0.7816164E-02  0.1320468E+00
        -11   -1    0    0    0    0  0.00000000000E+00  0.00000000000E+00  0.45593999997E+02  0.45594000000E+02  0.51100000000E-03 0. -1.
         11   -1    0    0    0    0 -0.00000000000E+00 -0.00000000000E+00 -0.45593999997E+02  0.45594000000E+02  0.51100000000E-03 0.  1.
    9900012    2    1    2    0    0 -0.28336240951E+01 -0.42720222170E+02  0.14002377390E+02  0.46142318960E+02  0.10000010936E+02 0.  0.
        -12    1    1    2    0    0  0.28336240951E+01  0.42720222170E+02 -0.14002377390E+02  0.45045681040E+02  0.00000000000E+00 0.  1.
         11    1    3    3    0    0 -0.86532217836E+00 -0.25603460953E+01  0.36014875127E+01  0.45027621706E+01  0.51100000000E-03 0. -1.
        -11    1    3    3    0    0 -0.10680037647E+01 -0.32829054789E+02  0.74152829876E+01  0.33673044003E+02  0.51100000000E-03 0.  1.
         12    1    3    3    0    0 -0.90029815202E+00 -0.73308212851E+01  0.29856068898E+01  0.79665127865E+01  0.00000000000E+00 0. -1.
</event>
<event>
 7    1  0.4452647E-009  0.4614232E+02  0.7816164E-02  0.1320468E+00
        -11   -1    0    0    0    0  0.00000000000E+00  0.00000000000E+00  0.45593999997E+02  0.45594000000E+02  0.51100000000E-03 0.  1.
         11   -1    0    0    0    0 -0.00000000000E+00 -0.00000000000E+00 -0.45593999997E+02  0.45594000000E+02  0.51100000000E-03 0. -1.
    9900012    2    1    2    0    0  0.98216720267E+01  0.43957382402E+02 -0.62988491987E+00  0.46142318031E+02  0.10000002461E+02 0.  0.
         12    1    1    2    0    0 -0.98216720267E+01 -0.43957382402E+02  0.62988491987E+00  0.45045681969E+02  0.00000000000E+00 0. -1.
         11    1    3    3    0    0  0.62445551823E+01  0.29522339673E+02 -0.21462865339E+00  0.30176299888E+02  0.51100000000E-03 0. -1.
        -11    1    3    3    0    0  0.41665568623E+01  0.14470981225E+02  0.27016356789E+00  0.15061290858E+02  0.51100000000E-03 0.  1.
         12    1    3    3    0    0 -0.58944001795E+00 -0.35938496370E-01 -0.68541983436E+00  0.90472728467E+00  0.00000000000E+00 0. -1.
</event>
<event>
 7    1  0.4452647E-009  0.4614232E+02  0.7816164E-02  0.1320468E+00
        -11   -1    0    0    0    0  0.00000000000E+00  0.00000000000E+00  0.45593999997E+02  0.45594000000E+02  0.51100000000E-03 0.  1.
         11   -1    0    0    0    0 -0.00000000000E+00 -0.00000000000E+00 -0.45593999997E+02  0.45594000000E+02  0.51100000000E-03 0. -1.
    9900012    2    1    2    0    0  0.44330968859E+02  0.76420811017E+01 -0.23403371773E+01  0.46142318946E+02  0.10000010804E+02 0.  0.
        -12    1    1    2    0    0 -0.44330968859E+02 -0.76420811017E+01  0.23403371773E+01  0.45045681054E+02  0.00000000000E+00 0.  1.
         11    1    3    3    0    0  0.11854156487E+02  0.53466732878E+00 -0.85680230810E-01  0.11866517456E+02  0.51100000000E-03 0. -1.
        -11    1    3    3    0    0  0.79805627516E+01  0.50042881161E+01 -0.22699757644E+01  0.96894309231E+01  0.51100000000E-03 0.  1.
        -12    1    3    3    0    0  0.24496249620E+02  0.21031256569E+01  0.15318817878E-01  0.24586370566E+02  0.00000000000E+00 0.  1.
</event>
<event>
 7    1  0.4452647E-009  0.4614232E+02  0.7816164E-02  0.1320468E+00
        -11   -1    0    0    0    0  0.00000000000E+00  0.00000000000E+00  0.45593999997E+02  0.45594000000E+02  0.51100000000E-03 0. -1.
         11   -1    0    0    0    0 -0.00000000000E+00 -0.00000000000E+00 -0.45593999997E+02  0.45594000000E+02  0.51100000000E-03 0.  1.
    9900012    2    1    2    0    0 -0.25524061159E+02 -0.34248773363E+02 -0.14305846520E+02  0.46142318525E+02  0.10000006965E+02 0.  0.
         12    1    1    2    0    0  0.25524061159E+02  0.34248773363E+02  0.14305846520E+02  0.45045681475E+02  0.00000000000E+00 0. -1.
         11    1    3    3    0    0 -0.12466308134E+02 -0.12210428221E+02 -0.88487932917E+01  0.19565391353E+02  0.51100000000E-03 0. -1.
        -11    1    3    3    0    0 -0.48803728820E+01 -0.12407154111E+02 -0.20319934632E+01  0.13486456551E+02  0.51100000000E-03 0.  1.
        -12    1    3    3    0    0 -0.81773801433E+01 -0.96311910308E+01 -0.34250597647E+01  0.13090470621E+02  0.00000000000E+00 0.  1.
</event>
<event>
 7    1  0.4452647E-009  0.4614232E+02  0.7816164E-02  0.1320468E+00
        -11   -1    0    0    0    0  0.00000000000E+00  0.00000000000E+00  0.45593999997E+02  0.45594000000E+02  0.51100000000E-03 0. -1.
         11   -1    0    0    0    0 -0.00000000000E+00 -0.00000000000E+00 -0.45593999997E+02  0.45594000000E+02  0.51100000000E-03 0.  1.
    9900012    2    1    2    0    0  0.40452052395E+02 -0.14824058105E+02 -0.13152653640E+02  0.46142317194E+02  0.99999948302E+01 0.  0.
         12    1    1    2    0    0 -0.40452052395E+02  0.14824058105E+02  0.13152653640E+02  0.45045682806E+02  0.00000000000E+00 0. -1.
         11    1    3    3    0    0  0.32933217623E+01 -0.70740023603E+00 -0.36506249842E+01  0.49672372965E+01  0.51100000000E-03 0. -1.
        -11    1    3    3    0    0  0.15047633176E+02 -0.51717822165E+01 -0.13506746949E+01  0.15968810785E+02  0.51100000000E-03 0.  1.
         12    1    3    3    0    0  0.22111097456E+02 -0.89448756526E+01 -0.81513539610E+01  0.25206269112E+02  0.00000000000E+00 0. -1.
</event>
<event>
 7    1  0.4452647E-009  0.4614232E+02  0.7816164E-02  0.1320468E+00
        -11   -1    0    0    0    0  0.00000000000E+00  0.00000000000E+00  0.45593999997E+02  0.45594000000E+02  0.51100000000E-03 0. -1.
         11   -1    0    0    0    0 -0.00000000000E+00 -0.00000000000E+00 -0.45593999997E+02  0.45594000000E+02  0.51100000000E-03 0.  1.
    9900012    2    1    2    0    0 -0.84768228167E+00 -0.21543692337E+02  0.39550778626E+02  0.46142319467E+02  0.10000015551E+02 0.  0.
        -12    1    1    2    0    0  0.84768228167E+00  0.21543692337E+02 -0.39550778626E+02  0.45045680533E+02  0.00000000000E+00 0.  1.
         11    1    3    3    0    0  0.26799779228E+01 -0.35009663408E+01  0.90899515725E+01  0.10102785103E+02  0.51100000000E-03 0. -1.
        -11    1    3    3    0    0 -0.15602267590E+01 -0.16357032796E+02  0.24071195253E+02  0.29144626787E+02  0.51100000000E-03 0.  1.
        -12    1    3    3    0    0 -0.19674334455E+01 -0.16856932009E+01  0.63896318009E+01  0.68949075760E+01  0.00000000000E+00 0.  1.
</event>
<event>
 7    1  0.4452647E-009  0.4614232E+02  0.7816164E-02  0.1320468E+00
        -11   -1    0    0    0    0  0.00000000000E+00  0.00000000000E+00  0.45593999997E+02  0.45594000000E+02  0.51100000000E-03 0. -1.
         11   -1    0    0    0    0 -0.00000000000E+00 -0.00000000000E+00 -0.45593999997E+02  0.45594000000E+02  0.51100000000E-03 0.  1.
    9900012    2    1    2    0    0  0.58799747002E+01  0.96956947136E+01  0.43595101586E+02  0.46142317846E+02  0.10000000770E+02 0.  0.
        -12    1    1    2    0    0 -0.58799747002E+01 -0.96956947136E+01 -0.43595101586E+02  0.45045682154E+02  0.00000000000E+00 0.  1.
         11    1    3    3    0    0  0.22057983727E+01  0.55376091920E+01  0.25509609245E+02  0.26196771292E+02  0.51100000000E-03 0. -1.
        -11    1    3    3    0    0 -0.14507793201E+00 -0.91523781519E+00  0.17555528393E+00  0.94314780578E+00  0.51100000000E-03 0.  1.
        -12    1    3    3    0    0  0.38192542595E+01  0.50733233368E+01  0.17909937057E+02  0.19002398748E+02  0.00000000000E+00 0.  1.
</event>
<event>
 7    1  0.4452647E-009  0.4614232E+02  0.7816164E-02  0.1320468E+00
        -11   -1    0    0    0    0  0.00000000000E+00  0.00000000000E+00  0.45593999997E+02  0.45594000000E+02  0.51100000000E-03 0. -1.
         11   -1    0    0    0    0 -0.00000000000E+00 -0.00000000000E+00 -0.45593999997E+02  0.45594000000E+02  0.51100000000E-03 0.  1.
    9900012    2    1    2    0    0 -0.16811990182E+02  0.32743382893E+02 -0.25968083910E+02  0.46142317420E+02  0.99999968916E+01 0.  0.
         12    1    1    2    0    0  0.16811990182E+02 -0.32743382893E+02  0.25968083910E+02  0.45045682580E+02  0.00000000000E+00 0. -1.
         11    1    3    3    0    0 -0.85347904905E+01  0.22132157380E+02 -0.18971635135E+02  0.30374297999E+02  0.51100000000E-03 0. -1.
        -11    1    3    3    0    0 -0.30912072978E+01  0.67849829420E+01 -0.51578588637E+01  0.90661493700E+01  0.51100000000E-03 0.  1.
         12    1    3    3    0    0 -0.51859923934E+01  0.38262425709E+01 -0.18385899111E+01  0.67018700507E+01  0.00000000000E+00 0. -1.
</event>
<event>
 7    1  0.4452647E-009  0.4614232E+02  0.7816164E-02  0.1320468E+00
        -11   -1    0    0    0    0  0.00000000000E+00  0.00000000000E+00  0.45593999997E+02  0.45594000000E+02  0.51100000000E-03 0. -1.
         11   -1    0    0    0    0 -0.00000000000E+00 -0.00000000000E+00 -0.45593999997E+02  0.45594000000E+02  0.51100000000E-03 0.  1.
    9900012    2    1    2    0    0  0.42382824971E+02  0.96198719778E+01  0.11843464002E+02  0.46142318421E+02  0.10000006016E+02 0.  0.
        -12    1    1    2    0    0 -0.42382824971E+02 -0.96198719778E+01 -0.11843464002E+02  0.45045681579E+02  0.00000000000E+00 0.  1.
         11    1    3    3    0    0  0.10854416350E+02  0.35783285993E+01  0.47566354346E+01  0.12379352600E+02  0.51100000000E-03 0. -1.
        -11    1    3    3    0    0  0.37522754492E+01 -0.12974528732E+01  0.24404341845E+01  0.46603298461E+01  0.51100000000E-03 0.  1.
        -12    1    3    3    0    0  0.27776133171E+02  0.73389962517E+01  0.46463943826E+01  0.29102635975E+02  0.00000000000E+00 0.  1.
</event>
<event>
 7    1  0.4452647E-009  0.4614232E+02  0.7816164E-02  0.1320468E+00
        -11   -1    0    0    0    0  0.00000000000E+00  0.00000000000E+00  0.45593999997E+02  0.45594000000E+02  0.51100000000E-03 0. -1.
         11   -1    0    0    0    0 -0.00000000000E+00 -0.00000000000E+00 -0.45593999997E+02  0.45594000000E+02  0.51100000000E-03 0.  1.
    9900012    2    1    2    0    0 -0.20479974453E+02 -0.14719358684E+01 -0.40093859308E+02  0.46142317598E+02  0.99999985159E+01 0.  0.
         12    1    1    2    0    0  0.20479974453E+02  0.14719358684E+01  0.40093859308E+02  0.45045682402E+02  0.00000000000E+00 0. -1.
         11    1    3    3    0    0 -0.15146068382E+02 -0.36216057675E+01 -0.23660074226E+02  0.28325227773E+02  0.51100000000E-03 0. -1.
        -11    1    3    3    0    0 -0.49096255732E+01  0.31245958824E+01 -0.13967305432E+02  0.15131197705E+02  0.51100000000E-03 0.  1.
        -12    1    3    3    0    0 -0.42428049730E+00 -0.97492598335E+00 -0.24664796505E+01  0.26858921199E+01  0.00000000000E+00 0.  1.
</event>
<event>
 7    1  0.4452647E-009  0.4614232E+02  0.7816164E-02  0.1320468E+00
        -11   -1    0    0    0    0  0.00000000000E+00  0.00000000000E+00  0.45593999997E+02  0.45594000000E+02  0.51100000000E-03 0. -1.
         11   -1    0    0    0    0 -0.00000000000E+00 -0.00000000000E+00 -0.45593999997E+02  0.45594000000E+02  0.51100000000E-03 0.  1.
    9900012    2    1    2    0    0  0.14439230055E+02  0.18505573567E+02  0.38446922851E+02  0.46142317695E+02  0.99999993938E+01 0.  0.
        -12    1    1    2    0    0 -0.14439230055E+02 -0.18505573567E+02 -0.38446922851E+02  0.45045682305E+02  0.00000000000E+00 0.  1.
         11    1    3    3    0    0  0.92492850033E+01  0.10425445870E+02  0.23969636594E+02  0.27726930472E+02  0.51100000000E-03 0. -1.
        -11    1    3    3    0    0  0.24284987293E+01  0.63860136339E+01  0.13329350374E+02  0.14978329609E+02  0.51100000000E-03 0.  1.
        -12    1    3    3    0    0  0.27614463225E+01  0.16941140630E+01  0.11479358824E+01  0.34370576138E+01  0.00000000000E+00 0.  1.
</event>
<event>
 7    1  0.4452647E-009  0.4614232E+02  0.7816164E-02  0.1320468E+00
        -11   -1    0    0    0    0  0.00000000000E+00  0.00000000000E+00  0.45593999997E+02  0.45594000000E+02  0.51100000000E-03 0. -1.
         11   -1    0    0    0    0 -0.00000000000E+00 -0.00000000000E+00 -0.45593999997E+02  0.45594000000E+02  0.51100000000E-03 0.  1.
    9900012    2    1    2    0    0 -0.22039493367E+02 -0.24654001949E+02 -0.30586834342E+02  0.46142317465E+02  0.99999972981E+01 0.  0.
         12    1    1    2    0    0  0.22039493367E+02  0.24654001949E+02  0.30586834342E+02  0.45045682535E+02  0.00000000000E+00 0. -1.
         11    1    3    3    0    0 -0.16076916549E+02 -0.15945201709E+02 -0.15806298715E+02  0.27614412588E+02  0.51100000000E-03 0. -1.
        -11    1    3    3    0    0 -0.48679919761E+01 -0.87526622667E+01 -0.13842489975E+02  0.17085694941E+02  0.51100000000E-03 0.  1.
        -12    1    3    3    0    0 -0.10945848423E+01  0.43862026650E-01 -0.93804565187E+00  0.14422099359E+01  0.00000000000E+00 0.  1.
</event>
<event>
 7    1  0.4452647E-009  0.4614232E+02  0.7816164E-02  0.1320468E+00
        -11   -1    0    0    0    0  0.00000000000E+00  0.00000000000E+00  0.45593999997E+02  0.45594000000E+02  0.51100000000E-03 0. -1.
         11   -1    0    0    0    0 -0.00000000000E+00 -0.00000000000E+00 -0.45593999997E+02  0.45594000000E+02  0.51100000000E-03 0.  1.
    9900012    2    1    2    0    0 -0.19492854798E+02  0.25473729405E+02  0.31626431891E+02  0.46142317941E+02  0.10000001642E+02 0.  0.
        -12    1    1    2    0    0  0.19492854798E+02 -0.25473729405E+02 -0.31626431891E+02  0.45045682059E+02  0.00000000000E+00 0.  1.
         11    1    3    3    0    0 -0.42602749568E+01  0.63994356161E+01  0.76343889924E+01  0.10834510347E+02  0.51100000000E-03 0. -1.
        -11    1    3    3    0    0 -0.77434315850E+01  0.16062600405E+02  0.16421009071E+02  0.24240821019E+02  0.51100000000E-03 0.  1.
        -12    1    3    3    0    0 -0.74891482562E+01  0.30116933837E+01  0.75710338279E+01  0.11066986576E+02  0.00000000000E+00 0.  1.
</event>
<event>
 7    1  0.4452647E-009  0.4614231E+02  0.7816164E-02  0.1320468E+00
        -11   -1    0    0    0    0  0.00000000000E+00  0.00000000000E+00  0.45593999997E+02  0.45594000000E+02  0.51100000000E-03 0. -1.
         11   -1    0    0    0    0 -0.00000000000E+00 -0.00000000000E+00 -0.45593999997E+02  0.45594000000E+02  0.51100000000E-03 0.  1.
    9900012    2    1    2    0    0 -0.25513795146E+02  0.23360068459E+02 -0.28852508237E+02  0.46142314605E+02  0.99999712175E+01 0.  0.
         12    1    1    2    0    0  0.25513795146E+02 -0.23360068459E+02  0.28852508237E+02  0.45045685395E+02  0.00000000000E+00 0. -1.
         11    1    3    3    0    0 -0.13089218674E+02  0.14766215897E+02 -0.18987238890E+02  0.27384010268E+02  0.51100000000E-03 0. -1.
        -11    1    3    3    0    0 -0.12063052905E+02  0.64489317550E+01 -0.77372843395E+01  0.15715328039E+02  0.51100000000E-03 0.  1.
         12    1    3    3    0    0 -0.36152356722E+00  0.21449208070E+01 -0.21279850067E+01  0.30429762974E+01  0.00000000000E+00 0. -1.
</event>
<event>
 7    1  0.4452647E-009  0.4614232E+02  0.7816164E-02  0.1320468E+00
        -11   -1    0    0    0    0  0.00000000000E+00  0.00000000000E+00  0.45593999997E+02  0.45594000000E+02  0.51100000000E-03 0. -1.
         11   -1    0    0    0    0 -0.00000000000E+00 -0.00000000000E+00 -0.45593999997E+02  0.45594000000E+02  0.51100000000E-03 0.  1.
    9900012    2    1    2    0    0  0.32000725349E+02  0.20308856697E+02 -0.24343733675E+02  0.46142318160E+02  0.10000003634E+02 0.  0.
         12    1    1    2    0    0 -0.32000725349E+02 -0.20308856697E+02  0.24343733675E+02  0.45045681840E+02  0.00000000000E+00 0. -1.
         11    1    3    3    0    0  0.43361904637E+01  0.63423917446E+01 -0.79153514360E+01  0.11030923325E+02  0.51100000000E-03 0. -1.
        -11    1    3    3    0    0  0.24888778877E+02  0.12967954281E+02 -0.15194789075E+02  0.31913958819E+02  0.51100000000E-03 0.  1.
        -12    1    3    3    0    0  0.27757560085E+01  0.99851067140E+00 -0.12335931647E+01  0.31974360159E+01  0.00000000000E+00 0.  1.
</event>
<event>
 7    1  0.4452647E-009  0.4614232E+02  0.7816164E-02  0.1320468E+00
        -11   -1    0    0    0    0  0.00000000000E+00  0.00000000000E+00  0.45593999997E+02  0.45594000000E+02  0.51100000000E-03 0. -1.
         11   -1    0    0    0    0 -0.00000000000E+00 -0.00000000000E+00 -0.45593999997E+02  0.45594000000E+02  0.51100000000E-03 0.  1.
    9900012    2    1    2    0    0  0.14474514011E+02  0.26075594611E+02  0.33758929201E+02  0.46142317732E+02  0.99999997347E+01 0.  0.
        -12    1    1    2    0    0 -0.14474514011E+02 -0.26075594611E+02 -0.33758929201E+02  0.45045682268E+02  0.00000000000E+00 0.  1.
         11    1    3    3    0    0  0.31808485030E+01  0.72276453341E+01  0.11835024325E+02  0.14227594853E+02  0.51100000000E-03 0. -1.
        -11    1    3    3    0    0  0.37644454502E+01  0.13293440839E+02  0.12418658315E+02  0.18577128236E+02  0.51100000000E-03 0.  1.
        -12    1    3    3    0    0  0.75292200576E+01  0.55545084378E+01  0.95052465612E+01  0.13337594643E+02  0.00000000000E+00 0.  1.
</event>
<event>
 7    1  0.4452647E-009  0.4614232E+02  0.7816164E-02  0.1320468E+00
        -11   -1    0    0    0    0  0.00000000000E+00  0.00000000000E+00  0.45593999997E+02  0.45594000000E+02  0.51100000000E-03 0. -1.
         11   -1    0    0    0    0 -0.00000000000E+00 -0.00000000000E+00 -0.45593999997E+02  0.45594000000E+02  0.51100000000E-03 0.  1.
    9900012    2    1    2    0    0  0.14017973086E+02 -0.24481035717E+02 -0.35118208062E+02  0.46142320776E+02  0.10000027490E+02 0.  0.
         12    1    1    2    0    0 -0.14017973086E+02  0.24481035717E+02  0.35118208062E+02  0.45045679224E+02  0.00000000000E+00 0. -1.
         11    1    3    3    0    0  0.59490338757E+01 -0.62128607535E+01 -0.51667091309E+01  0.10034217772E+02  0.51100000000E-03 0. -1.
        -11    1    3    3    0    0  0.41116002487E+01 -0.10880548317E+02 -0.19573212646E+02  0.22768448384E+02  0.51100000000E-03 0.  1.
        -12    1    3    3    0    0  0.39573389620E+01 -0.73876266474E+01 -0.10378286286E+02  0.13339654620E+02  0.00000000000E+00 0.  1.
</event>
<event>
 7    1  0.4452647E-009  0.4614232E+02  0.7816164E-02  0.1320468E+00
        -11   -1    0    0    0    0  0.00000000000E+00  0.00000000000E+00  0.45593999997E+02  0.45594000000E+02  0.51100000000E-03 0. -1.
         11   -1    0    0    0    0 -0.00000000000E+00 -0.00000000000E+00 -0.45593999997E+02  0.45594000000E+02  0.51100000000E-03 0.  1.
    9900012    2    1    2    0    0  0.16660430323E+02  0.34454784995E+02 -0.23757344994E+02  0.46142316647E+02  0.99999898385E+01 0.  0.
         12    1    1    2    0    0 -0.16660430323E+02 -0.34454784995E+02  0.23757344994E+02  0.45045683353E+02  0.00000000000E+00 0. -1.
         11    1    3    3    0    0  0.12620523569E+01  0.17052945747E+01 -0.62792579568E+00  0.22124865658E+01  0.51100000000E-03 0. -1.
        -11    1    3    3    0    0  0.96263894754E+01  0.28625015554E+02 -0.19631311066E+02  0.36020095284E+02  0.51100000000E-03 0.  1.
        -12    1    3    3    0    0  0.57719884908E+01  0.41244748660E+01 -0.34981081323E+01  0.79097347973E+01  0.00000000000E+00 0.  1.
</event>
<event>
 7    1  0.4452647E-009  0.4614232E+02  0.7816164E-02  0.1320468E+00
        -11   -1    0    0    0    0  0.00000000000E+00  0.00000000000E+00  0.45593999997E+02  0.45594000000E+02  0.51100000000E-03 0. -1.
         11   -1    0    0    0    0 -0.00000000000E+00 -0.00000000000E+00 -0.45593999997E+02  0.45594000000E+02  0.51100000000E-03 0.  1.
    9900012    2    1    2    0    0  0.14059880046E+02  0.42724290976E+02 -0.24633801105E+01  0.46142317545E+02  0.99999980274E+01 0.  0.
        -12    1    1    2    0    0 -0.14059880046E+02 -0.42724290976E+02  0.24633801105E+01  0.45045682455E+02  0.00000000000E+00 0.  1.
         11    1    3    3    0    0  0.83213842567E+01  0.34323574504E+02 -0.94382818876E+00  0.35330496948E+02  0.51100000000E-03 0. -1.
        -11    1    3    3    0    0  0.22714144273E+01  0.25703510344E+01  0.10043036688E+01  0.35741648061E+01  0.51100000000E-03 0.  1.
         12    1    3    3    0    0  0.34670813619E+01  0.58303654374E+01 -0.25238555906E+01  0.72376557908E+01  0.00000000000E+00 0. -1.
</event>
<event>
 7    1  0.4452647E-009  0.4614232E+02  0.7816164E-02  0.1320468E+00
        -11   -1    0    0    0    0  0.00000000000E+00  0.00000000000E+00  0.45593999997E+02  0.45594000000E+02  0.51100000000E-03 0. -1.
         11   -1    0    0    0    0 -0.00000000000E+00 -0.00000000000E+00 -0.45593999997E+02  0.45594000000E+02  0.51100000000E-03 0.  1.
    9900012    2    1    2    0    0  0.91803478421E+01  0.20167309887E+01  0.44054142810E+02  0.46142317753E+02  0.99999999236E+01 0.  0.
        -12    1    1    2    0    0 -0.91803478421E+01 -0.20167309887E+01 -0.44054142810E+02  0.45045682247E+02  0.00000000000E+00 0.  1.
         11    1    3    3    0    0  0.63036680193E+01  0.44815783951E+00  0.40986290073E+02  0.41470628765E+02  0.51100000000E-03 0. -1.
        -11    1    3    3    0    0  0.20532837448E+01  0.15522817385E+01  0.17323585360E+01  0.31026793406E+01  0.51100000000E-03 0.  1.
         12    1    3    3    0    0  0.82339607806E+00  0.16291410669E-01  0.13354942008E+01  0.15690096468E+01  0.00000000000E+00 0. -1.
</event>
<event>
 7    1  0.4452647E-009  0.4614232E+02  0.7816164E-02  0.1320468E+00
        -11   -1    0    0    0    0  0.00000000000E+00  0.00000000000E+00  0.45593999997E+02  0.45594000000E+02  0.51100000000E-03 0. -1.
         11   -1    0    0    0    0 -0.00000000000E+00 -0.00000000000E+00 -0.45593999997E+02  0.45594000000E+02  0.51100000000E-03 0.  1.
    9900012    2    1    2    0    0  0.36727835051E+02  0.17076030370E+02  0.19712659136E+02  0.46142316400E+02  0.99999875885E+01 0.  0.
        -12    1    1    2    0    0 -0.36727835051E+02 -0.17076030370E+02 -0.19712659136E+02  0.45045683600E+02  0.00000000000E+00 0.  1.
         11    1    3    3    0    0  0.24841816983E+02  0.94877984406E+01  0.13093424214E+02  0.29640714367E+02  0.51100000000E-03 0. -1.
        -11    1    3    3    0    0  0.31705688749E+01  0.29455394586E+01 -0.45895240332E+00  0.43519360361E+01  0.51100000000E-03 0.  1.
         12    1    3    3    0    0  0.87154491931E+01  0.46426924711E+01  0.70781873254E+01  0.12149665997E+02  0.00000000000E+00 0. -1.
</event>
<event>
 7    1  0.4452647E-009  0.4614232E+02  0.7816164E-02  0.1320468E+00
        -11   -1    0    0    0    0  0.00000000000E+00  0.00000000000E+00  0.45593999997E+02  0.45594000000E+02  0.51100000000E-03 0. -1.
         11   -1    0    0    0    0 -0.00000000000E+00 -0.00000000000E+00 -0.45593999997E+02  0.45594000000E+02  0.51100000000E-03 0.  1.
    9900012    2    1    2    0    0 -0.31241476739E+02  0.12267198273E+02  0.30043291057E+02  0.46142319188E+02  0.10000013014E+02 0.  0.
        -12    1    1    2    0    0  0.31241476739E+02 -0.12267198273E+02 -0.30043291057E+02  0.45045680812E+02  0.00000000000E+00 0.  1.
         11    1    3    3    0    0 -0.20232811045E+02  0.74004650414E+01  0.22329841561E+02  0.31028299180E+02  0.51100000000E-03 0. -1.
        -11    1    3    3    0    0 -0.99817219303E+01  0.55581803518E+01  0.78597689214E+01  0.13867375717E+02  0.51100000000E-03 0.  1.
        -12    1    3    3    0    0 -0.10269437632E+01 -0.69144712055E+00 -0.14631942610E+00  0.12466442908E+01  0.00000000000E+00 0.  1.
</event>
<event>
 7    1  0.4452647E-009  0.4614232E+02  0.7816164E-02  0.1320468E+00
        -11   -1    0    0    0    0  0.00000000000E+00  0.00000000000E+00  0.45593999997E+02  0.45594000000E+02  0.51100000000E-03 0. -1.
         11   -1    0    0    0    0 -0.00000000000E+00 -0.00000000000E+00 -0.45593999997E+02  0.45594000000E+02  0.51100000000E-03 0.  1.
    9900012    2    1    2    0    0 -0.14870317901E+02 -0.26912133715E+01 -0.42435178956E+02  0.46142318776E+02  0.10000009253E+02 0.  0.
         12    1    1    2    0    0  0.14870317901E+02  0.26912133715E+01  0.42435178956E+02  0.45045681224E+02  0.00000000000E+00 0. -1.
         11    1    3    3    0    0 -0.32185822518E+01 -0.15132560515E+01 -0.32391855185E+01  0.48105653174E+01  0.51100000000E-03 0. -1.
        -11    1    3    3    0    0 -0.41895700542E+01 -0.31333873481E+01 -0.12692542720E+02  0.13728483328E+02  0.51100000000E-03 0.  1.
        -12    1    3    3    0    0 -0.74621655951E+01  0.19554300280E+01 -0.26503450718E+02  0.27603270131E+02  0.00000000000E+00 0.  1.
</event>
<event>
 7    1  0.4452647E-009  0.4614232E+02  0.7816164E-02  0.1320468E+00
        -11   -1    0    0    0    0  0.00000000000E+00  0.00000000000E+00  0.45593999997E+02  0.45594000000E+02  0.51100000000E-03 0. -1.
         11   -1    0    0    0    0 -0.00000000000E+00 -0.00000000000E+00 -0.45593999997E+02  0.45594000000E+02  0.51100000000E-03 0.  1.
    9900012    2    1    2    0    0  0.12535587735E+02  0.93280976280E+01 -0.42248773487E+02  0.46142320669E+02  0.10000026520E+02 0.  0.
         12    1    1    2    0    0 -0.12535587735E+02 -0.93280976280E+01  0.42248773487E+02  0.45045679331E+02  0.00000000000E+00 0. -1.
         11    1    3    3    0    0 -0.13835854633E+01  0.98085507697E+00 -0.15372431885E+01  0.22889959148E+01  0.51100000000E-03 0. -1.
        -11    1    3    3    0    0  0.93688306710E+01  0.48793315009E+01 -0.25487438396E+02  0.27589715118E+02  0.51100000000E-03 0.  1.
         12    1    3    3    0    0  0.45503425271E+01  0.34679110502E+01 -0.15224091902E+02  0.16263609637E+02  0.00000000000E+00 0. -1.
</event>
<event>
 7    1  0.4452647E-009  0.4614232E+02  0.7816164E-02  0.1320468E+00
        -11   -1    0    0    0    0  0.00000000000E+00  0.00000000000E+00  0.45593999997E+02  0.45594000000E+02  0.51100000000E-03 0. -1.
         11   -1    0    0    0    0 -0.00000000000E+00 -0.00000000000E+00 -0.45593999997E+02  0.45594000000E+02  0.51100000000E-03 0.  1.
    9900012    2    1    2    0    0  0.42914977193E+02 -0.66292736444E+01  0.11977943866E+02  0.46142315681E+02  0.99999810347E+01 0.  0.
        -12    1    1    2    0    0 -0.42914977193E+02  0.66292736444E+01 -0.11977943866E+02  0.45045684319E+02  0.00000000000E+00 0.  1.
         11    1    3    3    0    0  0.11332612505E+02 -0.40261951426E+01  0.49711703444E+01  0.13013488709E+02  0.51100000000E-03 0. -1.
        -11    1    3    3    0    0  0.14300058584E+02 -0.27827131190E+01  0.24616355538E+00  0.14570372835E+02  0.51100000000E-03 0.  1.
        -12    1    3    3    0    0  0.17282306103E+02  0.17963461718E+00  0.67606099659E+01  0.18558454137E+02  0.00000000000E+00 0.  1.
</event>
<event>
 7    1  0.4452647E-009  0.4614232E+02  0.7816164E-02  0.1320468E+00
        -11   -1    0    0    0    0  0.00000000000E+00  0.00000000000E+00  0.45593999997E+02  0.45594000000E+02  0.51100000000E-03 0. -1.
         11   -1    0    0    0    0 -0.00000000000E+00 -0.00000000000E+00 -0.45593999997E+02  0.45594000000E+02  0.51100000000E-03 0.  1.
    9900012    2    1    2    0    0 -0.26375162343E+02  0.94951327985E+01  0.35260553519E+02  0.46142319076E+02  0.10000011990E+02 0.  0.
        -12    1    1    2    0    0  0.26375162343E+02 -0.94951327985E+01 -0.35260553519E+02  0.45045680924E+02  0.00000000000E+00 0.  1.
         11    1    3    3    0    0 -0.16302806885E+02  0.34051188856E+01  0.16063522210E+02  0.23138995073E+02  0.51100000000E-03 0. -1.
        -11    1    3    3    0    0 -0.94075013638E+01  0.64657939267E+01  0.19075216272E+02  0.22229967366E+02  0.51100000000E-03 0.  1.
        -12    1    3    3    0    0 -0.66485409373E+00 -0.37578001369E+00  0.12181503722E+00  0.77335663696E+00  0.00000000000E+00 0.  1.
</event>
<event>
 7    1  0.4452647E-009  0.4614232E+02  0.7816164E-02  0.1320468E+00
        -11   -1    0    0    0    0  0.00000000000E+00  0.00000000000E+00  0.45593999997E+02  0.45594000000E+02  0.51100000000E-03 0. -1.
         11   -1    0    0    0    0 -0.00000000000E+00 -0.00000000000E+00 -0.45593999997E+02  0.45594000000E+02  0.51100000000E-03 0.  1.
    9900012    2    1    2    0    0 -0.19484830571E+01 -0.48840813212E+01  0.44737708875E+02  0.46142318387E+02  0.10000005708E+02 0.  0.
        -12    1    1    2    0    0  0.19484830571E+01  0.48840813212E+01 -0.44737708875E+02  0.45045681613E+02  0.00000000000E+00 0.  1.
         11    1    3    3    0    0  0.23611853282E+01 -0.47063403198E+01  0.12334831863E+02  0.13411670765E+02  0.51100000000E-03 0.  1.
        -11    1    3    3    0    0 -0.29146203217E+01  0.29883679614E+00  0.25764078715E+02  0.25930138205E+02  0.51100000000E-03 0. -1.
        -12    1    3    3    0    0 -0.13950480636E+01 -0.47657779752E+00  0.66387982978E+01  0.68005094174E+01  0.00000000000E+00 0.  1.
</event>
<event>
 7    1  0.4452647E-009  0.4614231E+02  0.7816164E-02  0.1320468E+00
        -11   -1    0    0    0    0  0.00000000000E+00  0.00000000000E+00  0.45593999997E+02  0.45594000000E+02  0.51100000000E-03 0. -1.
         11   -1    0    0    0    0 -0.00000000000E+00 -0.00000000000E+00 -0.45593999997E+02  0.45594000000E+02  0.51100000000E-03 0.  1.
    9900012    2    1    2    0    0  0.95837613379E+01  0.31775632292E+02 -0.30456109764E+02  0.46142313071E+02  0.99999572328E+01 0.  0.
         12    1    1    2    0    0 -0.95837613379E+01 -0.31775632292E+02  0.30456109764E+02  0.45045686929E+02  0.00000000000E+00 0. -1.
         11    1    3    3    0    0  0.86419418004E+01  0.22948284509E+02 -0.18924215986E+02  0.30974713412E+02  0.51100000000E-03 0. -1.
        -11    1    3    3    0    0 -0.88706204256E+00  0.45546501895E+01 -0.32314659878E+01  0.56545636531E+01  0.51100000000E-03 0.  1.
         12    1    3    3    0    0  0.18288815800E+01  0.42726975937E+01 -0.83004277898E+01  0.95130360062E+01  0.00000000000E+00 0. -1.
</event>
<event>
 7    1  0.4452647E-009  0.4614232E+02  0.7816164E-02  0.1320468E+00
        -11   -1    0    0    0    0  0.00000000000E+00  0.00000000000E+00  0.45593999997E+02  0.45594000000E+02  0.51100000000E-03 0. -1.
         11   -1    0    0    0    0 -0.00000000000E+00 -0.00000000000E+00 -0.45593999997E+02  0.45594000000E+02  0.51100000000E-03 0.  1.
    9900012    2    1    2    0    0  0.34764497830E+02  0.32188972316E+01  0.28463693994E+02  0.46142317804E+02  0.10000000391E+02 0.  0.
        -12    1    1    2    0    0 -0.34764497830E+02 -0.32188972316E+01 -0.28463693994E+02  0.45045682196E+02  0.00000000000E+00 0.  1.
         11    1    3    3    0    0  0.10958633544E+02 -0.17292997425E+01  0.11479382141E+02  0.15964283302E+02  0.51100000000E-03 0. -1.
        -11    1    3    3    0    0  0.76262263235E+01  0.42892481702E+01  0.57696406094E+01  0.10480731407E+02  0.51100000000E-03 0.  1.
         12    1    3    3    0    0  0.16179637962E+02  0.65894880396E+00  0.11214671243E+02  0.19697303095E+02  0.00000000000E+00 0. -1.
</event>
<event>
 7    1  0.4452647E-009  0.4614232E+02  0.7816164E-02  0.1320468E+00
        -11   -1    0    0    0    0  0.00000000000E+00  0.00000000000E+00  0.45593999997E+02  0.45594000000E+02  0.51100000000E-03 0. -1.
         11   -1    0    0    0    0 -0.00000000000E+00 -0.00000000000E+00 -0.45593999997E+02  0.45594000000E+02  0.51100000000E-03 0.  1.
    9900012    2    1    2    0    0 -0.13728495499E+02  0.11656053975E+01 -0.42886866952E+02  0.46142316727E+02  0.99999905666E+01 0.  0.
         12    1    1    2    0    0  0.13728495499E+02 -0.11656053975E+01  0.42886866952E+02  0.45045683273E+02  0.00000000000E+00 0. -1.
         11    1    3    3    0    0 -0.13028917773E+01 -0.32761515291E+00 -0.13733326073E+02  0.13798880533E+02  0.51100000000E-03 0. -1.
        -11    1    3    3    0    0 -0.97912378379E+01  0.12617370814E+01 -0.15083219242E+02  0.18026752947E+02  0.51100000000E-03 0.  1.
        -12    1    3    3    0    0 -0.26343658834E+01  0.23148346903E+00 -0.14070321637E+02  0.14316683246E+02  0.00000000000E+00 0.  1.
</event>
<event>
 7    1  0.4452647E-009  0.4614232E+02  0.7816164E-02  0.1320468E+00
        -11   -1    0    0    0    0  0.00000000000E+00  0.00000000000E+00  0.45593999997E+02  0.45594000000E+02  0.51100000000E-03 0. -1.
         11   -1    0    0    0    0 -0.00000000000E+00 -0.00000000000E+00 -0.45593999997E+02  0.45594000000E+02  0.51100000000E-03 0.  1.
    9900012    2    1    2    0    0  0.59388056631E+01  0.19069634912E+02  0.40375649144E+02  0.46142318385E+02  0.10000005686E+02 0.  0.
        -12    1    1    2    0    0 -0.59388056631E+01 -0.19069634912E+02 -0.40375649144E+02  0.45045681615E+02  0.00000000000E+00 0.  1.
         11    1    3    3    0    0  0.44852314545E+01  0.15980181106E+01  0.95523852918E+01  0.10673285722E+02  0.51100000000E-03 0. -1.
        -11    1    3    3    0    0  0.14451363806E+01  0.15229157522E+02  0.26485133092E+02  0.30585583747E+02  0.51100000000E-03 0.  1.
         12    1    3    3    0    0  0.84378279980E-02  0.22424592791E+01  0.43381307601E+01  0.48834489152E+01  0.00000000000E+00 0. -1.
</event>
<event>
 7    1  0.4452647E-009  0.4614232E+02  0.7816164E-02  0.1320468E+00
        -11   -1    0    0    0    0  0.00000000000E+00  0.00000000000E+00  0.45593999997E+02  0.45594000000E+02  0.51100000000E-03 0. -1.
         11   -1    0    0    0    0 -0.00000000000E+00 -0.00000000000E+00 -0.45593999997E+02  0.45594000000E+02  0.51100000000E-03 0.  1.
    9900012    2    1    2    0    0 -0.20503904032E+02 -0.19984447240E+02 -0.34775353870E+02  0.46142318200E+02  0.10000004005E+02 0.  0.
         12    1    1    2    0    0  0.20503904032E+02  0.19984447240E+02  0.34775353870E+02  0.45045681800E+02  0.00000000000E+00 0. -1.
         11    1    3    3    0    0 -0.15983191533E+02 -0.15143255688E+02 -0.19971241096E+02  0.29725932712E+02  0.51100000000E-03 0. -1.
        -11    1    3    3    0    0 -0.41996248238E+01 -0.50893620449E+01 -0.13142174010E+02  0.14705617725E+02  0.51100000000E-03 0.  1.
         12    1    3    3    0    0 -0.32108767515E+00  0.24817049291E+00 -0.16619387636E+01  0.17107677641E+01  0.00000000000E+00 0. -1.
</event>
<event>
 7    1  0.4452647E-009  0.4614232E+02  0.7816164E-02  0.1320468E+00
        -11   -1    0    0    0    0  0.00000000000E+00  0.00000000000E+00  0.45593999997E+02  0.45594000000E+02  0.51100000000E-03 0. -1.
         11   -1    0    0    0    0 -0.00000000000E+00 -0.00000000000E+00 -0.45593999997E+02  0.45594000000E+02  0.51100000000E-03 0.  1.
    9900012    2    1    2    0    0 -0.23088098497E+02  0.36131117147E+02 -0.13805636065E+02  0.46142317570E+02  0.99999982532E+01 0.  0.
         12    1    1    2    0    0  0.23088098497E+02 -0.36131117147E+02  0.13805636065E+02  0.45045682430E+02  0.00000000000E+00 0. -1.
         11    1    3    3    0    0 -0.32562761423E+01  0.95462897370E+01 -0.17864916605E+01  0.10243365403E+02  0.51100000000E-03 0. -1.
        -11    1    3    3    0    0 -0.11289285033E+02  0.19707325979E+02 -0.65123738792E+01  0.23627053722E+02  0.51100000000E-03 0.  1.
         12    1    3    3    0    0 -0.85425373214E+01  0.68775014311E+01 -0.55067705248E+01  0.12271898445E+02  0.00000000000E+00 0. -1.
</event>
<event>
 7    1  0.4452647E-009  0.4614231E+02  0.7816164E-02  0.1320468E+00
        -11   -1    0    0    0    0  0.00000000000E+00  0.00000000000E+00  0.45593999997E+02  0.45594000000E+02  0.51100000000E-03 0. -1.
         11   -1    0    0    0    0 -0.00000000000E+00 -0.00000000000E+00 -0.45593999997E+02  0.45594000000E+02  0.51100000000E-03 0.  1.
    9900012    2    1    2    0    0 -0.36209682423E+02 -0.80983033015E+01  0.25541934660E+02  0.46142311597E+02  0.99999437866E+01 0.  0.
        -12    1    1    2    0    0  0.36209682423E+02  0.80983033015E+01 -0.25541934660E+02  0.45045688403E+02  0.00000000000E+00 0.  1.
         11    1    3    3    0    0 -0.43271583910E+01 -0.11577596583E+01  0.41934087294E+01  0.61359094029E+01  0.51100000000E-03 0. -1.
        -11    1    3    3    0    0 -0.41884673441E+01  0.92893286217E+00  0.60121782003E+01  0.73859638456E+01  0.51100000000E-03 0.  1.
        -12    1    3    3    0    0 -0.27694056688E+02 -0.78694765053E+01  0.15336347730E+02  0.32620438348E+02  0.00000000000E+00 0.  1.
</event>
<event>
 7    1  0.4452647E-009  0.4614232E+02  0.7816164E-02  0.1320468E+00
        -11   -1    0    0    0    0  0.00000000000E+00  0.00000000000E+00  0.45593999997E+02  0.45594000000E+02  0.51100000000E-03 0. -1.
         11   -1    0    0    0    0 -0.00000000000E+00 -0.00000000000E+00 -0.45593999997E+02  0.45594000000E+02  0.51100000000E-03 0.  1.
    9900012    2    1    2    0    0 -0.15616743135E+02 -0.48038328099E+01  0.41978018940E+02  0.46142317077E+02  0.99999937650E+01 0.  0.
        -12    1    1    2    0    0  0.15616743135E+02  0.48038328099E+01 -0.41978018940E+02  0.45045682923E+02  0.00000000000E+00 0.  1.
         11    1    3    3    0    0  0.71340300909E+00  0.90185420090E+00  0.42410787669E+01  0.43942046175E+01  0.51100000000E-03 0. -1.
        -11    1    3    3    0    0 -0.17704552755E+01 -0.11765547045E+01  0.21090402580E+01  0.29944688888E+01  0.51100000000E-03 0.  1.
         12    1    3    3    0    0 -0.14559690868E+02 -0.45291323063E+01  0.35627899916E+02  0.38753643571E+02  0.00000000000E+00 0. -1.
</event>
<event>
 7    1  0.4452647E-009  0.4614232E+02  0.7816164E-02  0.1320468E+00
        -11   -1    0    0    0    0  0.00000000000E+00  0.00000000000E+00  0.45593999997E+02  0.45594000000E+02  0.51100000000E-03 0. -1.
         11   -1    0    0    0    0 -0.00000000000E+00 -0.00000000000E+00 -0.45593999997E+02  0.45594000000E+02  0.51100000000E-03 0.  1.
    9900012    2    1    2    0    0 -0.19766275473E+02 -0.18700029667E+02  0.35898696801E+02  0.46142321099E+02  0.10000030440E+02 0.  0.
        -12    1    1    2    0    0  0.19766275473E+02  0.18700029667E+02 -0.35898696801E+02  0.45045678901E+02  0.00000000000E+00 0.  1.
         11    1    3    3    0    0 -0.62462896212E+01 -0.45108105510E+01  0.14285545953E+02  0.16230846229E+02  0.51100000000E-03 0. -1.
        -11    1    3    3    0    0 -0.81056177463E+01 -0.10451032793E+02  0.18203656851E+02  0.22501072164E+02  0.51100000000E-03 0.  1.
        -12    1    3    3    0    0 -0.54143681054E+01 -0.37381863228E+01  0.34094939962E+01  0.74104027067E+01  0.00000000000E+00 0.  1.
</event>
<event>
 7    1  0.4452647E-009  0.4614232E+02  0.7816164E-02  0.1320468E+00
        -11   -1    0    0    0    0  0.00000000000E+00  0.00000000000E+00  0.45593999997E+02  0.45594000000E+02  0.51100000000E-03 0. -1.
         11   -1    0    0    0    0 -0.00000000000E+00 -0.00000000000E+00 -0.45593999997E+02  0.45594000000E+02  0.51100000000E-03 0.  1.
    9900012    2    1    2    0    0  0.30014382637E+01  0.92706027270E+01  0.43979094816E+02  0.46142317771E+02  0.10000000094E+02 0.  0.
        -12    1    1    2    0    0 -0.30014382637E+01 -0.92706027270E+01 -0.43979094816E+02  0.45045682229E+02  0.00000000000E+00 0.  1.
         11    1    3    3    0    0  0.34516587426E+00  0.56761887853E+01  0.91693170948E+01  0.10789561384E+02  0.51100000000E-03 0. -1.
        -11    1    3    3    0    0  0.28982802427E+01  0.36144379171E+00  0.15520736865E+02  0.15793161275E+02  0.51100000000E-03 0.  1.
         12    1    3    3    0    0 -0.24200785323E+00  0.32329701500E+01  0.19289040857E+02  0.19559595113E+02  0.00000000000E+00 0. -1.
</event>
<event>
 7    1  0.4452647E-009  0.4614232E+02  0.7816164E-02  0.1320468E+00
        -11   -1    0    0    0    0  0.00000000000E+00  0.00000000000E+00  0.45593999997E+02  0.45594000000E+02  0.51100000000E-03 0. -1.
         11   -1    0    0    0    0 -0.00000000000E+00 -0.00000000000E+00 -0.45593999997E+02  0.45594000000E+02  0.51100000000E-03 0.  1.
    9900012    2    1    2    0    0 -0.22657030116E+02 -0.38319179689E+02 -0.68856963487E+01  0.46142319187E+02  0.10000013001E+02 0.  0.
         12    1    1    2    0    0  0.22657030116E+02  0.38319179689E+02  0.68856963487E+01  0.45045680813E+02  0.00000000000E+00 0. -1.
         11    1    3    3    0    0 -0.14735915628E+02 -0.27747720152E+02 -0.26309912504E+01  0.31527849566E+02  0.51100000000E-03 0. -1.
        -11    1    3    3    0    0 -0.33740728039E+01 -0.76971149577E+01 -0.37771924182E+01  0.92139637932E+01  0.51100000000E-03 0.  1.
         12    1    3    3    0    0 -0.45470416837E+01 -0.28743445792E+01 -0.47751268020E+00  0.54005058275E+01  0.00000000000E+00 0. -1.
</event>
<event>
 7    1  0.4452647E-009  0.4614232E+02  0.7816164E-02  0.1320468E+00
        -11   -1    0    0    0    0  0.00000000000E+00  0.00000000000E+00  0.45593999997E+02  0.45594000000E+02  0.51100000000E-03 0. -1.
         11   -1    0    0    0    0 -0.00000000000E+00 -0.00000000000E+00 -0.45593999997E+02  0.45594000000E+02  0.51100000000E-03 0.  1.
    9900012    2    1    2    0    0  0.49323152623E+01  0.34788517373E+02  0.28187669605E+02  0.46142318824E+02  0.10000009693E+02 0.  0.
        -12    1    1    2    0    0 -0.49323152623E+01 -0.34788517373E+02 -0.28187669605E+02  0.45045681176E+02  0.00000000000E+00 0.  1.
         11    1    3    3    0    0  0.41303067317E+01  0.15862993612E+02  0.14772282104E+02  0.22066135114E+02  0.51100000000E-03 0. -1.
        -11    1    3    3    0    0  0.98016342270E-02  0.22664722919E-02  0.19216000110E+01  0.19216264133E+01  0.51100000000E-03 0.  1.
         12    1    3    3    0    0  0.79220689638E+00  0.18923257288E+02  0.11493787490E+02  0.22154557297E+02  0.00000000000E+00 0. -1.
</event>
<event>
 7    1  0.4452647E-009  0.4614232E+02  0.7816164E-02  0.1320468E+00
        -11   -1    0    0    0    0  0.00000000000E+00  0.00000000000E+00  0.45593999997E+02  0.45594000000E+02  0.51100000000E-03 0. -1.
         11   -1    0    0    0    0 -0.00000000000E+00 -0.00000000000E+00 -0.45593999997E+02  0.45594000000E+02  0.51100000000E-03 0.  1.
    9900012    2    1    2    0    0 -0.74303113237E+01 -0.26523057672E+02  0.35643111159E+02  0.46142317769E+02  0.10000000068E+02 0.  0.
        -12    1    1    2    0    0  0.74303113237E+01  0.26523057672E+02 -0.35643111159E+02  0.45045682231E+02  0.00000000000E+00 0.  1.
         11    1    3    3    0    0 -0.15891102943E+01 -0.28076665591E+01  0.91834279625E+01  0.97336330544E+01  0.51100000000E-03 0. -1.
        -11    1    3    3    0    0 -0.67433034998E+01 -0.20028001856E+02  0.23424158887E+02  0.31548125463E+02  0.51100000000E-03 0.  1.
         12    1    3    3    0    0  0.90210247042E+00 -0.36873892565E+01  0.30355243095E+01  0.48605592507E+01  0.00000000000E+00 0. -1.
</event>
<event>
 7    1  0.4452647E-009  0.4614232E+02  0.7816164E-02  0.1320468E+00
        -11   -1    0    0    0    0  0.00000000000E+00  0.00000000000E+00  0.45593999997E+02  0.45594000000E+02  0.51100000000E-03 0. -1.
         11   -1    0    0    0    0 -0.00000000000E+00 -0.00000000000E+00 -0.45593999997E+02  0.45594000000E+02  0.51100000000E-03 0.  1.
    9900012    2    1    2    0    0  0.15675033699E+02 -0.41079879628E+02  0.97903147089E+01  0.46142318144E+02  0.10000003495E+02 0.  0.
        -12    1    1    2    0    0 -0.15675033699E+02  0.41079879628E+02 -0.97903147089E+01  0.45045681856E+02  0.00000000000E+00 0.  1.
         11    1    3    3    0    0  0.14303542250E+02 -0.28541426711E+02  0.90531692970E+01  0.33183794753E+02  0.51100000000E-03 0. -1.
        -11    1    3    3    0    0  0.16775785781E+01 -0.12517737190E+02  0.74539078496E+00  0.12651625268E+02  0.51100000000E-03 0.  1.
         12    1    3    3    0    0 -0.30608712911E+00 -0.20715727131E-01 -0.82453730516E-02  0.30689812338E+00  0.00000000000E+00 0. -1.
</event>
<event>
 7    1  0.4452647E-009  0.4614231E+02  0.7816164E-02  0.1320468E+00
        -11   -1    0    0    0    0  0.00000000000E+00  0.00000000000E+00  0.45593999997E+02  0.45594000000E+02  0.51100000000E-03 0. -1.
         11   -1    0    0    0    0 -0.00000000000E+00 -0.00000000000E+00 -0.45593999997E+02  0.45594000000E+02  0.51100000000E-03 0.  1.
    9900012    2    1    2    0    0 -0.24058021435E+02  0.84569575635E+01 -0.37132273426E+02  0.46142309237E+02  0.99999222675E+01 0.  0.
         12    1    1    2    0    0  0.24058021435E+02 -0.84569575635E+01  0.37132273426E+02  0.45045690763E+02  0.00000000000E+00 0. -1.
         11    1    3    3    0    0 -0.28413576755E+01  0.20314176159E+01 -0.41561626826E+01  0.54289648623E+01  0.51100000000E-03 0. -1.
        -11    1    3    3    0    0 -0.11831264254E+02 -0.92568640246E+00 -0.14697016296E+02  0.18890156099E+02  0.51100000000E-03 0.  1.
        -12    1    3    3    0    0 -0.93853995054E+01  0.73512263501E+01 -0.18279094447E+02  0.21823188276E+02  0.00000000000E+00 0.  1.
</event>
<event>
 7    1  0.4452647E-009  0.4614232E+02  0.7816164E-02  0.1320468E+00
        -11   -1    0    0    0    0  0.00000000000E+00  0.00000000000E+00  0.45593999997E+02  0.45594000000E+02  0.51100000000E-03 0. -1.
         11   -1    0    0    0    0 -0.00000000000E+00 -0.00000000000E+00 -0.45593999997E+02  0.45594000000E+02  0.51100000000E-03 0.  1.
    9900012    2    1    2    0    0  0.11760668684E+02 -0.33022470514E+02  0.28289868499E+02  0.46142317116E+02  0.99999941203E+01 0.  0.
        -12    1    1    2    0    0 -0.11760668684E+02  0.33022470514E+02 -0.28289868499E+02  0.45045682884E+02  0.00000000000E+00 0.  1.
         11    1    3    3    0    0  0.64161508761E+01 -0.18160346083E+02  0.19436674195E+02  0.27363286826E+02  0.51100000000E-03 0. -1.
        -11    1    3    3    0    0  0.28972996638E+01 -0.40309097288E+01  0.49457651385E+01  0.70073655284E+01  0.51100000000E-03 0.  1.
         12    1    3    3    0    0  0.24472181441E+01 -0.10831214702E+02  0.39074291661E+01  0.11771664762E+02  0.00000000000E+00 0. -1.
</event>
<event>
 7    1  0.4452647E-009  0.4614232E+02  0.7816164E-02  0.1320468E+00
        -11   -1    0    0    0    0  0.00000000000E+00  0.00000000000E+00  0.45593999997E+02  0.45594000000E+02  0.51100000000E-03 0. -1.
         11   -1    0    0    0    0 -0.00000000000E+00 -0.00000000000E+00 -0.45593999997E+02  0.45594000000E+02  0.51100000000E-03 0.  1.
    9900012    2    1    2    0    0  0.25203744474E+02 -0.85025738970E+01  0.36353692106E+02  0.46142318430E+02  0.10000006096E+02 0.  0.
        -12    1    1    2    0    0 -0.25203744474E+02  0.85025738970E+01 -0.36353692106E+02  0.45045681570E+02  0.00000000000E+00 0.  1.
         11    1    3    3    0    0  0.75182137189E+01 -0.11835990595E+01  0.12771801486E+02  0.14867526954E+02  0.51100000000E-03 0. -1.
        -11    1    3    3    0    0  0.10524834773E+02 -0.48699172616E+01  0.84269855087E+01  0.14335352320E+02  0.51100000000E-03 0.  1.
        -12    1    3    3    0    0  0.71606959823E+01 -0.24490575759E+01  0.15154905111E+02  0.16939439155E+02  0.00000000000E+00 0.  1.
</event>
<event>
 7    1  0.4452647E-009  0.4614232E+02  0.7816164E-02  0.1320468E+00
        -11   -1    0    0    0    0  0.00000000000E+00  0.00000000000E+00  0.45593999997E+02  0.45594000000E+02  0.51100000000E-03 0. -1.
         11   -1    0    0    0    0 -0.00000000000E+00 -0.00000000000E+00 -0.45593999997E+02  0.45594000000E+02  0.51100000000E-03 0.  1.
    9900012    2    1    2    0    0  0.84835601772E+01  0.14589292530E+02  0.41764757202E+02  0.46142321029E+02  0.10000029802E+02 0.  0.
        -12    1    1    2    0    0 -0.84835601772E+01 -0.14589292530E+02 -0.41764757202E+02  0.45045678971E+02  0.00000000000E+00 0.  1.
         11    1    3    3    0    0  0.82769467861E+00  0.10435462018E+02  0.22945353440E+02  0.25220491485E+02  0.51100000000E-03 0. -1.
        -11    1    3    3    0    0  0.10962679162E+01 -0.38284597718E+00  0.26031926274E+01  0.28504361952E+01  0.51100000000E-03 0.  1.
         12    1    3    3    0    0  0.65595975824E+01  0.45366764890E+01  0.16216211134E+02  0.18071393349E+02  0.00000000000E+00 0. -1.
</event>
<event>
 7    1  0.4452647E-009  0.4614231E+02  0.7816164E-02  0.1320468E+00
        -11   -1    0    0    0    0  0.00000000000E+00  0.00000000000E+00  0.45593999997E+02  0.45594000000E+02  0.51100000000E-03 0. -1.
         11   -1    0    0    0    0 -0.00000000000E+00 -0.00000000000E+00 -0.45593999997E+02  0.45594000000E+02  0.51100000000E-03 0.  1.
    9900012    2    1    2    0    0 -0.28120899453E+02  0.30285941842E+02  0.17919008247E+02  0.46142310796E+02  0.99999364841E+01 0.  0.
        -12    1    1    2    0    0  0.28120899453E+02 -0.30285941842E+02 -0.17919008247E+02  0.45045689204E+02  0.00000000000E+00 0.  1.
         11    1    3    3    0    0 -0.19351269690E+01  0.84771976784E+00 -0.58395333581E+00  0.21918820567E+01  0.51100000000E-03 0. -1.
        -11    1    3    3    0    0 -0.15679835524E+01  0.83554687392E+00  0.22358178097E+01  0.28557998072E+01  0.51100000000E-03 0.  1.
         12    1    3    3    0    0 -0.24617788932E+02  0.28602675201E+02  0.16267143773E+02  0.41094628932E+02  0.00000000000E+00 0. -1.
</event>
<event>
 7    1  0.4452647E-009  0.4614232E+02  0.7816164E-02  0.1320468E+00
        -11   -1    0    0    0    0  0.00000000000E+00  0.00000000000E+00  0.45593999997E+02  0.45594000000E+02  0.51100000000E-03 0. -1.
         11   -1    0    0    0    0 -0.00000000000E+00 -0.00000000000E+00 -0.45593999997E+02  0.45594000000E+02  0.51100000000E-03 0.  1.
    9900012    2    1    2    0    0 -0.13998921318E+02 -0.27827112550E+02 -0.32539137192E+02  0.46142318297E+02  0.10000004883E+02 0.  0.
         12    1    1    2    0    0  0.13998921318E+02  0.27827112550E+02  0.32539137192E+02  0.45045681703E+02  0.00000000000E+00 0. -1.
         11    1    3    3    0    0  0.37013225759E+00 -0.22080571846E+01 -0.24103512395E+01  0.32897276145E+01  0.51100000000E-03 0. -1.
        -11    1    3    3    0    0 -0.13394928003E+02 -0.21157518184E+02 -0.28653076267E+02  0.38053428909E+02  0.51100000000E-03 0.  1.
         12    1    3    3    0    0 -0.97412557319E+00 -0.44615371808E+01 -0.14757096854E+01  0.47991617730E+01  0.00000000000E+00 0. -1.
</event>
<event>
 7    1  0.4452647E-009  0.4614232E+02  0.7816164E-02  0.1320468E+00
        -11   -1    0    0    0    0  0.00000000000E+00  0.00000000000E+00  0.45593999997E+02  0.45594000000E+02  0.51100000000E-03 0.  1.
         11   -1    0    0    0    0 -0.00000000000E+00 -0.00000000000E+00 -0.45593999997E+02  0.45594000000E+02  0.51100000000E-03 0. -1.
    9900012    2    1    2    0    0 -0.26649992816E+02 -0.33950955272E+02  0.12892787448E+02  0.46142318197E+02  0.10000003973E+02 0.  0.
        -12    1    1    2    0    0  0.26649992816E+02  0.33950955272E+02 -0.12892787448E+02  0.45045681803E+02  0.00000000000E+00 0.  1.
         11    1    3    3    0    0 -0.14800400880E+02 -0.11530711408E+02  0.55192636898E+01  0.19556877146E+02  0.51100000000E-03 0. -1.
        -11    1    3    3    0    0 -0.72210589688E+01 -0.12349936075E+02  0.27067303122E+01  0.14559910815E+02  0.51100000000E-03 0.  1.
         12    1    3    3    0    0 -0.46285329670E+01 -0.10070307789E+02  0.46667934456E+01  0.12025530236E+02  0.00000000000E+00 0. -1.
</event>
<event>
 7    1  0.4452647E-009  0.4614232E+02  0.7816164E-02  0.1320468E+00
        -11   -1    0    0    0    0  0.00000000000E+00  0.00000000000E+00  0.45593999997E+02  0.45594000000E+02  0.51100000000E-03 0. -1.
         11   -1    0    0    0    0 -0.00000000000E+00 -0.00000000000E+00 -0.45593999997E+02  0.45594000000E+02  0.51100000000E-03 0.  1.
    9900012    2    1    2    0    0  0.29222633547E+02  0.18607220728E+02 -0.28791015909E+02  0.46142316836E+02  0.99999915611E+01 0.  0.
         12    1    1    2    0    0 -0.29222633547E+02 -0.18607220728E+02  0.28791015909E+02  0.45045683164E+02  0.00000000000E+00 0. -1.
         11    1    3    3    0    0  0.73185241145E+01  0.44327068001E+01 -0.27033926431E+01  0.89731832052E+01  0.51100000000E-03 0. -1.
        -11    1    3    3    0    0  0.11025637315E+02  0.46143840432E+01 -0.10764703064E+02  0.16085274341E+02  0.51100000000E-03 0.  1.
         12    1    3    3    0    0  0.10878472118E+02  0.95601298846E+01 -0.15322920202E+02  0.21083859290E+02  0.00000000000E+00 0. -1.
</event>
<event>
 7    1  0.4452647E-009  0.4614232E+02  0.7816164E-02  0.1320468E+00
        -11   -1    0    0    0    0  0.00000000000E+00  0.00000000000E+00  0.45593999997E+02  0.45594000000E+02  0.51100000000E-03 0. -1.
         11   -1    0    0    0    0 -0.00000000000E+00 -0.00000000000E+00 -0.45593999997E+02  0.45594000000E+02  0.51100000000E-03 0.  1.
    9900012    2    1    2    0    0 -0.36569470740E+02  0.25225808876E+02  0.74461953044E+01  0.46142318207E+02  0.10000004070E+02 0.  0.
         12    1    1    2    0    0  0.36569470740E+02 -0.25225808876E+02 -0.74461953044E+01  0.45045681793E+02  0.00000000000E+00 0. -1.
         11    1    3    3    0    0 -0.20985507240E+01 -0.36684673399E+00 -0.70383511301E+00  0.22436300485E+01  0.51100000000E-03 0. -1.
        -11    1    3    3    0    0 -0.32306515977E+02  0.24711422875E+02  0.84506876070E+01  0.41542502529E+02  0.51100000000E-03 0.  1.
        -12    1    3    3    0    0 -0.21644040384E+01  0.88123273525E+00 -0.30065718961E+00  0.23561856295E+01  0.00000000000E+00 0.  1.
</event>
<event>
 7    1  0.4452647E-009  0.4614232E+02  0.7816164E-02  0.1320468E+00
        -11   -1    0    0    0    0  0.00000000000E+00  0.00000000000E+00  0.45593999997E+02  0.45594000000E+02  0.51100000000E-03 0. -1.
         11   -1    0    0    0    0 -0.00000000000E+00 -0.00000000000E+00 -0.45593999997E+02  0.45594000000E+02  0.51100000000E-03 0.  1.
    9900012    2    1    2    0    0 -0.14154091167E+02 -0.41088605700E+02  0.11853334508E+02  0.46142319252E+02  0.10000013592E+02 0.  0.
        -12    1    1    2    0    0  0.14154091167E+02  0.41088605700E+02 -0.11853334508E+02  0.45045680748E+02  0.00000000000E+00 0.  1.
         11    1    3    3    0    0 -0.28139005409E+01 -0.13090543084E+02  0.56345156288E+01  0.14526806983E+02  0.51100000000E-03 0.  1.
        -11    1    3    3    0    0 -0.77698167422E+01 -0.10696605381E+02  0.39885768564E+01  0.13809278203E+02  0.51100000000E-03 0. -1.
         12    1    3    3    0    0 -0.35703738839E+01 -0.17301457235E+02  0.22302420223E+01  0.17806234066E+02  0.00000000000E+00 0. -1.
</event>
<event>
 7    1  0.4452647E-009  0.4614232E+02  0.7816164E-02  0.1320468E+00
        -11   -1    0    0    0    0  0.00000000000E+00  0.00000000000E+00  0.45593999997E+02  0.45594000000E+02  0.51100000000E-03 0. -1.
         11   -1    0    0    0    0 -0.00000000000E+00 -0.00000000000E+00 -0.45593999997E+02  0.45594000000E+02  0.51100000000E-03 0.  1.
    9900012    2    1    2    0    0 -0.25303782317E+02 -0.92180558443E+01 -0.36108995130E+02  0.46142317827E+02  0.10000000603E+02 0.  0.
         12    1    1    2    0    0  0.25303782317E+02  0.92180558443E+01  0.36108995130E+02  0.45045682173E+02  0.00000000000E+00 0. -1.
         11    1    3    3    0    0 -0.32123008528E+01  0.15191491933E+01 -0.46968407058E+01  0.58895673795E+01  0.51100000000E-03 0. -1.
        -11    1    3    3    0    0 -0.21821947957E+02 -0.99196822521E+01 -0.28627421695E+02  0.37338007201E+02  0.51100000000E-03 0.  1.
        -12    1    3    3    0    0 -0.26953350725E+00 -0.81752278549E+00 -0.27847327297E+01  0.29147432464E+01  0.00000000000E+00 0.  1.
</event>
<event>
 7    1  0.4452647E-009  0.4614232E+02  0.7816164E-02  0.1320468E+00
        -11   -1    0    0    0    0  0.00000000000E+00  0.00000000000E+00  0.45593999997E+02  0.45594000000E+02  0.51100000000E-03 0. -1.
         11   -1    0    0    0    0 -0.00000000000E+00 -0.00000000000E+00 -0.45593999997E+02  0.45594000000E+02  0.51100000000E-03 0.  1.
    9900012    2    1    2    0    0 -0.93565026020E+01  0.16067464982E+02 -0.41029329969E+02  0.46142317747E+02  0.99999998729E+01 0.  0.
         12    1    1    2    0    0  0.93565026020E+01 -0.16067464982E+02  0.41029329969E+02  0.45045682253E+02  0.00000000000E+00 0. -1.
         11    1    3    3    0    0  0.93091141703E+00  0.68353994105E+00 -0.27501945140E+01  0.29828498191E+01  0.51100000000E-03 0. -1.
        -11    1    3    3    0    0  0.25718055685E+00  0.13231256359E+01 -0.82965765309E+01  0.84053545840E+01  0.51100000000E-03 0.  1.
        -12    1    3    3    0    0 -0.10544594576E+02  0.14060799405E+02 -0.29982558924E+02  0.34754113344E+02  0.00000000000E+00 0.  1.
</event>
<event>
 7    1  0.4452647E-009  0.4614232E+02  0.7816164E-02  0.1320468E+00
        -11   -1    0    0    0    0  0.00000000000E+00  0.00000000000E+00  0.45593999997E+02  0.45594000000E+02  0.51100000000E-03 0. -1.
         11   -1    0    0    0    0 -0.00000000000E+00 -0.00000000000E+00 -0.45593999997E+02  0.45594000000E+02  0.51100000000E-03 0.  1.
    9900012    2    1    2    0    0  0.31376773918E+02 -0.31152369685E+02 -0.86105296130E+01  0.46142319866E+02  0.10000019195E+02 0.  0.
         12    1    1    2    0    0 -0.31376773918E+02  0.31152369685E+02  0.86105296130E+01  0.45045680134E+02  0.00000000000E+00 0. -1.
         11    1    3    3    0    0  0.15625145119E+02 -0.93929205940E+01 -0.36440076513E+01  0.18591689253E+02  0.51100000000E-03 0. -1.
        -11    1    3    3    0    0  0.22014459298E+01 -0.30508153428E+01  0.54652786095E+00  0.38016485111E+01  0.51100000000E-03 0.  1.
         12    1    3    3    0    0  0.13550182870E+02 -0.18708633748E+02 -0.55130498226E+01  0.23748982102E+02  0.00000000000E+00 0. -1.
</event>
<event>
 7    1  0.4452647E-009  0.4614232E+02  0.7816164E-02  0.1320468E+00
        -11   -1    0    0    0    0  0.00000000000E+00  0.00000000000E+00  0.45593999997E+02  0.45594000000E+02  0.51100000000E-03 0.  1.
         11   -1    0    0    0    0 -0.00000000000E+00 -0.00000000000E+00 -0.45593999997E+02  0.45594000000E+02  0.51100000000E-03 0. -1.
    9900012    2    1    2    0    0  0.67181814075E+01 -0.31312073449E+02  0.31678596889E+02  0.46142318676E+02  0.10000008342E+02 0.  0.
        -12    1    1    2    0    0 -0.67181814075E+01  0.31312073449E+02 -0.31678596889E+02  0.45045681324E+02  0.00000000000E+00 0.  1.
         11    1    3    3    0    0  0.34507621689E+01 -0.21225484603E+02  0.20425803157E+02  0.29658765838E+02  0.51100000000E-03 0. -1.
        -11    1    3    3    0    0  0.46423524090E+01 -0.58888324008E+01  0.82140249538E+01  0.11122049682E+02  0.51100000000E-03 0.  1.
         12    1    3    3    0    0 -0.13749331705E+01 -0.41977564456E+01  0.30387687783E+01  0.53615031556E+01  0.00000000000E+00 0. -1.
</event>
<event>
 7    1  0.4452647E-009  0.4614232E+02  0.7816164E-02  0.1320468E+00
        -11   -1    0    0    0    0  0.00000000000E+00  0.00000000000E+00  0.45593999997E+02  0.45594000000E+02  0.51100000000E-03 0. -1.
         11   -1    0    0    0    0 -0.00000000000E+00 -0.00000000000E+00 -0.45593999997E+02  0.45594000000E+02  0.51100000000E-03 0.  1.
    9900012    2    1    2    0    0  0.22977183272E+02  0.19025297424E+02 -0.33752046194E+02  0.46142317460E+02  0.99999972519E+01 0.  0.
         12    1    1    2    0    0 -0.22977183272E+02 -0.19025297424E+02  0.33752046194E+02  0.45045682540E+02  0.00000000000E+00 0. -1.
         11    1    3    3    0    0  0.32436007754E+01  0.38501085617E+01 -0.70119394724E+01  0.86320088828E+01  0.51100000000E-03 0. -1.
        -11    1    3    3    0    0  0.44679676116E+01  0.12599756825E+01 -0.14642448765E+01  0.48676777438E+01  0.51100000000E-03 0.  1.
        -12    1    3    3    0    0  0.15265614885E+02  0.13915213180E+02 -0.25275861846E+02  0.32642630833E+02  0.00000000000E+00 0.  1.
</event>
<event>
 7    1  0.4452647E-009  0.4614232E+02  0.7816164E-02  0.1320468E+00
        -11   -1    0    0    0    0  0.00000000000E+00  0.00000000000E+00  0.45593999997E+02  0.45594000000E+02  0.51100000000E-03 0. -1.
         11   -1    0    0    0    0 -0.00000000000E+00 -0.00000000000E+00 -0.45593999997E+02  0.45594000000E+02  0.51100000000E-03 0.  1.
    9900012    2    1    2    0    0  0.15840779984E+02 -0.39076152100E+02  0.15850474750E+02  0.46142317374E+02  0.99999964717E+01 0.  0.
        -12    1    1    2    0    0 -0.15840779984E+02  0.39076152100E+02 -0.15850474750E+02  0.45045682626E+02  0.00000000000E+00 0.  1.
         11    1    3    3    0    0  0.14807313966E+02 -0.35376015754E+02  0.15750971300E+02  0.41458559245E+02  0.51100000000E-03 0. -1.
        -11    1    3    3    0    0  0.94146777039E+00 -0.22971038755E+00 -0.60351357847E+00  0.11416467603E+01  0.51100000000E-03 0.  1.
        -12    1    3    3    0    0  0.91998247890E-01 -0.34704259578E+01  0.70301702906E+00  0.35421113689E+01  0.00000000000E+00 0.  1.
</event>
<event>
 7    1  0.4452647E-009  0.4614232E+02  0.7816164E-02  0.1320468E+00
        -11   -1    0    0    0    0  0.00000000000E+00  0.00000000000E+00  0.45593999997E+02  0.45594000000E+02  0.51100000000E-03 0. -1.
         11   -1    0    0    0    0 -0.00000000000E+00 -0.00000000000E+00 -0.45593999997E+02  0.45594000000E+02  0.51100000000E-03 0.  1.
    9900012    2    1    2    0    0 -0.25986645499E+02 -0.20738346457E+02  0.30392906164E+02  0.46142317597E+02  0.99999985079E+01 0.  0.
        -12    1    1    2    0    0  0.25986645499E+02  0.20738346457E+02 -0.30392906164E+02  0.45045682403E+02  0.00000000000E+00 0.  1.
         11    1    3    3    0    0 -0.34352650808E+01 -0.14872985017E+01  0.50549486086E+01  0.62901199278E+01  0.51100000000E-03 0. -1.
        -11    1    3    3    0    0 -0.13837659655E+02 -0.16240683966E+02  0.15517076499E+02  0.26382196720E+02  0.51100000000E-03 0.  1.
        -12    1    3    3    0    0 -0.87137207627E+01 -0.30103639887E+01  0.98208810556E+01  0.13470000950E+02  0.00000000000E+00 0.  1.
</event>
<event>
 7    1  0.4452647E-009  0.4614232E+02  0.7816164E-02  0.1320468E+00
        -11   -1    0    0    0    0  0.00000000000E+00  0.00000000000E+00  0.45593999997E+02  0.45594000000E+02  0.51100000000E-03 0. -1.
         11   -1    0    0    0    0 -0.00000000000E+00 -0.00000000000E+00 -0.45593999997E+02  0.45594000000E+02  0.51100000000E-03 0.  1.
    9900012    2    1    2    0    0 -0.35415097065E+02 -0.26645395438E+02  0.80564995839E+01  0.46142318923E+02  0.10000010592E+02 0.  0.
        -12    1    1    2    0    0  0.35415097065E+02  0.26645395438E+02 -0.80564995839E+01  0.45045681077E+02  0.00000000000E+00 0.  1.
         11    1    3    3    0    0 -0.22011163838E+02 -0.18825212463E+02  0.68374914984E+01  0.29759557255E+02  0.51100000000E-03 0. -1.
        -11    1    3    3    0    0 -0.41511314140E+01 -0.97700493244E+00 -0.15645737877E+01  0.45425017394E+01  0.51100000000E-03 0.  1.
        -12    1    3    3    0    0 -0.92528018131E+01 -0.68431780426E+01  0.27835818732E+01  0.11840259928E+02  0.00000000000E+00 0.  1.
</event>
<event>
 7    1  0.4452647E-009  0.4614232E+02  0.7816164E-02  0.1320468E+00
        -11   -1    0    0    0    0  0.00000000000E+00  0.00000000000E+00  0.45593999997E+02  0.45594000000E+02  0.51100000000E-03 0.  1.
         11   -1    0    0    0    0 -0.00000000000E+00 -0.00000000000E+00 -0.45593999997E+02  0.45594000000E+02  0.51100000000E-03 0. -1.
    9900012    2    1    2    0    0  0.50883254577E+00 -0.38493941391E+02 -0.23389550945E+02  0.46142317324E+02  0.99999960131E+01 0.  0.
         12    1    1    2    0    0 -0.50883254577E+00  0.38493941391E+02  0.23389550945E+02  0.45045682676E+02  0.00000000000E+00 0. -1.
         11    1    3    3    0    0 -0.77241272314E+00 -0.40634688749E+00  0.44208762133E+00  0.97835624079E+00  0.51100000000E-03 0. -1.
        -11    1    3    3    0    0 -0.56299348415E+00 -0.15367909111E+02 -0.74107025996E+01  0.17070679699E+02  0.51100000000E-03 0.  1.
         12    1    3    3    0    0  0.18442387531E+01 -0.22719685392E+02 -0.16420935967E+02  0.28093281384E+02  0.00000000000E+00 0. -1.
</event>
<event>
 7    1  0.4452647E-009  0.4614232E+02  0.7816164E-02  0.1320468E+00
        -11   -1    0    0    0    0  0.00000000000E+00  0.00000000000E+00  0.45593999997E+02  0.45594000000E+02  0.51100000000E-03 0. -1.
         11   -1    0    0    0    0 -0.00000000000E+00 -0.00000000000E+00 -0.45593999997E+02  0.45594000000E+02  0.51100000000E-03 0.  1.
    9900012    2    1    2    0    0  0.35756215044E+02 -0.17445527757E+02 -0.21124869260E+02  0.46142318140E+02  0.10000003451E+02 0.  0.
         12    1    1    2    0    0 -0.35756215044E+02  0.17445527757E+02  0.21124869260E+02  0.45045681860E+02  0.00000000000E+00 0. -1.
         11    1    3    3    0    0  0.14691940800E+00  0.14391191954E+00  0.32769725547E+00  0.38688719983E+00  0.51100000000E-03 0. -1.
        -11    1    3    3    0    0  0.30690000794E+02 -0.17272102449E+02 -0.16967464966E+02  0.39090875398E+02  0.51100000000E-03 0.  1.
        -12    1    3    3    0    0  0.49192948419E+01 -0.31733722818E+00 -0.44851015494E+01  0.66645555415E+01  0.00000000000E+00 0.  1.
</event>
<event>
 7    1  0.4452647E-009  0.4614232E+02  0.7816164E-02  0.1320468E+00
        -11   -1    0    0    0    0  0.00000000000E+00  0.00000000000E+00  0.45593999997E+02  0.45594000000E+02  0.51100000000E-03 0. -1.
         11   -1    0    0    0    0 -0.00000000000E+00 -0.00000000000E+00 -0.45593999997E+02  0.45594000000E+02  0.51100000000E-03 0.  1.
    9900012    2    1    2    0    0 -0.17482116592E+02  0.98356418036E+01 -0.40332980456E+02  0.46142316936E+02  0.99999924730E+01 0.  0.
         12    1    1    2    0    0  0.17482116592E+02 -0.98356418036E+01  0.40332980456E+02  0.45045683064E+02  0.00000000000E+00 0. -1.
         11    1    3    3    0    0  0.90782445129E-01 -0.13593859670E+00  0.79442928480E-01  0.18174761188E+00  0.51100000000E-03 0. -1.
        -11    1    3    3    0    0 -0.11755900545E+02  0.24802268947E+01 -0.26797847821E+02  0.29367965049E+02  0.51100000000E-03 0.  1.
        -12    1    3    3    0    0 -0.58169984927E+01  0.74913535057E+01 -0.13614575564E+02  0.16592604274E+02  0.00000000000E+00 0.  1.
</event>
<event>
 7    1  0.4452647E-009  0.4614232E+02  0.7816164E-02  0.1320468E+00
        -11   -1    0    0    0    0  0.00000000000E+00  0.00000000000E+00  0.45593999997E+02  0.45594000000E+02  0.51100000000E-03 0. -1.
         11   -1    0    0    0    0 -0.00000000000E+00 -0.00000000000E+00 -0.45593999997E+02  0.45594000000E+02  0.51100000000E-03 0.  1.
    9900012    2    1    2    0    0 -0.13941104397E+01  0.38766841187E+02  0.22897629765E+02  0.46142323533E+02  0.10000052630E+02 0.  0.
        -12    1    1    2    0    0  0.13941104397E+01 -0.38766841187E+02 -0.22897629765E+02  0.45045676467E+02  0.00000000000E+00 0.  1.
         11    1    3    3    0    0  0.19774869350E+01  0.84708658063E+01  0.69662676599E+01  0.11144276892E+02  0.51100000000E-03 0.  1.
        -11    1    3    3    0    0 -0.50992287915E+01  0.21845241384E+02  0.10204304766E+02  0.24644361249E+02  0.51100000000E-03 0. -1.
        -12    1    3    3    0    0  0.17276314169E+01  0.84507339973E+01  0.57270573394E+01  0.10353685391E+02  0.00000000000E+00 0.  1.
</event>
<event>
 7    1  0.4452647E-009  0.4614232E+02  0.7816164E-02  0.1320468E+00
        -11   -1    0    0    0    0  0.00000000000E+00  0.00000000000E+00  0.45593999997E+02  0.45594000000E+02  0.51100000000E-03 0.  1.
         11   -1    0    0    0    0 -0.00000000000E+00 -0.00000000000E+00 -0.45593999997E+02  0.45594000000E+02  0.51100000000E-03 0. -1.
    9900012    2    1    2    0    0 -0.27160747846E+02 -0.34343079754E+02  0.10581121207E+02  0.46142317892E+02  0.10000001196E+02 0.  0.
         12    1    1    2    0    0  0.27160747846E+02  0.34343079754E+02 -0.10581121207E+02  0.45045682108E+02  0.00000000000E+00 0. -1.
         11    1    3    3    0    0 -0.21085435370E+02 -0.19116218479E+02  0.71472852277E+01  0.29344660163E+02  0.51100000000E-03 0.  1.
        -11    1    3    3    0    0 -0.16439517427E+01 -0.52163184383E+01  0.69903912200E+00  0.55137293493E+01  0.51100000000E-03 0. -1.
        -12    1    3    3    0    0 -0.44313607331E+01 -0.10010542837E+02  0.27347968578E+01  0.11283928380E+02  0.00000000000E+00 0.  1.
</event>
<event>
 7    1  0.4452647E-009  0.4614232E+02  0.7816164E-02  0.1320468E+00
        -11   -1    0    0    0    0  0.00000000000E+00  0.00000000000E+00  0.45593999997E+02  0.45594000000E+02  0.51100000000E-03 0. -1.
         11   -1    0    0    0    0 -0.00000000000E+00 -0.00000000000E+00 -0.45593999997E+02  0.45594000000E+02  0.51100000000E-03 0.  1.
    9900012    2    1    2    0    0  0.13191536708E+02  0.60666254422E+01 -0.42641445166E+02  0.46142318400E+02  0.10000005822E+02 0.  0.
         12    1    1    2    0    0 -0.13191536708E+02 -0.60666254422E+01  0.42641445166E+02  0.45045681600E+02  0.00000000000E+00 0. -1.
         11    1    3    3    0    0  0.81371841976E+01  0.14073449903E+01 -0.11311965968E+02  0.14005533225E+02  0.51100000000E-03 0. -1.
        -11    1    3    3    0    0  0.29984293696E+01  0.36804430414E+01 -0.18068353689E+02  0.18681585718E+02  0.51100000000E-03 0.  1.
         12    1    3    3    0    0  0.20559231408E+01  0.97883741053E+00 -0.13261125509E+02  0.13455199456E+02  0.00000000000E+00 0. -1.
</event>
<event>
 7    1  0.4452647E-009  0.4614232E+02  0.7816164E-02  0.1320468E+00
        -11   -1    0    0    0    0  0.00000000000E+00  0.00000000000E+00  0.45593999997E+02  0.45594000000E+02  0.51100000000E-03 0. -1.
         11   -1    0    0    0    0 -0.00000000000E+00 -0.00000000000E+00 -0.45593999997E+02  0.45594000000E+02  0.51100000000E-03 0.  1.
    9900012    2    1    2    0    0  0.34585285350E+02  0.23209320916E+02 -0.17155143643E+02  0.46142317704E+02  0.99999994750E+01 0.  0.
         12    1    1    2    0    0 -0.34585285350E+02 -0.23209320916E+02  0.17155143643E+02  0.45045682296E+02  0.00000000000E+00 0. -1.
         11    1    3    3    0    0  0.19285675780E+01 -0.38577639720E+00 -0.84387918954E-01  0.19685827170E+01  0.51100000000E-03 0. -1.
        -11    1    3    3    0    0  0.12950169832E+02  0.13074886536E+02 -0.76079552369E+01  0.19913325683E+02  0.51100000000E-03 0.  1.
         12    1    3    3    0    0  0.19706547940E+02  0.10520210778E+02 -0.94628004868E+01  0.24260409304E+02  0.00000000000E+00 0. -1.
</event>
<event>
 7    1  0.4452647E-009  0.4614232E+02  0.7816164E-02  0.1320468E+00
        -11   -1    0    0    0    0  0.00000000000E+00  0.00000000000E+00  0.45593999997E+02  0.45594000000E+02  0.51100000000E-03 0. -1.
         11   -1    0    0    0    0 -0.00000000000E+00 -0.00000000000E+00 -0.45593999997E+02  0.45594000000E+02  0.51100000000E-03 0.  1.
    9900012    2    1    2    0    0 -0.12403598481E+02 -0.13408483290E+01 -0.43283557286E+02  0.46142318067E+02  0.10000002787E+02 0.  0.
         12    1    1    2    0    0  0.12403598481E+02  0.13408483290E+01  0.43283557286E+02  0.45045681933E+02  0.00000000000E+00 0. -1.
         11    1    3    3    0    0  0.94914752679E-01  0.66199397793E+00 -0.14128523093E+00  0.68352513830E+00  0.51100000000E-03 0. -1.
        -11    1    3    3    0    0 -0.53096075900E+01  0.73186739657E+00 -0.91238321033E+01  0.10581676387E+02  0.51100000000E-03 0.  1.
        -12    1    3    3    0    0 -0.71889056441E+01 -0.27347097035E+01 -0.34018439951E+02  0.34877116542E+02  0.00000000000E+00 0.  1.
</event>
<event>
 7    1  0.4452647E-009  0.4614232E+02  0.7816164E-02  0.1320468E+00
        -11   -1    0    0    0    0  0.00000000000E+00  0.00000000000E+00  0.45593999997E+02  0.45594000000E+02  0.51100000000E-03 0. -1.
         11   -1    0    0    0    0 -0.00000000000E+00 -0.00000000000E+00 -0.45593999997E+02  0.45594000000E+02  0.51100000000E-03 0.  1.
    9900012    2    1    2    0    0  0.55319131279E+00  0.40294405851E+02 -0.20128792492E+02  0.46142318179E+02  0.10000003813E+02 0.  0.
         12    1    1    2    0    0 -0.55319131279E+00 -0.40294405851E+02  0.20128792492E+02  0.45045681821E+02  0.00000000000E+00 0. -1.
         11    1    3    3    0    0 -0.27497816484E+01  0.84499077705E+01 -0.65756520381E+01  0.11054476036E+02  0.51100000000E-03 0. -1.
        -11    1    3    3    0    0  0.36812484752E+01  0.28736873518E+02 -0.13485609825E+02  0.31956551168E+02  0.51100000000E-03 0.  1.
         12    1    3    3    0    0 -0.37827551394E+00  0.31076245627E+01 -0.67530628377E-01  0.31312909755E+01  0.00000000000E+00 0. -1.
</event>
<event>
 7    1  0.4452647E-009  0.4614232E+02  0.7816164E-02  0.1320468E+00
        -11   -1    0    0    0    0  0.00000000000E+00  0.00000000000E+00  0.45593999997E+02  0.45594000000E+02  0.51100000000E-03 0. -1.
         11   -1    0    0    0    0 -0.00000000000E+00 -0.00000000000E+00 -0.45593999997E+02  0.45594000000E+02  0.51100000000E-03 0.  1.
    9900012    2    1    2    0    0  0.10763621354E+02  0.11226707341E+01 -0.43726393156E+02  0.46142318824E+02  0.10000009691E+02 0.  0.
         12    1    1    2    0    0 -0.10763621354E+02 -0.11226707341E+01  0.43726393156E+02  0.45045681176E+02  0.00000000000E+00 0. -1.
         11    1    3    3    0    0  0.33735087945E+01  0.17215541496E+01 -0.25244891420E+02  0.25527413761E+02  0.51100000000E-03 0.  1.
        -11    1    3    3    0    0 -0.84873722505E+00 -0.25671847486E+00 -0.18302899403E+01  0.20337700901E+01  0.51100000000E-03 0. -1.
        -12    1    3    3    0    0  0.82388497843E+01 -0.34216494055E+00 -0.16651211795E+02  0.18581134973E+02  0.00000000000E+00 0.  1.
</event>
<event>
 7    1  0.4452647E-009  0.4614232E+02  0.7816164E-02  0.1320468E+00
        -11   -1    0    0    0    0  0.00000000000E+00  0.00000000000E+00  0.45593999997E+02  0.45594000000E+02  0.51100000000E-03 0. -1.
         11   -1    0    0    0    0 -0.00000000000E+00 -0.00000000000E+00 -0.45593999997E+02  0.45594000000E+02  0.51100000000E-03 0.  1.
    9900012    2    1    2    0    0  0.30622260448E+02 -0.21530211742E+02 -0.25056750107E+02  0.46142316760E+02  0.99999908736E+01 0.  0.
         12    1    1    2    0    0 -0.30622260448E+02  0.21530211742E+02  0.25056750107E+02  0.45045683240E+02  0.00000000000E+00 0. -1.
         11    1    3    3    0    0  0.61983840155E+01 -0.14544805936E+01 -0.14872714390E+01  0.65381537757E+01  0.51100000000E-03 0. -1.
        -11    1    3    3    0    0  0.22362853843E+02 -0.16983654789E+02 -0.20243156740E+02  0.34616862323E+02  0.51100000000E-03 0.  1.
        -12    1    3    3    0    0  0.20610225903E+01 -0.30920763591E+01 -0.33263219275E+01  0.49873006620E+01  0.00000000000E+00 0.  1.
</event>
<event>
 7    1  0.4452647E-009  0.4614232E+02  0.7816164E-02  0.1320468E+00
        -11   -1    0    0    0    0  0.00000000000E+00  0.00000000000E+00  0.45593999997E+02  0.45594000000E+02  0.51100000000E-03 0. -1.
         11   -1    0    0    0    0 -0.00000000000E+00 -0.00000000000E+00 -0.45593999997E+02  0.45594000000E+02  0.51100000000E-03 0.  1.
    9900012    2    1    2    0    0  0.76182889100E+01  0.11529984090E+02  0.42873471638E+02  0.46142318416E+02  0.10000005975E+02 0.  0.
        -12    1    1    2    0    0 -0.76182889100E+01 -0.11529984090E+02 -0.42873471638E+02  0.45045681584E+02  0.00000000000E+00 0.  1.
         11    1    3    3    0    0  0.24708343076E+01  0.20749144907E+00  0.45533041251E+01  0.51846555906E+01  0.51100000000E-03 0. -1.
        -11    1    3    3    0    0  0.41881375665E+01  0.72329795605E+01  0.14221785327E+02  0.16495928823E+02  0.51100000000E-03 0.  1.
        -12    1    3    3    0    0  0.95931703591E+00  0.40895130801E+01  0.24098382186E+02  0.24461734002E+02  0.00000000000E+00 0.  1.
</event>
<event>
 7    1  0.4452647E-009  0.4614232E+02  0.7816164E-02  0.1320468E+00
        -11   -1    0    0    0    0  0.00000000000E+00  0.00000000000E+00  0.45593999997E+02  0.45594000000E+02  0.51100000000E-03 0. -1.
         11   -1    0    0    0    0 -0.00000000000E+00 -0.00000000000E+00 -0.45593999997E+02  0.45594000000E+02  0.51100000000E-03 0.  1.
    9900012    2    1    2    0    0 -0.12579720589E+02 -0.15905118845E+02 -0.40223019988E+02  0.46142317493E+02  0.99999975521E+01 0.  0.
         12    1    1    2    0    0  0.12579720589E+02  0.15905118845E+02  0.40223019988E+02  0.45045682507E+02  0.00000000000E+00 0. -1.
         11    1    3    3    0    0 -0.10119119225E+02 -0.77044556006E+01 -0.27642127473E+02  0.30427658824E+02  0.51100000000E-03 0. -1.
        -11    1    3    3    0    0 -0.27443063488E+01 -0.41442092536E+01 -0.90686291820E+01  0.10341456531E+02  0.51100000000E-03 0.  1.
         12    1    3    3    0    0  0.28370498406E+00 -0.40564539912E+01 -0.35122633330E+01  0.53732021385E+01  0.00000000000E+00 0. -1.
</event>
<event>
 7    1  0.4452647E-009  0.4614231E+02  0.7816164E-02  0.1320468E+00
        -11   -1    0    0    0    0  0.00000000000E+00  0.00000000000E+00  0.45593999997E+02  0.45594000000E+02  0.51100000000E-03 0. -1.
         11   -1    0    0    0    0 -0.00000000000E+00 -0.00000000000E+00 -0.45593999997E+02  0.45594000000E+02  0.51100000000E-03 0.  1.
    9900012    2    1    2    0    0  0.12185481289E+01 -0.17217604211E+02 -0.41607491443E+02  0.46142310989E+02  0.99999382432E+01 0.  0.
         12    1    1    2    0    0 -0.12185481289E+01  0.17217604211E+02  0.41607491443E+02  0.45045689011E+02  0.00000000000E+00 0. -1.
         11    1    3    3    0    0 -0.45097682814E+00 -0.11058522502E+01  0.13051708075E+00  0.12013843133E+01  0.51100000000E-03 0. -1.
        -11    1    3    3    0    0  0.13779921763E+01 -0.10883525086E+02 -0.22955999345E+02  0.25442639150E+02  0.51100000000E-03 0.  1.
         12    1    3    3    0    0  0.29153278081E+00 -0.52282268748E+01 -0.18782009179E+02  0.19498287526E+02  0.00000000000E+00 0. -1.
</event>
<event>
 7    1  0.4452647E-009  0.4614232E+02  0.7816164E-02  0.1320468E+00
        -11   -1    0    0    0    0  0.00000000000E+00  0.00000000000E+00  0.45593999997E+02  0.45594000000E+02  0.51100000000E-03 0. -1.
         11   -1    0    0    0    0 -0.00000000000E+00 -0.00000000000E+00 -0.45593999997E+02  0.45594000000E+02  0.51100000000E-03 0.  1.
    9900012    2    1    2    0    0  0.20206412130E+02  0.17928209611E+02  0.36047103992E+02  0.46142317663E+02  0.99999991026E+01 0.  0.
        -12    1    1    2    0    0 -0.20206412130E+02 -0.17928209611E+02 -0.36047103992E+02  0.45045682337E+02  0.00000000000E+00 0.  1.
         11    1    3    3    0    0  0.92749772092E+01  0.12472682082E+02  0.17620981232E+02  0.23496637640E+02  0.51100000000E-03 0. -1.
        -11    1    3    3    0    0  0.89754681212E+01  0.44890006953E+01  0.17698713619E+02  0.20345874748E+02  0.51100000000E-03 0.  1.
         12    1    3    3    0    0  0.19559668000E+01  0.96652683388E+00  0.72740914104E+00  0.22998052747E+01  0.00000000000E+00 0. -1.
</event>
<event>
 7    1  0.4452647E-009  0.4614232E+02  0.7816164E-02  0.1320468E+00
        -11   -1    0    0    0    0  0.00000000000E+00  0.00000000000E+00  0.45593999997E+02  0.45594000000E+02  0.51100000000E-03 0. -1.
         11   -1    0    0    0    0 -0.00000000000E+00 -0.00000000000E+00 -0.45593999997E+02  0.45594000000E+02  0.51100000000E-03 0.  1.
    9900012    2    1    2    0    0  0.21215107135E+02  0.49562376257E+01  0.39426748027E+02  0.46142317386E+02  0.99999965788E+01 0.  0.
        -12    1    1    2    0    0 -0.21215107135E+02 -0.49562376257E+01 -0.39426748027E+02  0.45045682614E+02  0.00000000000E+00 0.  1.
         11    1    3    3    0    0  0.15412029584E+02  0.58095221106E+01  0.27126324623E+02  0.31735133384E+02  0.51100000000E-03 0. -1.
        -11    1    3    3    0    0  0.25922370001E+01 -0.25567634024E+01  0.79077394085E+01  0.87056920790E+01  0.51100000000E-03 0.  1.
        -12    1    3    3    0    0  0.32108405506E+01  0.17034789175E+01  0.43926839959E+01  0.57014919233E+01  0.00000000000E+00 0.  1.
</event>
<event>
 7    1  0.4452647E-009  0.4614232E+02  0.7816164E-02  0.1320468E+00
        -11   -1    0    0    0    0  0.00000000000E+00  0.00000000000E+00  0.45593999997E+02  0.45594000000E+02  0.51100000000E-03 0. -1.
         11   -1    0    0    0    0 -0.00000000000E+00 -0.00000000000E+00 -0.45593999997E+02  0.45594000000E+02  0.51100000000E-03 0.  1.
    9900012    2    1    2    0    0  0.36310903563E+02 -0.26622680514E+01 -0.26524410249E+02  0.46142315104E+02  0.99999757668E+01 0.  0.
         12    1    1    2    0    0 -0.36310903563E+02  0.26622680514E+01  0.26524410249E+02  0.45045684896E+02  0.00000000000E+00 0. -1.
         11    1    3    3    0    0  0.22661849633E+02 -0.52764047346E+01 -0.14503249527E+02  0.27417952565E+02  0.51100000000E-03 0. -1.
        -11    1    3    3    0    0  0.37847234523E+01  0.13632012721E+01 -0.55732520366E+01  0.68733971108E+01  0.51100000000E-03 0.  1.
         12    1    3    3    0    0  0.98643304774E+01  0.12509354111E+01 -0.64479086848E+01  0.11850965428E+02  0.00000000000E+00 0. -1.
</event>
<event>
 7    1  0.4452647E-009  0.4614232E+02  0.7816164E-02  0.1320468E+00
        -11   -1    0    0    0    0  0.00000000000E+00  0.00000000000E+00  0.45593999997E+02  0.45594000000E+02  0.51100000000E-03 0. -1.
         11   -1    0    0    0    0 -0.00000000000E+00 -0.00000000000E+00 -0.45593999997E+02  0.45594000000E+02  0.51100000000E-03 0.  1.
    9900012    2    1    2    0    0 -0.13132094262E+02  0.33605240826E+01 -0.42957752430E+02  0.46142317459E+02  0.99999972417E+01 0.  0.
         12    1    1    2    0    0  0.13132094262E+02 -0.33605240826E+01  0.42957752430E+02  0.45045682541E+02  0.00000000000E+00 0. -1.
         11    1    3    3    0    0 -0.43474935312E+01 -0.20821861546E+01 -0.22969621412E+02  0.23469974590E+02  0.51100000000E-03 0. -1.
        -11    1    3    3    0    0 -0.86299802375E+01  0.51770771497E+01 -0.19972377197E+02  0.22364582220E+02  0.51100000000E-03 0.  1.
         12    1    3    3    0    0 -0.15462049301E+00  0.26563308753E+00 -0.15753820849E-01  0.30776064876E+00  0.00000000000E+00 0. -1.
</event>
<event>
 7    1  0.4452647E-009  0.4614232E+02  0.7816164E-02  0.1320468E+00
        -11   -1    0    0    0    0  0.00000000000E+00  0.00000000000E+00  0.45593999997E+02  0.45594000000E+02  0.51100000000E-03 0. -1.
         11   -1    0    0    0    0 -0.00000000000E+00 -0.00000000000E+00 -0.45593999997E+02  0.45594000000E+02  0.51100000000E-03 0.  1.
    9900012    2    1    2    0    0 -0.43637314531E+02 -0.32901407262E+01 -0.10680505067E+02  0.46142318365E+02  0.10000005505E+02 0.  0.
         12    1    1    2    0    0  0.43637314531E+02  0.32901407262E+01  0.10680505067E+02  0.45045681635E+02  0.00000000000E+00 0. -1.
         11    1    3    3    0    0 -0.32515260703E+01  0.13456336357E+01 -0.14478909538E+01  0.38051990937E+01  0.51100000000E-03 0. -1.
        -11    1    3    3    0    0 -0.83217410580E+01 -0.55956284826E+00  0.10789616272E+01  0.84100322991E+01  0.51100000000E-03 0.  1.
        -12    1    3    3    0    0 -0.32064047403E+02 -0.40762115136E+01 -0.10311575740E+02  0.33927086972E+02  0.00000000000E+00 0.  1.
</event>
<event>
 7    1  0.4452647E-009  0.4614232E+02  0.7816164E-02  0.1320468E+00
        -11   -1    0    0    0    0  0.00000000000E+00  0.00000000000E+00  0.45593999997E+02  0.45594000000E+02  0.51100000000E-03 0. -1.
         11   -1    0    0    0    0 -0.00000000000E+00 -0.00000000000E+00 -0.45593999997E+02  0.45594000000E+02  0.51100000000E-03 0.  1.
    9900012    2    1    2    0    0 -0.24540792454E+02  0.26844651129E+02  0.26574941467E+02  0.46142319824E+02  0.10000018813E+02 0.  0.
        -12    1    1    2    0    0  0.24540792454E+02 -0.26844651129E+02 -0.26574941467E+02  0.45045680176E+02  0.00000000000E+00 0.  1.
         11    1    3    3    0    0 -0.12234789550E+01 -0.37874947709E+00  0.15758504757E+01  0.20306789265E+01  0.51100000000E-03 0. -1.
        -11    1    3    3    0    0 -0.14571110903E+02  0.15545156762E+02  0.11391576444E+02  0.24160653672E+02  0.51100000000E-03 0.  1.
         12    1    3    3    0    0 -0.87462025964E+01  0.11678243844E+02  0.13607514547E+02  0.19950987226E+02  0.00000000000E+00 0. -1.
</event>
<event>
 7    1  0.4452647E-009  0.4614232E+02  0.7816164E-02  0.1320468E+00
        -11   -1    0    0    0    0  0.00000000000E+00  0.00000000000E+00  0.45593999997E+02  0.45594000000E+02  0.51100000000E-03 0. -1.
         11   -1    0    0    0    0 -0.00000000000E+00 -0.00000000000E+00 -0.45593999997E+02  0.45594000000E+02  0.51100000000E-03 0.  1.
    9900012    2    1    2    0    0  0.11743937078E+02  0.97095418195E+01  0.42390072362E+02  0.46142317684E+02  0.99999993006E+01 0.  0.
        -12    1    1    2    0    0 -0.11743937078E+02 -0.97095418195E+01 -0.42390072362E+02  0.45045682316E+02  0.00000000000E+00 0.  1.
         11    1    3    3    0    0  0.76453360278E+01  0.10455626006E+02  0.24993174279E+02  0.28150133907E+02  0.51100000000E-03 0. -1.
        -11    1    3    3    0    0  0.27831905610E+01  0.26715127661E+00  0.87014085151E+01  0.91395858720E+01  0.51100000000E-03 0.  1.
         12    1    3    3    0    0  0.13154104892E+01 -0.10132354634E+01  0.86954895673E+01  0.88525979054E+01  0.00000000000E+00 0. -1.
</event>
<event>
 7    1  0.4452647E-009  0.4614232E+02  0.7816164E-02  0.1320468E+00
        -11   -1    0    0    0    0  0.00000000000E+00  0.00000000000E+00  0.45593999997E+02  0.45594000000E+02  0.51100000000E-03 0. -1.
         11   -1    0    0    0    0 -0.00000000000E+00 -0.00000000000E+00 -0.45593999997E+02  0.45594000000E+02  0.51100000000E-03 0.  1.
    9900012    2    1    2    0    0  0.17556695798E+02  0.11773192967E+02 -0.39777730235E+02  0.46142318047E+02  0.10000002604E+02 0.  0.
         12    1    1    2    0    0 -0.17556695798E+02 -0.11773192967E+02  0.39777730235E+02  0.45045681953E+02  0.00000000000E+00 0. -1.
         11    1    3    3    0    0  0.67509025427E+01  0.64269756882E+01 -0.22989085015E+02  0.24806828329E+02  0.51100000000E-03 0. -1.
        -11    1    3    3    0    0  0.73905052988E+01  0.19492843139E+01 -0.67341181577E+01  0.10186639560E+02  0.51100000000E-03 0.  1.
        -12    1    3    3    0    0  0.34152879569E+01  0.33969329648E+01 -0.10054527062E+02  0.11148850158E+02  0.00000000000E+00 0.  1.
</event>
<event>
 7    1  0.4452647E-009  0.4614232E+02  0.7816164E-02  0.1320468E+00
        -11   -1    0    0    0    0  0.00000000000E+00  0.00000000000E+00  0.45593999997E+02  0.45594000000E+02  0.51100000000E-03 0. -1.
         11   -1    0    0    0    0 -0.00000000000E+00 -0.00000000000E+00 -0.45593999997E+02  0.45594000000E+02  0.51100000000E-03 0.  1.
    9900012    2    1    2    0    0  0.18010515992E+02 -0.11927936270E+02  0.39527954634E+02  0.46142317105E+02  0.99999940182E+01 0.  0.
        -12    1    1    2    0    0 -0.18010515992E+02  0.11927936270E+02 -0.39527954634E+02  0.45045682895E+02  0.00000000000E+00 0.  1.
         11    1    3    3    0    0  0.93580419494E+01 -0.79197378586E+01  0.24267981321E+02  0.27188786558E+02  0.51100000000E-03 0. -1.
        -11    1    3    3    0    0  0.25095623606E+01  0.15501856352E+01  0.37110276607E+01  0.47405385037E+01  0.51100000000E-03 0.  1.
         12    1    3    3    0    0  0.61429116816E+01 -0.55583840463E+01  0.11548945652E+02  0.14212992043E+02  0.00000000000E+00 0. -1.
</event>
<event>
 7    1  0.4452647E-009  0.4614232E+02  0.7816164E-02  0.1320468E+00
        -11   -1    0    0    0    0  0.00000000000E+00  0.00000000000E+00  0.45593999997E+02  0.45594000000E+02  0.51100000000E-03 0.  1.
         11   -1    0    0    0    0 -0.00000000000E+00 -0.00000000000E+00 -0.45593999997E+02  0.45594000000E+02  0.51100000000E-03 0. -1.
    9900012    2    1    2    0    0  0.20349939255E+02 -0.39350208691E+02 -0.81580765256E+01  0.46142321358E+02  0.10000032799E+02 0.  0.
        -12    1    1    2    0    0 -0.20349939255E+02  0.39350208691E+02  0.81580765256E+01  0.45045678642E+02  0.00000000000E+00 0.  1.
         11    1    3    3    0    0  0.13182895305E+02 -0.16145650144E+02 -0.29787201889E+01  0.21055724196E+02  0.51100000000E-03 0. -1.
        -11    1    3    3    0    0  0.70400398500E+01 -0.19374735129E+02 -0.51786491082E+01  0.21254668411E+02  0.51100000000E-03 0.  1.
        -12    1    3    3    0    0  0.12700410055E+00 -0.38298234178E+01 -0.70722853743E-03  0.38319287511E+01  0.00000000000E+00 0.  1.
</event>
<event>
 7    1  0.4452647E-009  0.4614232E+02  0.7816164E-02  0.1320468E+00
        -11   -1    0    0    0    0  0.00000000000E+00  0.00000000000E+00  0.45593999997E+02  0.45594000000E+02  0.51100000000E-03 0. -1.
         11   -1    0    0    0    0 -0.00000000000E+00 -0.00000000000E+00 -0.45593999997E+02  0.45594000000E+02  0.51100000000E-03 0.  1.
    9900012    2    1    2    0    0 -0.15078197692E+02 -0.55192400796E+01  0.42086806268E+02  0.46142319646E+02  0.10000017189E+02 0.  0.
        -12    1    1    2    0    0  0.15078197692E+02  0.55192400796E+01 -0.42086806268E+02  0.45045680354E+02  0.00000000000E+00 0.  1.
         11    1    3    3    0    0 -0.55425744949E+01  0.19870416804E+01  0.78960448330E+01  0.98496695851E+01  0.51100000000E-03 0. -1.
        -11    1    3    3    0    0 -0.44922386186E+01 -0.36823343915E+01  0.15014928990E+02  0.16099313253E+02  0.51100000000E-03 0.  1.
         12    1    3    3    0    0 -0.50433845788E+01 -0.38239473684E+01  0.19175832445E+02  0.20193336808E+02  0.00000000000E+00 0. -1.
</event>
<event>
 7    1  0.4452647E-009  0.4614232E+02  0.7816164E-02  0.1320468E+00
        -11   -1    0    0    0    0  0.00000000000E+00  0.00000000000E+00  0.45593999997E+02  0.45594000000E+02  0.51100000000E-03 0. -1.
         11   -1    0    0    0    0 -0.00000000000E+00 -0.00000000000E+00 -0.45593999997E+02  0.45594000000E+02  0.51100000000E-03 0.  1.
    9900012    2    1    2    0    0  0.11030636032E+02  0.43643058186E+02  0.16498776419E+01  0.46142317018E+02  0.99999932247E+01 0.  0.
        -12    1    1    2    0    0 -0.11030636032E+02 -0.43643058186E+02 -0.16498776419E+01  0.45045682982E+02  0.00000000000E+00 0.  1.
         11    1    3    3    0    0  0.42431035001E+01  0.12775266565E+02 -0.17545592348E+01  0.13575339462E+02  0.51100000000E-03 0. -1.
        -11    1    3    3    0    0  0.63231162054E+01  0.31148851621E+02  0.36057008023E+01  0.31988026422E+02  0.51100000000E-03 0.  1.
        -12    1    3    3    0    0  0.46441632656E+00 -0.28106000051E+00 -0.20126392555E+00  0.57895113437E+00  0.00000000000E+00 0.  1.
</event>
<event>
 7    1  0.4452647E-009  0.4614232E+02  0.7816164E-02  0.1320468E+00
        -11   -1    0    0    0    0  0.00000000000E+00  0.00000000000E+00  0.45593999997E+02  0.45594000000E+02  0.51100000000E-03 0. -1.
         11   -1    0    0    0    0 -0.00000000000E+00 -0.00000000000E+00 -0.45593999997E+02  0.45594000000E+02  0.51100000000E-03 0.  1.
    9900012    2    1    2    0    0 -0.12624422258E+01  0.23749807447E+02 -0.38255279749E+02  0.46142317156E+02  0.99999944835E+01 0.  0.
         12    1    1    2    0    0  0.12624422258E+01 -0.23749807447E+02  0.38255279749E+02  0.45045682844E+02  0.00000000000E+00 0. -1.
         11    1    3    3    0    0  0.21788515121E+01  0.33869928481E+01 -0.81529373569E+01  0.90933768355E+01  0.51100000000E-03 0. -1.
        -11    1    3    3    0    0  0.61019089225E+00 -0.86583807725E-01 -0.31731624239E+00  0.69319516700E+00  0.51100000000E-03 0.  1.
        -12    1    3    3    0    0 -0.40514846302E+01  0.20449398407E+02 -0.29785026150E+02  0.36355745154E+02  0.00000000000E+00 0.  1.
</event>
<event>
 7    1  0.4452647E-009  0.4614232E+02  0.7816164E-02  0.1320468E+00
        -11   -1    0    0    0    0  0.00000000000E+00  0.00000000000E+00  0.45593999997E+02  0.45594000000E+02  0.51100000000E-03 0. -1.
         11   -1    0    0    0    0 -0.00000000000E+00 -0.00000000000E+00 -0.45593999997E+02  0.45594000000E+02  0.51100000000E-03 0.  1.
    9900012    2    1    2    0    0 -0.26579889574E+02  0.21220483268E+02  0.29534963484E+02  0.46142317544E+02  0.99999980241E+01 0.  0.
        -12    1    1    2    0    0  0.26579889574E+02 -0.21220483268E+02 -0.29534963484E+02  0.45045682456E+02  0.00000000000E+00 0.  1.
         11    1    3    3    0    0 -0.23167740645E+02  0.16429785637E+02  0.23799035716E+02  0.37055042355E+02  0.51100000000E-03 0. -1.
        -11    1    3    3    0    0 -0.27594237369E+01  0.49426060357E+01  0.32816950444E+01  0.65431870223E+01  0.51100000000E-03 0.  1.
         12    1    3    3    0    0 -0.65272519172E+00 -0.15190840408E+00  0.24542327241E+01  0.25440881674E+01  0.00000000000E+00 0. -1.
</event>
<event>
 7    1  0.4452647E-009  0.4614232E+02  0.7816164E-02  0.1320468E+00
        -11   -1    0    0    0    0  0.00000000000E+00  0.00000000000E+00  0.45593999997E+02  0.45594000000E+02  0.51100000000E-03 0. -1.
         11   -1    0    0    0    0 -0.00000000000E+00 -0.00000000000E+00 -0.45593999997E+02  0.45594000000E+02  0.51100000000E-03 0.  1.
    9900012    2    1    2    0    0 -0.32466311365E+02 -0.26692251509E+02 -0.16204186899E+02  0.46142319437E+02  0.10000015283E+02 0.  0.
         12    1    1    2    0    0  0.32466311365E+02  0.26692251509E+02  0.16204186899E+02  0.45045680563E+02  0.00000000000E+00 0. -1.
         11    1    3    3    0    0 -0.93048974012E+01 -0.74995321653E+01 -0.93339710942E+01  0.15164007221E+02  0.51100000000E-03 0. -1.
        -11    1    3    3    0    0 -0.21684933977E+02 -0.16978876360E+02 -0.64179336758E+01  0.28279117330E+02  0.51100000000E-03 0.  1.
         12    1    3    3    0    0 -0.14764799871E+01 -0.22138429838E+01 -0.45228212934E+00  0.26991948862E+01  0.00000000000E+00 0. -1.
</event>
<event>
 7    1  0.4452647E-009  0.4614232E+02  0.7816164E-02  0.1320468E+00
        -11   -1    0    0    0    0  0.00000000000E+00  0.00000000000E+00  0.45593999997E+02  0.45594000000E+02  0.51100000000E-03 0. -1.
         11   -1    0    0    0    0 -0.00000000000E+00 -0.00000000000E+00 -0.45593999997E+02  0.45594000000E+02  0.51100000000E-03 0.  1.
    9900012    2    1    2    0    0 -0.78992660184E+01  0.22645389467E+02  0.38130058958E+02  0.46142318032E+02  0.10000002475E+02 0.  0.
        -12    1    1    2    0    0  0.78992660184E+01 -0.22645389467E+02 -0.38130058958E+02  0.45045681968E+02  0.00000000000E+00 0.  1.
         11    1    3    3    0    0 -0.42076009589E+01  0.58822173614E+01  0.12009959613E+02  0.14019397886E+02  0.51100000000E-03 0. -1.
        -11    1    3    3    0    0 -0.21257726068E+01  0.12415892386E+02  0.23855782521E+02  0.26977243241E+02  0.51100000000E-03 0.  1.
        -12    1    3    3    0    0 -0.15658924526E+01  0.43472797199E+01  0.22643168238E+01  0.51456769054E+01  0.00000000000E+00 0.  1.
</event>
<event>
 7    1  0.4452647E-009  0.4614232E+02  0.7816164E-02  0.1320468E+00
        -11   -1    0    0    0    0  0.00000000000E+00  0.00000000000E+00  0.45593999997E+02  0.45594000000E+02  0.51100000000E-03 0. -1.
         11   -1    0    0    0    0 -0.00000000000E+00 -0.00000000000E+00 -0.45593999997E+02  0.45594000000E+02  0.51100000000E-03 0.  1.
    9900012    2    1    2    0    0  0.13364833933E+02 -0.29314573159E+02  0.31482541772E+02  0.46142318499E+02  0.10000006726E+02 0.  0.
        -12    1    1    2    0    0 -0.13364833933E+02  0.29314573159E+02 -0.31482541772E+02  0.45045681501E+02  0.00000000000E+00 0.  1.
         11    1    3    3    0    0  0.85216512794E+01 -0.10939058705E+02  0.15339509785E+02  0.20678058579E+02  0.51100000000E-03 0. -1.
        -11    1    3    3    0    0  0.46383374058E+01 -0.11236945338E+02  0.12540303886E+02  0.17465461238E+02  0.51100000000E-03 0.  1.
        -12    1    3    3    0    0  0.20484524768E+00 -0.71385691157E+01  0.36027280998E+01  0.79987986821E+01  0.00000000000E+00 0.  1.
</event>
<event>
 7    1  0.4452647E-009  0.4614232E+02  0.7816164E-02  0.1320468E+00
        -11   -1    0    0    0    0  0.00000000000E+00  0.00000000000E+00  0.45593999997E+02  0.45594000000E+02  0.51100000000E-03 0. -1.
         11   -1    0    0    0    0 -0.00000000000E+00 -0.00000000000E+00 -0.45593999997E+02  0.45594000000E+02  0.51100000000E-03 0.  1.
    9900012    2    1    2    0    0  0.10467416652E+01 -0.17945155207E+02 -0.41303622365E+02  0.46142317810E+02  0.10000000444E+02 0.  0.
         12    1    1    2    0    0 -0.10467416652E+01  0.17945155207E+02  0.41303622365E+02  0.45045682190E+02  0.00000000000E+00 0. -1.
         11    1    3    3    0    0  0.21113695945E+01 -0.25779549400E+01 -0.26346888399E+01  0.42479781993E+01  0.51100000000E-03 0. -1.
        -11    1    3    3    0    0 -0.18232183051E+01 -0.15240660926E+02 -0.36940213463E+02  0.40002265454E+02  0.51100000000E-03 0.  1.
        -12    1    3    3    0    0  0.75859037585E+00 -0.12653934057E+00 -0.17287200616E+01  0.18920741567E+01  0.00000000000E+00 0.  1.
</event>
<event>
 7    1  0.4452647E-009  0.4614232E+02  0.7816164E-02  0.1320468E+00
        -11   -1    0    0    0    0  0.00000000000E+00  0.00000000000E+00  0.45593999997E+02  0.45594000000E+02  0.51100000000E-03 0. -1.
         11   -1    0    0    0    0 -0.00000000000E+00 -0.00000000000E+00 -0.45593999997E+02  0.45594000000E+02  0.51100000000E-03 0.  1.
    9900012    2    1    2    0    0  0.51931565712E+01  0.20829279918E+02 -0.39601588228E+02  0.46142316886E+02  0.99999920163E+01 0.  0.
         12    1    1    2    0    0 -0.51931565712E+01 -0.20829279918E+02  0.39601588228E+02  0.45045683114E+02  0.00000000000E+00 0. -1.
         11    1    3    3    0    0  0.41281292416E+01  0.14839511788E+02 -0.18913182062E+02  0.24391822751E+02  0.51100000000E-03 0. -1.
        -11    1    3    3    0    0  0.14831612294E+01  0.55535817507E+01 -0.20104933283E+02  0.20910532754E+02  0.51100000000E-03 0.  1.
        -12    1    3    3    0    0 -0.41813389987E+00  0.43618637920E+00 -0.58347288337E+00  0.83996138080E+00  0.00000000000E+00 0.  1.
</event>
<event>
 7    1  0.4452647E-009  0.4614232E+02  0.7816164E-02  0.1320468E+00
        -11   -1    0    0    0    0  0.00000000000E+00  0.00000000000E+00  0.45593999997E+02  0.45594000000E+02  0.51100000000E-03 0. -1.
         11   -1    0    0    0    0 -0.00000000000E+00 -0.00000000000E+00 -0.45593999997E+02  0.45594000000E+02  0.51100000000E-03 0.  1.
    9900012    2    1    2    0    0  0.21663034198E+02  0.31547676631E+02 -0.23760694202E+02  0.46142317183E+02  0.99999947290E+01 0.  0.
         12    1    1    2    0    0 -0.21663034198E+02 -0.31547676631E+02  0.23760694202E+02  0.45045682817E+02  0.00000000000E+00 0. -1.
         11    1    3    3    0    0  0.75012978026E+01  0.95429673627E+01 -0.10565510367E+02  0.16092473533E+02  0.51100000000E-03 0. -1.
        -11    1    3    3    0    0  0.11782540641E+01  0.69899094045E+01 -0.26077178813E+01  0.75529668960E+01  0.51100000000E-03 0.  1.
         12    1    3    3    0    0  0.12983482331E+02  0.15014799864E+02 -0.10587465953E+02  0.22496876755E+02  0.00000000000E+00 0. -1.
</event>
<event>
 7    1  0.4452647E-009  0.4614232E+02  0.7816164E-02  0.1320468E+00
        -11   -1    0    0    0    0  0.00000000000E+00  0.00000000000E+00  0.45593999997E+02  0.45594000000E+02  0.51100000000E-03 0. -1.
         11   -1    0    0    0    0 -0.00000000000E+00 -0.00000000000E+00 -0.45593999997E+02  0.45594000000E+02  0.51100000000E-03 0.  1.
    9900012    2    1    2    0    0 -0.26038387383E+02  0.91387747730E+01 -0.35603351378E+02  0.46142318174E+02  0.10000003764E+02 0.  0.
         12    1    1    2    0    0  0.26038387383E+02 -0.91387747730E+01  0.35603351378E+02  0.45045681826E+02  0.00000000000E+00 0. -1.
         11    1    3    3    0    0 -0.84667480885E+01  0.54870342118E+01 -0.80320922194E+01  0.12896040994E+02  0.51100000000E-03 0. -1.
        -11    1    3    3    0    0 -0.13609024838E+02  0.44704441728E+01 -0.23389690599E+02  0.27427505440E+02  0.51100000000E-03 0.  1.
         12    1    3    3    0    0 -0.39626144567E+01 -0.81870361154E+00 -0.41815685598E+01  0.58187717395E+01  0.00000000000E+00 0. -1.
</event>
<event>
 7    1  0.4452647E-009  0.4614232E+02  0.7816164E-02  0.1320468E+00
        -11   -1    0    0    0    0  0.00000000000E+00  0.00000000000E+00  0.45593999997E+02  0.45594000000E+02  0.51100000000E-03 0. -1.
         11   -1    0    0    0    0 -0.00000000000E+00 -0.00000000000E+00 -0.45593999997E+02  0.45594000000E+02  0.51100000000E-03 0.  1.
    9900012    2    1    2    0    0  0.39738091179E+01 -0.22479018939E+02 -0.38833182058E+02  0.46142317853E+02  0.10000000838E+02 0.  0.
         12    1    1    2    0    0 -0.39738091179E+01  0.22479018939E+02  0.38833182058E+02  0.45045682147E+02  0.00000000000E+00 0. -1.
         11    1    3    3    0    0  0.60465340321E+00 -0.16565181078E+02 -0.31740835341E+02  0.35808538902E+02  0.51100000000E-03 0.  1.
        -11    1    3    3    0    0  0.23295652773E+01 -0.58067293004E+01 -0.50530431038E+01  0.80422773155E+01  0.51100000000E-03 0. -1.
        -12    1    3    3    0    0  0.10395904374E+01 -0.10710856106E+00 -0.20393036123E+01  0.22915016353E+01  0.00000000000E+00 0.  1.
</event>
<event>
 7    1  0.4452647E-009  0.4614232E+02  0.7816164E-02  0.1320468E+00
        -11   -1    0    0    0    0  0.00000000000E+00  0.00000000000E+00  0.45593999997E+02  0.45594000000E+02  0.51100000000E-03 0. -1.
         11   -1    0    0    0    0 -0.00000000000E+00 -0.00000000000E+00 -0.45593999997E+02  0.45594000000E+02  0.51100000000E-03 0.  1.
    9900012    2    1    2    0    0 -0.36905590494E+02  0.85569288591E+01 -0.24369445331E+02  0.46142317555E+02  0.99999981184E+01 0.  0.
         12    1    1    2    0    0  0.36905590494E+02 -0.85569288591E+01  0.24369445331E+02  0.45045682445E+02  0.00000000000E+00 0. -1.
         11    1    3    3    0    0 -0.64563247160E+01 -0.98167037666E-01 -0.69051762630E+01  0.94538471052E+01  0.51100000000E-03 0. -1.
        -11    1    3    3    0    0 -0.27155834184E+02  0.96366327801E+01 -0.15268438658E+02  0.32610262815E+02  0.51100000000E-03 0.  1.
        -12    1    3    3    0    0 -0.32934315945E+01 -0.98153688330E+00 -0.21958304101E+01  0.40782076346E+01  0.00000000000E+00 0.  1.
</event>
<event>
 7    1  0.4452647E-009  0.4614232E+02  0.7816164E-02  0.1320468E+00
        -11   -1    0    0    0    0  0.00000000000E+00  0.00000000000E+00  0.45593999997E+02  0.45594000000E+02  0.51100000000E-03 0. -1.
         11   -1    0    0    0    0 -0.00000000000E+00 -0.00000000000E+00 -0.45593999997E+02  0.45594000000E+02  0.51100000000E-03 0.  1.
    9900012    2    1    2    0    0  0.22530542504E+01  0.13606261035E+02  0.42882477973E+02  0.46142317522E+02  0.99999978232E+01 0.  0.
        -12    1    1    2    0    0 -0.22530542504E+01 -0.13606261035E+02 -0.42882477973E+02  0.45045682478E+02  0.00000000000E+00 0.  1.
         11    1    3    3    0    0  0.26080074390E+01  0.75579514306E+01  0.23489870588E+02  0.24813269698E+02  0.51100000000E-03 0. -1.
        -11    1    3    3    0    0  0.19404398648E+01 -0.44682810723E+00  0.43619887588E+01  0.47949878435E+01  0.51100000000E-03 0.  1.
        -12    1    3    3    0    0 -0.22953930535E+01  0.64951377113E+01  0.15030618626E+02  0.16534059980E+02  0.00000000000E+00 0.  1.
</event>
<event>
 7    1  0.4452647E-009  0.4614232E+02  0.7816164E-02  0.1320468E+00
        -11   -1    0    0    0    0  0.00000000000E+00  0.00000000000E+00  0.45593999997E+02  0.45594000000E+02  0.51100000000E-03 0. -1.
         11   -1    0    0    0    0 -0.00000000000E+00 -0.00000000000E+00 -0.45593999997E+02  0.45594000000E+02  0.51100000000E-03 0.  1.
    9900012    2    1    2    0    0  0.43664165151E+01 -0.38256427586E+02 -0.23377203374E+02  0.46142317827E+02  0.10000000603E+02 0.  0.
         12    1    1    2    0    0 -0.43664165151E+01  0.38256427586E+02  0.23377203374E+02  0.45045682173E+02  0.00000000000E+00 0. -1.
         11    1    3    3    0    0  0.54810799875E+01 -0.11433687785E+02 -0.76411055654E+01  0.14803984218E+02  0.51100000000E-03 0. -1.
        -11    1    3    3    0    0  0.79689845056E+00 -0.11355286880E+02 -0.81840882597E+01  0.14019874756E+02  0.51100000000E-03 0.  1.
         12    1    3    3    0    0 -0.19115619229E+01 -0.15467452920E+02 -0.75520095491E+01  0.17318458853E+02  0.00000000000E+00 0. -1.
</event>
<event>
 7    1  0.4452647E-009  0.4614232E+02  0.7816164E-02  0.1320468E+00
        -11   -1    0    0    0    0  0.00000000000E+00  0.00000000000E+00  0.45593999997E+02  0.45594000000E+02  0.51100000000E-03 0.  1.
         11   -1    0    0    0    0 -0.00000000000E+00 -0.00000000000E+00 -0.45593999997E+02  0.45594000000E+02  0.51100000000E-03 0. -1.
    9900012    2    1    2    0    0  0.33860881333E+02  0.27327584464E+02  0.11651499227E+02  0.46142316617E+02  0.99999895641E+01 0.  0.
        -12    1    1    2    0    0 -0.33860881333E+02 -0.27327584464E+02 -0.11651499227E+02  0.45045683383E+02  0.00000000000E+00 0.  1.
         11    1    3    3    0    0  0.12057767640E+02  0.12610132785E+02  0.84224985507E+01  0.19373788773E+02  0.51100000000E-03 0. -1.
        -11    1    3    3    0    0  0.13187893013E+01  0.16249652516E+01 -0.55441973439E+00  0.21649708528E+01  0.51100000000E-03 0.  1.
         12    1    3    3    0    0  0.20484324392E+02  0.13092486427E+02  0.37834204110E+01  0.24603556991E+02  0.00000000000E+00 0. -1.
</event>
<event>
 7    1  0.4452647E-009  0.4614232E+02  0.7816164E-02  0.1320468E+00
        -11   -1    0    0    0    0  0.00000000000E+00  0.00000000000E+00  0.45593999997E+02  0.45594000000E+02  0.51100000000E-03 0. -1.
         11   -1    0    0    0    0 -0.00000000000E+00 -0.00000000000E+00 -0.45593999997E+02  0.45594000000E+02  0.51100000000E-03 0.  1.
    9900012    2    1    2    0    0  0.17051388442E+02  0.19907451469E+02  0.36634096864E+02  0.46142317356E+02  0.99999963052E+01 0.  0.
        -12    1    1    2    0    0 -0.17051388442E+02 -0.19907451469E+02 -0.36634096864E+02  0.45045682644E+02  0.00000000000E+00 0.  1.
         11    1    3    3    0    0  0.11823763147E+02  0.16531720247E+02  0.28012816391E+02  0.34609493376E+02  0.51100000000E-03 0. -1.
        -11    1    3    3    0    0 -0.34231086542E+00 -0.79513505930E-01 -0.30029998203E+00  0.46225476367E+00  0.51100000000E-03 0.  1.
        -12    1    3    3    0    0  0.55699361604E+01  0.34552447279E+01  0.89215804554E+01  0.11070569217E+02  0.00000000000E+00 0.  1.
</event>
<event>
 7    1  0.4452647E-009  0.4614232E+02  0.7816164E-02  0.1320468E+00
        -11   -1    0    0    0    0  0.00000000000E+00  0.00000000000E+00  0.45593999997E+02  0.45594000000E+02  0.51100000000E-03 0. -1.
         11   -1    0    0    0    0 -0.00000000000E+00 -0.00000000000E+00 -0.45593999997E+02  0.45594000000E+02  0.51100000000E-03 0.  1.
    9900012    2    1    2    0    0 -0.18557535336E+01 -0.22572940882E+02 -0.38937540087E+02  0.46142317529E+02  0.99999978836E+01 0.  0.
         12    1    1    2    0    0  0.18557535336E+01  0.22572940882E+02  0.38937540087E+02  0.45045682471E+02  0.00000000000E+00 0. -1.
         11    1    3    3    0    0 -0.81415149259E+00  0.86404762995E+00 -0.24425330929E+01  0.27157667667E+01  0.51100000000E-03 0. -1.
        -11    1    3    3    0    0 -0.89649988391E+00 -0.22108532180E+02 -0.33510310209E+02  0.40156341937E+02  0.51100000000E-03 0.  1.
         12    1    3    3    0    0 -0.14510215709E+00 -0.13284563316E+01 -0.29846967852E+01  0.32702088253E+01  0.00000000000E+00 0. -1.
</event>
<event>
 7    1  0.4452647E-009  0.4614232E+02  0.7816164E-02  0.1320468E+00
        -11   -1    0    0    0    0  0.00000000000E+00  0.00000000000E+00  0.45593999997E+02  0.45594000000E+02  0.51100000000E-03 0. -1.
         11   -1    0    0    0    0 -0.00000000000E+00 -0.00000000000E+00 -0.45593999997E+02  0.45594000000E+02  0.51100000000E-03 0.  1.
    9900012    2    1    2    0    0 -0.33219886036E+02  0.12992542597E+01  0.30395138896E+02  0.46142319204E+02  0.10000013160E+02 0.  0.
        -12    1    1    2    0    0  0.33219886036E+02 -0.12992542597E+01 -0.30395138896E+02  0.45045680796E+02  0.00000000000E+00 0.  1.
         11    1    3    3    0    0 -0.20987976452E+02 -0.79126397475E+00  0.15382213524E+02  0.26033319945E+02  0.51100000000E-03 0. -1.
        -11    1    3    3    0    0 -0.97544680854E+01  0.12966320116E+01  0.14391878373E+02  0.17434364501E+02  0.51100000000E-03 0.  1.
         12    1    3    3    0    0 -0.24774414983E+01  0.79388622291E+00  0.62104699954E+00  0.26746347579E+01  0.00000000000E+00 0. -1.
</event>
<event>
 7    1  0.4452647E-009  0.4614232E+02  0.7816164E-02  0.1320468E+00
        -11   -1    0    0    0    0  0.00000000000E+00  0.00000000000E+00  0.45593999997E+02  0.45594000000E+02  0.51100000000E-03 0. -1.
         11   -1    0    0    0    0 -0.00000000000E+00 -0.00000000000E+00 -0.45593999997E+02  0.45594000000E+02  0.51100000000E-03 0.  1.
    9900012    2    1    2    0    0  0.18043832642E+02  0.35722653539E+02 -0.20674271606E+02  0.46142318979E+02  0.10000011103E+02 0.  0.
         12    1    1    2    0    0 -0.18043832642E+02 -0.35722653539E+02  0.20674271606E+02  0.45045681021E+02  0.00000000000E+00 0. -1.
         11    1    3    3    0    0  0.54193789595E+00  0.28843703195E+01 -0.56075691004E+00  0.29879319598E+01  0.51100000000E-03 0.  1.
        -11    1    3    3    0    0 -0.51461862681E+00  0.16247075883E+01  0.30628310564E+00  0.17315648069E+01  0.51100000000E-03 0. -1.
        -12    1    3    3    0    0  0.18016513372E+02  0.31213575631E+02 -0.20419797801E+02  0.41422822212E+02  0.00000000000E+00 0.  1.
</event>
<event>
 7    1  0.4452647E-009  0.4614232E+02  0.7816164E-02  0.1320468E+00
        -11   -1    0    0    0    0  0.00000000000E+00  0.00000000000E+00  0.45593999997E+02  0.45594000000E+02  0.51100000000E-03 0. -1.
         11   -1    0    0    0    0 -0.00000000000E+00 -0.00000000000E+00 -0.45593999997E+02  0.45594000000E+02  0.51100000000E-03 0.  1.
    9900012    2    1    2    0    0 -0.22292311333E+02  0.18465474329E+02 -0.34513657788E+02  0.46142318068E+02  0.10000002802E+02 0.  0.
         12    1    1    2    0    0  0.22292311333E+02 -0.18465474329E+02  0.34513657788E+02  0.45045681932E+02  0.00000000000E+00 0. -1.
         11    1    3    3    0    0 -0.74691294279E+01  0.48415984162E+01 -0.81310191988E+01  0.12055805370E+02  0.51100000000E-03 0. -1.
        -11    1    3    3    0    0 -0.65892280864E+01  0.56537883778E+01 -0.17680755375E+02  0.19697521689E+02  0.51100000000E-03 0.  1.
        -12    1    3    3    0    0 -0.82339538187E+01  0.79700875346E+01 -0.87018832141E+01  0.14388991009E+02  0.00000000000E+00 0.  1.
</event>
<event>
 7    1  0.4452647E-009  0.4614231E+02  0.7816164E-02  0.1320468E+00
        -11   -1    0    0    0    0  0.00000000000E+00  0.00000000000E+00  0.45593999997E+02  0.45594000000E+02  0.51100000000E-03 0. -1.
         11   -1    0    0    0    0 -0.00000000000E+00 -0.00000000000E+00 -0.45593999997E+02  0.45594000000E+02  0.51100000000E-03 0.  1.
    9900012    2    1    2    0    0  0.14118262505E+02 -0.33954778594E+01  0.42641050381E+02  0.46142314484E+02  0.99999701124E+01 0.  0.
        -12    1    1    2    0    0 -0.14118262505E+02  0.33954778594E+01 -0.42641050381E+02  0.45045685516E+02  0.00000000000E+00 0.  1.
         11    1    3    3    0    0  0.11663939842E+02 -0.73483060059E+00  0.31989551211E+02  0.34057581470E+02  0.51100000000E-03 0. -1.
        -11    1    3    3    0    0 -0.72249160740E+00 -0.11417830121E+01  0.65095306783E+01  0.66482819196E+01  0.51100000000E-03 0.  1.
        -12    1    3    3    0    0  0.31768142709E+01 -0.15188642466E+01  0.41419684917E+01  0.54364510940E+01  0.00000000000E+00 0.  1.
</event>
<event>
 7    1  0.4452647E-009  0.4614232E+02  0.7816164E-02  0.1320468E+00
        -11   -1    0    0    0    0  0.00000000000E+00  0.00000000000E+00  0.45593999997E+02  0.45594000000E+02  0.51100000000E-03 0. -1.
         11   -1    0    0    0    0 -0.00000000000E+00 -0.00000000000E+00 -0.45593999997E+02  0.45594000000E+02  0.51100000000E-03 0.  1.
    9900012    2    1    2    0    0  0.10164509960E+02 -0.30569213661E+02  0.31485224988E+02  0.46142317863E+02  0.10000000933E+02 0.  0.
        -12    1    1    2    0    0 -0.10164509960E+02  0.30569213661E+02 -0.31485224988E+02  0.45045682137E+02  0.00000000000E+00 0.  1.
         11    1    3    3    0    0  0.10892209205E+02 -0.27173108503E+02  0.24637381780E+02  0.38262496368E+02  0.51100000000E-03 0. -1.
        -11    1    3    3    0    0  0.39754578794E+00 -0.22403551236E+01  0.37242685681E+01  0.43643338968E+01  0.51100000000E-03 0.  1.
         12    1    3    3    0    0 -0.11252450323E+01 -0.11557500348E+01  0.31235746402E+01  0.35154875990E+01  0.00000000000E+00 0. -1.
</event>
<event>
 7    1  0.4452647E-009  0.4614232E+02  0.7816164E-02  0.1320468E+00
        -11   -1    0    0    0    0  0.00000000000E+00  0.00000000000E+00  0.45593999997E+02  0.45594000000E+02  0.51100000000E-03 0.  1.
         11   -1    0    0    0    0 -0.00000000000E+00 -0.00000000000E+00 -0.45593999997E+02  0.45594000000E+02  0.51100000000E-03 0. -1.
    9900012    2    1    2    0    0 -0.32400813020E+02 -0.30924381274E+02  0.47941030733E+01  0.46142318012E+02  0.10000002287E+02 0.  0.
        -12    1    1    2    0    0  0.32400813020E+02  0.30924381274E+02 -0.47941030733E+01  0.45045681988E+02  0.00000000000E+00 0.  1.
         11    1    3    3    0    0 -0.11671928748E+02 -0.11713525155E+02  0.51628116248E+01  0.17323256518E+02  0.51100000000E-03 0. -1.
        -11    1    3    3    0    0 -0.20306286632E+02 -0.16761126654E+02 -0.38764599336E+00  0.26333076409E+02  0.51100000000E-03 0.  1.
        -12    1    3    3    0    0 -0.42259763981E+00 -0.24497294649E+01  0.18937441897E-01  0.24859850851E+01  0.00000000000E+00 0.  1.
</event>
<event>
 7    1  0.4452647E-009  0.4614232E+02  0.7816164E-02  0.1320468E+00
        -11   -1    0    0    0    0  0.00000000000E+00  0.00000000000E+00  0.45593999997E+02  0.45594000000E+02  0.51100000000E-03 0. -1.
         11   -1    0    0    0    0 -0.00000000000E+00 -0.00000000000E+00 -0.45593999997E+02  0.45594000000E+02  0.51100000000E-03 0.  1.
    9900012    2    1    2    0    0 -0.35608642880E+02  0.17731930854E+02 -0.21135672351E+02  0.46142318017E+02  0.10000002337E+02 0.  0.
         12    1    1    2    0    0  0.35608642880E+02 -0.17731930854E+02  0.21135672351E+02  0.45045681983E+02  0.00000000000E+00 0. -1.
         11    1    3    3    0    0 -0.43651171546E+01  0.67399580604E+00 -0.12086298025E+01  0.45792253035E+01  0.51100000000E-03 0. -1.
        -11    1    3    3    0    0 -0.22612663247E+02  0.12639090423E+02 -0.10235972714E+02  0.27854160973E+02  0.51100000000E-03 0.  1.
        -12    1    3    3    0    0 -0.86308624780E+01  0.44188446249E+01 -0.96910698351E+01  0.13708931741E+02  0.00000000000E+00 0.  1.
</event>
<event>
 7    1  0.4452647E-009  0.4614232E+02  0.7816164E-02  0.1320468E+00
        -11   -1    0    0    0    0  0.00000000000E+00  0.00000000000E+00  0.45593999997E+02  0.45594000000E+02  0.51100000000E-03 0. -1.
         11   -1    0    0    0    0 -0.00000000000E+00 -0.00000000000E+00 -0.45593999997E+02  0.45594000000E+02  0.51100000000E-03 0.  1.
    9900012    2    1    2    0    0  0.30231215977E+01  0.19010618788E+02 -0.40725552475E+02  0.46142317462E+02  0.99999972767E+01 0.  0.
         12    1    1    2    0    0 -0.30231215977E+01 -0.19010618788E+02  0.40725552475E+02  0.45045682538E+02  0.00000000000E+00 0. -1.
         11    1    3    3    0    0 -0.88339136554E+00  0.41192710709E-01 -0.17721050428E+00  0.90193179790E+00  0.51100000000E-03 0. -1.
        -11    1    3    3    0    0 -0.63888634173E+00  0.83355067599E+01 -0.14439640626E+02  0.16685085267E+02  0.51100000000E-03 0.  1.
         12    1    3    3    0    0  0.45453993049E+01  0.10633919317E+02 -0.26108701345E+02  0.28555300398E+02  0.00000000000E+00 0. -1.
</event>
<event>
 7    1  0.4452647E-009  0.4614232E+02  0.7816164E-02  0.1320468E+00
        -11   -1    0    0    0    0  0.00000000000E+00  0.00000000000E+00  0.45593999997E+02  0.45594000000E+02  0.51100000000E-03 0.  1.
         11   -1    0    0    0    0 -0.00000000000E+00 -0.00000000000E+00 -0.45593999997E+02  0.45594000000E+02  0.51100000000E-03 0. -1.
    9900012    2    1    2    0    0  0.64540105296E+00 -0.20462444301E+02 -0.40124622395E+02  0.46142317724E+02  0.99999996661E+01 0.  0.
         12    1    1    2    0    0 -0.64540105296E+00  0.20462444301E+02  0.40124622395E+02  0.45045682276E+02  0.00000000000E+00 0. -1.
         11    1    3    3    0    0  0.36522005333E+01 -0.71387780446E+01 -0.17419636904E+02  0.19176664747E+02  0.51100000000E-03 0.  1.
        -11    1    3    3    0    0 -0.28474295753E+01 -0.70531426279E+01 -0.83215184215E+01  0.11273967590E+02  0.51100000000E-03 0. -1.
        -12    1    3    3    0    0 -0.15936990506E+00 -0.62705236286E+01 -0.14383467070E+02  0.15691685388E+02  0.00000000000E+00 0.  1.
</event>
<event>
 7    1  0.4452647E-009  0.4614232E+02  0.7816164E-02  0.1320468E+00
        -11   -1    0    0    0    0  0.00000000000E+00  0.00000000000E+00  0.45593999997E+02  0.45594000000E+02  0.51100000000E-03 0. -1.
         11   -1    0    0    0    0 -0.00000000000E+00 -0.00000000000E+00 -0.45593999997E+02  0.45594000000E+02  0.51100000000E-03 0.  1.
    9900012    2    1    2    0    0 -0.17497528001E+02 -0.39306896578E+02 -0.13338586206E+02  0.46142317779E+02  0.10000000162E+02 0.  0.
         12    1    1    2    0    0  0.17497528001E+02  0.39306896578E+02  0.13338586206E+02  0.45045682221E+02  0.00000000000E+00 0. -1.
         11    1    3    3    0    0 -0.11270440746E+01 -0.46661690033E+01 -0.36694549963E+01  0.60422066949E+01  0.51100000000E-03 0. -1.
        -11    1    3    3    0    0 -0.82804406933E+01 -0.14699048553E+02 -0.10035913657E+01  0.16900737331E+02  0.51100000000E-03 0.  1.
        -12    1    3    3    0    0 -0.80900432335E+01 -0.19941679022E+02 -0.86655398440E+01  0.23199373753E+02  0.00000000000E+00 0.  1.
</event>
<event>
 7    1  0.4452647E-009  0.4614232E+02  0.7816164E-02  0.1320468E+00
        -11   -1    0    0    0    0  0.00000000000E+00  0.00000000000E+00  0.45593999997E+02  0.45594000000E+02  0.51100000000E-03 0. -1.
         11   -1    0    0    0    0 -0.00000000000E+00 -0.00000000000E+00 -0.45593999997E+02  0.45594000000E+02  0.51100000000E-03 0.  1.
    9900012    2    1    2    0    0  0.41732384150E+02  0.16399117864E+02 -0.43116739099E+01  0.46142317793E+02  0.10000000295E+02 0.  0.
         12    1    1    2    0    0 -0.41732384150E+02 -0.16399117864E+02  0.43116739099E+01  0.45045682207E+02  0.00000000000E+00 0. -1.
         11    1    3    3    0    0  0.30024621382E+00 -0.72263490346E+00 -0.73448265570E-01  0.78596685773E+00  0.51100000000E-03 0. -1.
        -11    1    3    3    0    0  0.23713797562E+00 -0.33908910133E+00 -0.46620012722E-02  0.41380893356E+00  0.51100000000E-03 0.  1.
        -12    1    3    3    0    0  0.41194999960E+02  0.17460841869E+02 -0.42335636431E+01  0.44942542002E+02  0.00000000000E+00 0.  1.
</event>
<event>
 7    1  0.4452647E-009  0.4614232E+02  0.7816164E-02  0.1320468E+00
        -11   -1    0    0    0    0  0.00000000000E+00  0.00000000000E+00  0.45593999997E+02  0.45594000000E+02  0.51100000000E-03 0. -1.
         11   -1    0    0    0    0 -0.00000000000E+00 -0.00000000000E+00 -0.45593999997E+02  0.45594000000E+02  0.51100000000E-03 0.  1.
    9900012    2    1    2    0    0 -0.13817631993E+01  0.79479576226E+01  0.44317424564E+02  0.46142318522E+02  0.10000006934E+02 0.  0.
        -12    1    1    2    0    0  0.13817631993E+01 -0.79479576226E+01 -0.44317424564E+02  0.45045681478E+02  0.00000000000E+00 0.  1.
         11    1    3    3    0    0 -0.14643009097E+01  0.15657042589E+01  0.17595439006E+02  0.17725548823E+02  0.51100000000E-03 0. -1.
        -11    1    3    3    0    0  0.17983736442E+01  0.48041988356E+01  0.24994029391E+02  0.25515014789E+02  0.51100000000E-03 0.  1.
        -12    1    3    3    0    0 -0.17158359338E+01  0.15780545281E+01  0.17279561666E+01  0.29017549102E+01  0.00000000000E+00 0.  1.
</event>
<event>
 7    1  0.4452647E-009  0.4614232E+02  0.7816164E-02  0.1320468E+00
        -11   -1    0    0    0    0  0.00000000000E+00  0.00000000000E+00  0.45593999997E+02  0.45594000000E+02  0.51100000000E-03 0. -1.
         11   -1    0    0    0    0 -0.00000000000E+00 -0.00000000000E+00 -0.45593999997E+02  0.45594000000E+02  0.51100000000E-03 0.  1.
    9900012    2    1    2    0    0  0.41939196351E+02 -0.82112157890E+01  0.14240542937E+02  0.46142319647E+02  0.10000017195E+02 0.  0.
        -12    1    1    2    0    0 -0.41939196351E+02  0.82112157890E+01 -0.14240542937E+02  0.45045680353E+02  0.00000000000E+00 0.  1.
         11    1    3    3    0    0  0.23953635925E+02 -0.94867344202E+01  0.87235099545E+01  0.27200632900E+02  0.51100000000E-03 0. -1.
        -11    1    3    3    0    0  0.16354709458E+02  0.13153204917E+01  0.55173935381E+01  0.17310350117E+02  0.51100000000E-03 0.  1.
         12    1    3    3    0    0  0.16308509688E+01 -0.39801860459E-01 -0.36055543180E-03  0.16313366300E+01  0.00000000000E+00 0. -1.
</event>
<event>
 7    1  0.4452647E-009  0.4614232E+02  0.7816164E-02  0.1320468E+00
        -11   -1    0    0    0    0  0.00000000000E+00  0.00000000000E+00  0.45593999997E+02  0.45594000000E+02  0.51100000000E-03 0. -1.
         11   -1    0    0    0    0 -0.00000000000E+00 -0.00000000000E+00 -0.45593999997E+02  0.45594000000E+02  0.51100000000E-03 0.  1.
    9900012    2    1    2    0    0 -0.28841908604E+01 -0.40077121364E+01  0.44774247094E+02  0.46142317451E+02  0.99999971696E+01 0.  0.
        -12    1    1    2    0    0  0.28841908604E+01  0.40077121364E+01 -0.44774247094E+02  0.45045682549E+02  0.00000000000E+00 0.  1.
         11    1    3    3    0    0 -0.21054849243E+01 -0.44577198073E+01  0.10482123129E+02  0.11583576227E+02  0.51100000000E-03 0. -1.
        -11    1    3    3    0    0 -0.15570466296E+01  0.68675120158E+00  0.32917172085E+02  0.32961132258E+02  0.51100000000E-03 0.  1.
        -12    1    3    3    0    0  0.77834069358E+00 -0.23674353061E+00  0.13749518802E+01  0.15976089658E+01  0.00000000000E+00 0.  1.
</event>
<event>
 7    1  0.4452647E-009  0.4614232E+02  0.7816164E-02  0.1320468E+00
        -11   -1    0    0    0    0  0.00000000000E+00  0.00000000000E+00  0.45593999997E+02  0.45594000000E+02  0.51100000000E-03 0.  1.
         11   -1    0    0    0    0 -0.00000000000E+00 -0.00000000000E+00 -0.45593999997E+02  0.45594000000E+02  0.51100000000E-03 0. -1.
    9900012    2    1    2    0    0 -0.32017515500E+02 -0.27838256751E+02 -0.15133527609E+02  0.46142317681E+02  0.99999992670E+01 0.  0.
         12    1    1    2    0    0  0.32017515500E+02  0.27838256751E+02  0.15133527609E+02  0.45045682319E+02  0.00000000000E+00 0. -1.
         11    1    3    3    0    0 -0.14554375312E+02 -0.94627681479E+01 -0.19218843696E+01  0.17466180508E+02  0.51100000000E-03 0. -1.
        -11    1    3    3    0    0 -0.11730116554E+02 -0.10748596800E+02 -0.82280358341E+01  0.17911687288E+02  0.51100000000E-03 0.  1.
         12    1    3    3    0    0 -0.57330236338E+01 -0.76268918026E+01 -0.49836074051E+01  0.10764449885E+02  0.00000000000E+00 0. -1.
</event>
<event>
 7    1  0.4452647E-009  0.4614232E+02  0.7816164E-02  0.1320468E+00
        -11   -1    0    0    0    0  0.00000000000E+00  0.00000000000E+00  0.45593999997E+02  0.45594000000E+02  0.51100000000E-03 0. -1.
         11   -1    0    0    0    0 -0.00000000000E+00 -0.00000000000E+00 -0.45593999997E+02  0.45594000000E+02  0.51100000000E-03 0.  1.
    9900012    2    1    2    0    0  0.53148302615E+01  0.66958378804E+01 -0.44227046844E+02  0.46142319428E+02  0.10000015203E+02 0.  0.
         12    1    1    2    0    0 -0.53148302615E+01 -0.66958378804E+01  0.44227046844E+02  0.45045680572E+02  0.00000000000E+00 0. -1.
         11    1    3    3    0    0  0.36696356699E+01 -0.14038948399E+01 -0.98834168665E+01  0.10635745197E+02  0.51100000000E-03 0. -1.
        -11    1    3    3    0    0  0.22265514984E+01  0.39159530029E+01 -0.13268800830E+02  0.14012612006E+02  0.51100000000E-03 0.  1.
         12    1    3    3    0    0 -0.58135690681E+00  0.41837797174E+01 -0.21074829148E+02  0.21493962226E+02  0.00000000000E+00 0. -1.
</event>
<event>
 7    1  0.4452647E-009  0.4614232E+02  0.7816164E-02  0.1320468E+00
        -11   -1    0    0    0    0  0.00000000000E+00  0.00000000000E+00  0.45593999997E+02  0.45594000000E+02  0.51100000000E-03 0. -1.
         11   -1    0    0    0    0 -0.00000000000E+00 -0.00000000000E+00 -0.45593999997E+02  0.45594000000E+02  0.51100000000E-03 0.  1.
    9900012    2    1    2    0    0  0.33080750966E+02 -0.21394526230E+02  0.21841515825E+02  0.46142315960E+02  0.99999835732E+01 0.  0.
        -12    1    1    2    0    0 -0.33080750966E+02  0.21394526230E+02 -0.21841515825E+02  0.45045684040E+02  0.00000000000E+00 0.  1.
         11    1    3    3    0    0  0.59776155559E+01 -0.36362293544E+01  0.77496457165E+01  0.10440836204E+02  0.51100000000E-03 0. -1.
        -11    1    3    3    0    0  0.56870988379E+01 -0.60571907061E+01  0.24471878214E+01  0.86614883788E+01  0.51100000000E-03 0.  1.
         12    1    3    3    0    0  0.21416036573E+02 -0.11701106170E+02  0.11644682287E+02  0.27039991377E+02  0.00000000000E+00 0. -1.
</event>
<event>
 7    1  0.4452647E-009  0.4614232E+02  0.7816164E-02  0.1320468E+00
        -11   -1    0    0    0    0  0.00000000000E+00  0.00000000000E+00  0.45593999997E+02  0.45594000000E+02  0.51100000000E-03 0. -1.
         11   -1    0    0    0    0 -0.00000000000E+00 -0.00000000000E+00 -0.45593999997E+02  0.45594000000E+02  0.51100000000E-03 0.  1.
    9900012    2    1    2    0    0  0.21387513399E+02 -0.39105851159E+02 -0.65130733396E+01  0.46142318203E+02  0.10000004030E+02 0.  0.
         12    1    1    2    0    0 -0.21387513399E+02  0.39105851159E+02  0.65130733396E+01  0.45045681797E+02  0.00000000000E+00 0. -1.
         11    1    3    3    0    0  0.36248484089E+01 -0.12188130087E+01 -0.27087225304E+00  0.38338496549E+01  0.51100000000E-03 0. -1.
        -11    1    3    3    0    0  0.11163770958E+02 -0.23582228693E+02 -0.37711236599E+01  0.26362334230E+02  0.51100000000E-03 0.  1.
         12    1    3    3    0    0  0.65988940325E+01 -0.14304809457E+02 -0.24710774267E+01  0.15946134318E+02  0.00000000000E+00 0. -1.
</event>
<event>
 7    1  0.4452647E-009  0.4614232E+02  0.7816164E-02  0.1320468E+00
        -11   -1    0    0    0    0  0.00000000000E+00  0.00000000000E+00  0.45593999997E+02  0.45594000000E+02  0.51100000000E-03 0. -1.
         11   -1    0    0    0    0 -0.00000000000E+00 -0.00000000000E+00 -0.45593999997E+02  0.45594000000E+02  0.51100000000E-03 0.  1.
    9900012    2    1    2    0    0  0.32089390646E+02 -0.17916125458E+01 -0.31562234350E+02  0.46142317579E+02  0.99999983429E+01 0.  0.
         12    1    1    2    0    0 -0.32089390646E+02  0.17916125458E+01  0.31562234350E+02  0.45045682421E+02  0.00000000000E+00 0. -1.
         11    1    3    3    0    0  0.29832358784E+01  0.13715260882E+01 -0.12792323416E+01  0.35238069984E+01  0.51100000000E-03 0. -1.
        -11    1    3    3    0    0  0.28772386254E+02 -0.40268231137E+01 -0.29522111049E+02  0.41420050171E+02  0.51100000000E-03 0.  1.
         12    1    3    3    0    0  0.33376851386E+00  0.86368447974E+00 -0.76089095963E+00  0.11984604098E+01  0.00000000000E+00 0. -1.
</event>
<event>
 7    1  0.4452647E-009  0.4614232E+02  0.7816164E-02  0.1320468E+00
        -11   -1    0    0    0    0  0.00000000000E+00  0.00000000000E+00  0.45593999997E+02  0.45594000000E+02  0.51100000000E-03 0. -1.
         11   -1    0    0    0    0 -0.00000000000E+00 -0.00000000000E+00 -0.45593999997E+02  0.45594000000E+02  0.51100000000E-03 0.  1.
    9900012    2    1    2    0    0 -0.11154116647E+01 -0.26663550038E+02  0.36289456787E+02  0.46142315216E+02  0.99999767898E+01 0.  0.
        -12    1    1    2    0    0  0.11154116647E+01  0.26663550038E+02 -0.36289456787E+02  0.45045684784E+02  0.00000000000E+00 0.  1.
         11    1    3    3    0    0  0.89307344306E+00 -0.46730226508E+01  0.73669598176E+01  0.87696532477E+01  0.51100000000E-03 0. -1.
        -11    1    3    3    0    0  0.30313141939E+01 -0.95460499525E+01  0.98448209832E+01  0.14044089002E+02  0.51100000000E-03 0.  1.
        -12    1    3    3    0    0 -0.50397993017E+01 -0.12444477434E+02  0.19077675986E+02  0.23328572966E+02  0.00000000000E+00 0.  1.
</event>
<event>
 7    1  0.4452647E-009  0.4614232E+02  0.7816164E-02  0.1320468E+00
        -11   -1    0    0    0    0  0.00000000000E+00  0.00000000000E+00  0.45593999997E+02  0.45594000000E+02  0.51100000000E-03 0. -1.
         11   -1    0    0    0    0 -0.00000000000E+00 -0.00000000000E+00 -0.45593999997E+02  0.45594000000E+02  0.51100000000E-03 0.  1.
    9900012    2    1    2    0    0  0.28754826464E+02 -0.95265099688E+01 -0.33339451912E+02  0.46142317732E+02  0.99999997347E+01 0.  0.
         12    1    1    2    0    0 -0.28754826464E+02  0.95265099688E+01  0.33339451912E+02  0.45045682268E+02  0.00000000000E+00 0. -1.
         11    1    3    3    0    0  0.46593325091E+01 -0.11666209851E+01 -0.88005819151E+01  0.10025997519E+02  0.51100000000E-03 0. -1.
        -11    1    3    3    0    0  0.17071414643E+02 -0.37454891117E+01 -0.20015287157E+02  0.26572045590E+02  0.51100000000E-03 0.  1.
        -12    1    3    3    0    0  0.70240793122E+01 -0.46143998720E+01 -0.45235828405E+01  0.95442746229E+01  0.00000000000E+00 0.  1.
</event>
<event>
 7    1  0.4452647E-009  0.4614231E+02  0.7816164E-02  0.1320468E+00
        -11   -1    0    0    0    0  0.00000000000E+00  0.00000000000E+00  0.45593999997E+02  0.45594000000E+02  0.51100000000E-03 0. -1.
         11   -1    0    0    0    0 -0.00000000000E+00 -0.00000000000E+00 -0.45593999997E+02  0.45594000000E+02  0.51100000000E-03 0.  1.
    9900012    2    1    2    0    0 -0.12469005699E+02 -0.71332992255E+01  0.42693720497E+02  0.46142313960E+02  0.99999653374E+01 0.  0.
        -12    1    1    2    0    0  0.12469005699E+02  0.71332992255E+01 -0.42693720497E+02  0.45045686040E+02  0.00000000000E+00 0.  1.
         11    1    3    3    0    0 -0.25963153554E+00 -0.37907316204E+01  0.13246388001E+02  0.13780560587E+02  0.51100000000E-03 0. -1.
        -11    1    3    3    0    0 -0.74382958806E+01 -0.41443964643E+01  0.20308198189E+02  0.22021062227E+02  0.51100000000E-03 0.  1.
         12    1    3    3    0    0 -0.47710782825E+01  0.80182885928E+00  0.91391343062E+01  0.10340691145E+02  0.00000000000E+00 0. -1.
</event>
<event>
 7    1  0.4452647E-009  0.4614232E+02  0.7816164E-02  0.1320468E+00
        -11   -1    0    0    0    0  0.00000000000E+00  0.00000000000E+00  0.45593999997E+02  0.45594000000E+02  0.51100000000E-03 0.  1.
         11   -1    0    0    0    0 -0.00000000000E+00 -0.00000000000E+00 -0.45593999997E+02  0.45594000000E+02  0.51100000000E-03 0. -1.
    9900012    2    1    2    0    0  0.33711649380E+02 -0.28026320505E+02  0.10351981431E+02  0.46142318026E+02  0.10000002415E+02 0.  0.
        -12    1    1    2    0    0 -0.33711649380E+02  0.28026320505E+02 -0.10351981431E+02  0.45045681974E+02  0.00000000000E+00 0.  1.
         11    1    3    3    0    0  0.38822492245E+01 -0.66467545846E+01  0.17877610834E+01  0.79023601223E+01  0.51100000000E-03 0. -1.
        -11    1    3    3    0    0  0.26310060568E+02 -0.16348840158E+02  0.58327923967E+01  0.31520236817E+02  0.51100000000E-03 0.  1.
        -12    1    3    3    0    0  0.35193395870E+01 -0.50307257626E+01  0.27314279506E+01  0.67197210862E+01  0.00000000000E+00 0.  1.
</event>
<event>
 7    1  0.4452647E-009  0.4614232E+02  0.7816164E-02  0.1320468E+00
        -11   -1    0    0    0    0  0.00000000000E+00  0.00000000000E+00  0.45593999997E+02  0.45594000000E+02  0.51100000000E-03 0. -1.
         11   -1    0    0    0    0 -0.00000000000E+00 -0.00000000000E+00 -0.45593999997E+02  0.45594000000E+02  0.51100000000E-03 0.  1.
    9900012    2    1    2    0    0  0.31076938586E+02  0.29101342031E+02  0.14712216230E+02  0.46142317341E+02  0.99999961647E+01 0.  0.
        -12    1    1    2    0    0 -0.31076938586E+02 -0.29101342031E+02 -0.14712216230E+02  0.45045682659E+02  0.00000000000E+00 0.  1.
         11    1    3    3    0    0  0.15006478683E+02  0.96845560770E+01  0.52000336058E+01  0.18601757407E+02  0.51100000000E-03 0. -1.
        -11    1    3    3    0    0  0.32280538147E+01  0.97345699255E+00  0.12358627801E+01  0.35910036229E+01  0.51100000000E-03 0.  1.
         12    1    3    3    0    0  0.12842406088E+02  0.18443328961E+02  0.82763198442E+01  0.23949556310E+02  0.00000000000E+00 0. -1.
</event>
<event>
 7    1  0.4452647E-009  0.4614232E+02  0.7816164E-02  0.1320468E+00
        -11   -1    0    0    0    0  0.00000000000E+00  0.00000000000E+00  0.45593999997E+02  0.45594000000E+02  0.51100000000E-03 0. -1.
         11   -1    0    0    0    0 -0.00000000000E+00 -0.00000000000E+00 -0.45593999997E+02  0.45594000000E+02  0.51100000000E-03 0.  1.
    9900012    2    1    2    0    0  0.30154154047E+00  0.36664247417E+02  0.26167832725E+02  0.46142318348E+02  0.10000005351E+02 0.  0.
        -12    1    1    2    0    0 -0.30154154047E+00 -0.36664247417E+02 -0.26167832725E+02  0.45045681652E+02  0.00000000000E+00 0.  1.
         11    1    3    3    0    0 -0.26674885775E+01  0.24278022423E+02  0.14752524584E+02  0.28533749314E+02  0.51100000000E-03 0. -1.
        -11    1    3    3    0    0  0.31378842427E+01  0.94545811097E+01  0.10631435027E+02  0.14569242687E+02  0.51100000000E-03 0.  1.
        -12    1    3    3    0    0 -0.16885412471E+00  0.29316438846E+01  0.78387311454E+00  0.30393263467E+01  0.00000000000E+00 0.  1.
</event>
<event>
 7    1  0.4452647E-009  0.4614232E+02  0.7816164E-02  0.1320468E+00
        -11   -1    0    0    0    0  0.00000000000E+00  0.00000000000E+00  0.45593999997E+02  0.45594000000E+02  0.51100000000E-03 0. -1.
         11   -1    0    0    0    0 -0.00000000000E+00 -0.00000000000E+00 -0.45593999997E+02  0.45594000000E+02  0.51100000000E-03 0.  1.
    9900012    2    1    2    0    0 -0.18901424565E+02 -0.16536675995E+02  0.37395025961E+02  0.46142317963E+02  0.10000001838E+02 0.  0.
        -12    1    1    2    0    0  0.18901424565E+02  0.16536675995E+02 -0.37395025961E+02  0.45045682037E+02  0.00000000000E+00 0.  1.
         11    1    3    3    0    0 -0.56958685628E+01 -0.55488681761E+01  0.13484433083E+02  0.15654481548E+02  0.51100000000E-03 0. -1.
        -11    1    3    3    0    0 -0.70205945104E+01 -0.84816519404E+01  0.19784538950E+02  0.22641889246E+02  0.51100000000E-03 0.  1.
        -12    1    3    3    0    0 -0.61849614915E+01 -0.25061558789E+01  0.41260539287E+01  0.78459471680E+01  0.00000000000E+00 0.  1.
</event>
<event>
 7    1  0.4452647E-009  0.4614232E+02  0.7816164E-02  0.1320468E+00
        -11   -1    0    0    0    0  0.00000000000E+00  0.00000000000E+00  0.45593999997E+02  0.45594000000E+02  0.51100000000E-03 0. -1.
         11   -1    0    0    0    0 -0.00000000000E+00 -0.00000000000E+00 -0.45593999997E+02  0.45594000000E+02  0.51100000000E-03 0.  1.
    9900012    2    1    2    0    0  0.22270999242E+02  0.39139066345E+02  0.11177444014E+01  0.46142320139E+02  0.10000021682E+02 0.  0.
        -12    1    1    2    0    0 -0.22270999242E+02 -0.39139066345E+02 -0.11177444014E+01  0.45045679861E+02  0.00000000000E+00 0.  1.
         11    1    3    3    0    0  0.20454402126E+02  0.38077950832E+02  0.21874594608E+01  0.43279300885E+02  0.51100000000E-03 0. -1.
        -11    1    3    3    0    0  0.12743302505E+01  0.65769719251E+00  0.17696094991E+00  0.14449216669E+01  0.51100000000E-03 0.  1.
         12    1    3    3    0    0  0.54226686543E+00  0.40341832040E+00 -0.12466760093E+01  0.14180975872E+01  0.00000000000E+00 0. -1.
</event>
<event>
 7    1  0.4452647E-009  0.4614231E+02  0.7816164E-02  0.1320468E+00
        -11   -1    0    0    0    0  0.00000000000E+00  0.00000000000E+00  0.45593999997E+02  0.45594000000E+02  0.51100000000E-03 0. -1.
         11   -1    0    0    0    0 -0.00000000000E+00 -0.00000000000E+00 -0.45593999997E+02  0.45594000000E+02  0.51100000000E-03 0.  1.
    9900012    2    1    2    0    0 -0.10093811252E+02  0.34597295555E+02  0.27023259397E+02  0.46142307268E+02  0.99999043109E+01 0.  0.
        -12    1    1    2    0    0  0.10093811252E+02 -0.34597295555E+02 -0.27023259397E+02  0.45045692732E+02  0.00000000000E+00 0.  1.
         11    1    3    3    0    0 -0.48854056191E+01  0.18852380451E+02  0.18235695537E+02  0.26679955560E+02  0.51100000000E-03 0. -1.
        -11    1    3    3    0    0 -0.44521897280E+01  0.77952068129E+01  0.25581929180E+01  0.93344305609E+01  0.51100000000E-03 0.  1.
         12    1    3    3    0    0 -0.75621590468E+00  0.79497082909E+01  0.62293709423E+01  0.10127921146E+02  0.00000000000E+00 0. -1.
</event>
<event>
 7    1  0.4452647E-009  0.4614232E+02  0.7816164E-02  0.1320468E+00
        -11   -1    0    0    0    0  0.00000000000E+00  0.00000000000E+00  0.45593999997E+02  0.45594000000E+02  0.51100000000E-03 0. -1.
         11   -1    0    0    0    0 -0.00000000000E+00 -0.00000000000E+00 -0.45593999997E+02  0.45594000000E+02  0.51100000000E-03 0.  1.
    9900012    2    1    2    0    0 -0.88635263751E+01 -0.18972479636E+02  0.39882281833E+02  0.46142317770E+02  0.10000000080E+02 0.  0.
        -12    1    1    2    0    0  0.88635263751E+01  0.18972479636E+02 -0.39882281833E+02  0.45045682230E+02  0.00000000000E+00 0.  1.
         11    1    3    3    0    0 -0.12215169550E+01 -0.81854201388E+01  0.16459019815E+02  0.18422609480E+02  0.51100000000E-03 0. -1.
        -11    1    3    3    0    0  0.87318116592E+00 -0.37397033217E+00  0.35115471092E+00  0.10127235802E+01  0.51100000000E-03 0.  1.
        -12    1    3    3    0    0 -0.85151905860E+01 -0.10413089165E+02  0.23072107307E+02  0.26706984710E+02  0.00000000000E+00 0.  1.
</event>
<event>
 7    1  0.4452647E-009  0.4614232E+02  0.7816164E-02  0.1320468E+00
        -11   -1    0    0    0    0  0.00000000000E+00  0.00000000000E+00  0.45593999997E+02  0.45594000000E+02  0.51100000000E-03 0. -1.
         11   -1    0    0    0    0 -0.00000000000E+00 -0.00000000000E+00 -0.45593999997E+02  0.45594000000E+02  0.51100000000E-03 0.  1.
    9900012    2    1    2    0    0 -0.10428287407E+02  0.12846271916E+01  0.43803127986E+02  0.46142318002E+02  0.10000002198E+02 0.  0.
        -12    1    1    2    0    0  0.10428287407E+02 -0.12846271916E+01 -0.43803127986E+02  0.45045681998E+02  0.00000000000E+00 0.  1.
         11    1    3    3    0    0 -0.78546313694E+01  0.32510890430E+01  0.27513496152E+02  0.28796827684E+02  0.51100000000E-03 0. -1.
        -11    1    3    3    0    0 -0.26744218644E+01 -0.28121250444E+01  0.68932486205E+01  0.79105914052E+01  0.51100000000E-03 0.  1.
        -12    1    3    3    0    0  0.10076582713E+00  0.84566319305E+00  0.93963832140E+01  0.94348989126E+01  0.00000000000E+00 0.  1.
</event>
<event>
 7    1  0.4452647E-009  0.4614232E+02  0.7816164E-02  0.1320468E+00
        -11   -1    0    0    0    0  0.00000000000E+00  0.00000000000E+00  0.45593999997E+02  0.45594000000E+02  0.51100000000E-03 0. -1.
         11   -1    0    0    0    0 -0.00000000000E+00 -0.00000000000E+00 -0.45593999997E+02  0.45594000000E+02  0.51100000000E-03 0.  1.
    9900012    2    1    2    0    0  0.34536549826E+02 -0.14115311454E+02  0.25240805413E+02  0.46142317085E+02  0.99999938387E+01 0.  0.
        -12    1    1    2    0    0 -0.34536549826E+02  0.14115311454E+02 -0.25240805413E+02  0.45045682915E+02  0.00000000000E+00 0.  1.
         11    1    3    3    0    0  0.25089628264E+02 -0.92350476463E+01  0.15902099533E+02  0.31107110462E+02  0.51100000000E-03 0. -1.
        -11    1    3    3    0    0  0.50466895344E+01 -0.53152431308E+01  0.52805871367E+01  0.90335754586E+01  0.51100000000E-03 0.  1.
         12    1    3    3    0    0  0.44002320277E+01  0.43497932271E+00  0.40581187432E+01  0.60016311652E+01  0.00000000000E+00 0. -1.
</event>
<event>
 7    1  0.4452647E-009  0.4614232E+02  0.7816164E-02  0.1320468E+00
        -11   -1    0    0    0    0  0.00000000000E+00  0.00000000000E+00  0.45593999997E+02  0.45594000000E+02  0.51100000000E-03 0. -1.
         11   -1    0    0    0    0 -0.00000000000E+00 -0.00000000000E+00 -0.45593999997E+02  0.45594000000E+02  0.51100000000E-03 0.  1.
    9900012    2    1    2    0    0  0.21466966988E+02  0.25473481507E+02  0.30321355926E+02  0.46142317000E+02  0.99999930571E+01 0.  0.
        -12    1    1    2    0    0 -0.21466966988E+02 -0.25473481507E+02 -0.30321355926E+02  0.45045683000E+02  0.00000000000E+00 0.  1.
         11    1    3    3    0    0  0.66816268536E+01  0.84949763282E+01  0.13161493605E+02  0.17030375052E+02  0.51100000000E-03 0. -1.
        -11    1    3    3    0    0  0.69740113220E+01  0.12652726334E+02  0.90377197083E+01  0.17041381851E+02  0.51100000000E-03 0.  1.
        -12    1    3    3    0    0  0.78113288123E+01  0.43257788448E+01  0.81221426130E+01  0.12070560097E+02  0.00000000000E+00 0.  1.
</event>
<event>
 7    1  0.4452647E-009  0.4614232E+02  0.7816164E-02  0.1320468E+00
        -11   -1    0    0    0    0  0.00000000000E+00  0.00000000000E+00  0.45593999997E+02  0.45594000000E+02  0.51100000000E-03 0. -1.
         11   -1    0    0    0    0 -0.00000000000E+00 -0.00000000000E+00 -0.45593999997E+02  0.45594000000E+02  0.51100000000E-03 0.  1.
    9900012    2    1    2    0    0  0.16849758666E+02  0.14688329192E+02 -0.39108209759E+02  0.46142318163E+02  0.10000003666E+02 0.  0.
         12    1    1    2    0    0 -0.16849758666E+02 -0.14688329192E+02  0.39108209759E+02  0.45045681837E+02  0.00000000000E+00 0. -1.
         11    1    3    3    0    0 -0.77431275122E+00  0.28146451998E+00 -0.24829989013E+01  0.26161166483E+01  0.51100000000E-03 0. -1.
        -11    1    3    3    0    0  0.16446794731E+02  0.12016089117E+02 -0.34707729832E+02  0.40243135625E+02  0.51100000000E-03 0.  1.
        -12    1    3    3    0    0  0.11772766860E+01  0.23907755553E+01 -0.19174810265E+01  0.32830658901E+01  0.00000000000E+00 0.  1.
</event>
<event>
 7    1  0.4452647E-009  0.4614231E+02  0.7816164E-02  0.1320468E+00
        -11   -1    0    0    0    0  0.00000000000E+00  0.00000000000E+00  0.45593999997E+02  0.45594000000E+02  0.51100000000E-03 0. -1.
         11   -1    0    0    0    0 -0.00000000000E+00 -0.00000000000E+00 -0.45593999997E+02  0.45594000000E+02  0.51100000000E-03 0.  1.
    9900012    2    1    2    0    0  0.19602575503E+02  0.12068080565E+02 -0.38719687782E+02  0.46142314781E+02  0.99999728269E+01 0.  0.
         12    1    1    2    0    0 -0.19602575503E+02 -0.12068080565E+02  0.38719687782E+02  0.45045685219E+02  0.00000000000E+00 0. -1.
         11    1    3    3    0    0  0.40218730584E+01  0.26723066580E+01 -0.50886483822E+01  0.70150572621E+01  0.51100000000E-03 0. -1.
        -11    1    3    3    0    0  0.12659785509E+02  0.80066484262E+01 -0.32347630281E+02  0.35647521278E+02  0.51100000000E-03 0.  1.
        -12    1    3    3    0    0  0.29209169353E+01  0.13891254810E+01 -0.12834091189E+01  0.34797362416E+01  0.00000000000E+00 0.  1.
</event>
<event>
 7    1  0.4452647E-009  0.4614232E+02  0.7816164E-02  0.1320468E+00
        -11   -1    0    0    0    0  0.00000000000E+00  0.00000000000E+00  0.45593999997E+02  0.45594000000E+02  0.51100000000E-03 0. -1.
         11   -1    0    0    0    0 -0.00000000000E+00 -0.00000000000E+00 -0.45593999997E+02  0.45594000000E+02  0.51100000000E-03 0.  1.
    9900012    2    1    2    0    0  0.26327852850E+02 -0.17756946354E+02 -0.31947588949E+02  0.46142318529E+02  0.10000007003E+02 0.  0.
         12    1    1    2    0    0 -0.26327852850E+02  0.17756946354E+02  0.31947588949E+02  0.45045681471E+02  0.00000000000E+00 0. -1.
         11    1    3    3    0    0  0.19473579249E+02 -0.86962022729E+01 -0.19693343544E+02  0.29028813323E+02  0.51100000000E-03 0. -1.
        -11    1    3    3    0    0  0.27846574877E+01 -0.65719422814E+01 -0.66683885627E+01  0.97679142583E+01  0.51100000000E-03 0.  1.
         12    1    3    3    0    0  0.40696161135E+01 -0.24888017997E+01 -0.55858568426E+01  0.73455909480E+01  0.00000000000E+00 0. -1.
</event>
<event>
 7    1  0.4452647E-009  0.4614233E+02  0.7816164E-02  0.1320468E+00
        -11   -1    0    0    0    0  0.00000000000E+00  0.00000000000E+00  0.45593999997E+02  0.45594000000E+02  0.51100000000E-03 0. -1.
         11   -1    0    0    0    0 -0.00000000000E+00 -0.00000000000E+00 -0.45593999997E+02  0.45594000000E+02  0.51100000000E-03 0.  1.
    9900012    2    1    2    0    0 -0.17215582434E+02  0.64221508580E+01 -0.41127758093E+02  0.46142325558E+02  0.10000071100E+02 0.  0.
         12    1    1    2    0    0  0.17215582434E+02 -0.64221508580E+01  0.41127758093E+02  0.45045674442E+02  0.00000000000E+00 0. -1.
         11    1    3    3    0    0 -0.13350559729E+02  0.31091982431E+01 -0.19473905503E+02  0.23814650000E+02  0.51100000000E-03 0. -1.
        -11    1    3    3    0    0 -0.86857093403E+00  0.17389403148E+01 -0.58172551613E+01  0.61334155867E+01  0.51100000000E-03 0.  1.
         12    1    3    3    0    0 -0.29964517706E+01  0.15740123001E+01 -0.15836597428E+02  0.16194259972E+02  0.00000000000E+00 0. -1.
</event>
<event>
 7    1  0.4452647E-009  0.4614232E+02  0.7816164E-02  0.1320468E+00
        -11   -1    0    0    0    0  0.00000000000E+00  0.00000000000E+00  0.45593999997E+02  0.45594000000E+02  0.51100000000E-03 0. -1.
         11   -1    0    0    0    0 -0.00000000000E+00 -0.00000000000E+00 -0.45593999997E+02  0.45594000000E+02  0.51100000000E-03 0.  1.
    9900012    2    1    2    0    0  0.35516189991E+02  0.70150988503E+01  0.26804889957E+02  0.46142317754E+02  0.99999999377E+01 0.  0.
        -12    1    1    2    0    0 -0.35516189991E+02 -0.70150988503E+01 -0.26804889957E+02  0.45045682246E+02  0.00000000000E+00 0.  1.
         11    1    3    3    0    0  0.40160821993E+01  0.18074741952E+00  0.38736377244E+01  0.55827103939E+01  0.51100000000E-03 0. -1.
        -11    1    3    3    0    0  0.24980811289E+02  0.20199291717E+01  0.19517708959E+02  0.31765736411E+02  0.51100000000E-03 0.  1.
        -12    1    3    3    0    0  0.65192965033E+01  0.48144222590E+01  0.34135432742E+01  0.87938709492E+01  0.00000000000E+00 0.  1.
</event>
<event>
 7    1  0.4452647E-009  0.4614232E+02  0.7816164E-02  0.1320468E+00
        -11   -1    0    0    0    0  0.00000000000E+00  0.00000000000E+00  0.45593999997E+02  0.45594000000E+02  0.51100000000E-03 0. -1.
         11   -1    0    0    0    0 -0.00000000000E+00 -0.00000000000E+00 -0.45593999997E+02  0.45594000000E+02  0.51100000000E-03 0.  1.
    9900012    2    1    2    0    0  0.17453117686E+02 -0.11769946732E+02 -0.39824247259E+02  0.46142316158E+02  0.99999853857E+01 0.  0.
         12    1    1    2    0    0 -0.17453117686E+02  0.11769946732E+02  0.39824247259E+02  0.45045683842E+02  0.00000000000E+00 0. -1.
         11    1    3    3    0    0  0.17394916269E+01 -0.25803964955E+01 -0.60838871704E+01  0.68335906050E+01  0.51100000000E-03 0. -1.
        -11    1    3    3    0    0 -0.98775307675E-01  0.67781901743E+00  0.82871747429E-01  0.68997331067E+00  0.51100000000E-03 0.  1.
        -12    1    3    3    0    0  0.15812401367E+02 -0.98673692542E+01 -0.33823231836E+02  0.38618752243E+02  0.00000000000E+00 0.  1.
</event>
<event>
 7    1  0.4452647E-009  0.4614232E+02  0.7816164E-02  0.1320468E+00
        -11   -1    0    0    0    0  0.00000000000E+00  0.00000000000E+00  0.45593999997E+02  0.45594000000E+02  0.51100000000E-03 0. -1.
         11   -1    0    0    0    0 -0.00000000000E+00 -0.00000000000E+00 -0.45593999997E+02  0.45594000000E+02  0.51100000000E-03 0.  1.
    9900012    2    1    2    0    0 -0.35612582872E+02  0.18472217203E+02  0.20484984467E+02  0.46142318122E+02  0.10000003294E+02 0.  0.
        -12    1    1    2    0    0  0.35612582872E+02 -0.18472217203E+02 -0.20484984467E+02  0.45045681878E+02  0.00000000000E+00 0.  1.
         11    1    3    3    0    0 -0.82796425493E+01  0.54865341254E+01  0.49172393466E+01  0.11083040219E+02  0.51100000000E-03 0. -1.
        -11    1    3    3    0    0 -0.26045698599E+02  0.12464699794E+02  0.16620661064E+02  0.33316565413E+02  0.51100000000E-03 0.  1.
        -12    1    3    3    0    0 -0.12872417238E+01  0.52098328364E+00 -0.10529159438E+01  0.17427124898E+01  0.00000000000E+00 0.  1.
</event>
<event>
 7    1  0.4452647E-009  0.4614232E+02  0.7816164E-02  0.1320468E+00
        -11   -1    0    0    0    0  0.00000000000E+00  0.00000000000E+00  0.45593999997E+02  0.45594000000E+02  0.51100000000E-03 0. -1.
         11   -1    0    0    0    0 -0.00000000000E+00 -0.00000000000E+00 -0.45593999997E+02  0.45594000000E+02  0.51100000000E-03 0.  1.
    9900012    2    1    2    0    0  0.54869812112E+01 -0.19664718441E+02 -0.40153520919E+02  0.46142319226E+02  0.10000013360E+02 0.  0.
         12    1    1    2    0    0 -0.54869812112E+01  0.19664718441E+02  0.40153520919E+02  0.45045680774E+02  0.00000000000E+00 0. -1.
         11    1    3    3    0    0  0.13165249272E+01 -0.16655859082E+01 -0.13054666754E+02  0.13226176266E+02  0.51100000000E-03 0. -1.
        -11    1    3    3    0    0  0.28898138899E+01 -0.65959833941E+01 -0.99605331633E+01  0.12291063518E+02  0.51100000000E-03 0.  1.
         12    1    3    3    0    0  0.12806423941E+01 -0.11403149139E+02 -0.17138321002E+02  0.20625079442E+02  0.00000000000E+00 0. -1.
</event>
<event>
 7    1  0.4452647E-009  0.4614232E+02  0.7816164E-02  0.1320468E+00
        -11   -1    0    0    0    0  0.00000000000E+00  0.00000000000E+00  0.45593999997E+02  0.45594000000E+02  0.51100000000E-03 0.  1.
         11   -1    0    0    0    0 -0.00000000000E+00 -0.00000000000E+00 -0.45593999997E+02  0.45594000000E+02  0.51100000000E-03 0. -1.
    9900012    2    1    2    0    0 -0.21405024507E+02  0.36130993235E+02  0.16293853887E+02  0.46142318511E+02  0.10000006841E+02 0.  0.
        -12    1    1    2    0    0  0.21405024507E+02 -0.36130993235E+02 -0.16293853887E+02  0.45045681489E+02  0.00000000000E+00 0.  1.
         11    1    3    3    0    0 -0.37641075837E+01  0.53755780885E+01  0.56537791699E+01  0.86620185206E+01  0.51100000000E-03 0. -1.
        -11    1    3    3    0    0 -0.55377010403E+01  0.76745180451E+01  0.37946756032E+00  0.94714495157E+01  0.51100000000E-03 0.  1.
         12    1    3    3    0    0 -0.12103215883E+02  0.23080897101E+02  0.10260607157E+02  0.28008850475E+02  0.00000000000E+00 0. -1.
</event>
<event>
 7    1  0.4452647E-009  0.4614232E+02  0.7816164E-02  0.1320468E+00
        -11   -1    0    0    0    0  0.00000000000E+00  0.00000000000E+00  0.45593999997E+02  0.45594000000E+02  0.51100000000E-03 0. -1.
         11   -1    0    0    0    0 -0.00000000000E+00 -0.00000000000E+00 -0.45593999997E+02  0.45594000000E+02  0.51100000000E-03 0.  1.
    9900012    2    1    2    0    0  0.62645514595E+01  0.16066488559E+02  0.41614142614E+02  0.46142317353E+02  0.99999962786E+01 0.  0.
        -12    1    1    2    0    0 -0.62645514595E+01 -0.16066488559E+02 -0.41614142614E+02  0.45045682647E+02  0.00000000000E+00 0.  1.
         11    1    3    3    0    0  0.54298968523E+01  0.74086392764E+01  0.12871858673E+02  0.15813173676E+02  0.51100000000E-03 0. -1.
        -11    1    3    3    0    0 -0.15968406002E+01  0.18052476098E+01  0.72887070970E+01  0.76768528866E+01  0.51100000000E-03 0.  1.
        -12    1    3    3    0    0  0.24314952074E+01  0.68526016725E+01  0.21453576844E+02  0.22652290790E+02  0.00000000000E+00 0.  1.
</event>
<event>
 7    1  0.4452647E-009  0.4614232E+02  0.7816164E-02  0.1320468E+00
        -11   -1    0    0    0    0  0.00000000000E+00  0.00000000000E+00  0.45593999997E+02  0.45594000000E+02  0.51100000000E-03 0.  1.
         11   -1    0    0    0    0 -0.00000000000E+00 -0.00000000000E+00 -0.45593999997E+02  0.45594000000E+02  0.51100000000E-03 0. -1.
    9900012    2    1    2    0    0 -0.75362826333E+01 -0.44408096400E+02 -0.48873498569E+00  0.46142318257E+02  0.10000004526E+02 0.  0.
        -12    1    1    2    0    0  0.75362826333E+01  0.44408096400E+02  0.48873498569E+00  0.45045681743E+02  0.00000000000E+00 0.  1.
         11    1    3    3    0    0 -0.92264655942E+01 -0.29365183833E+02  0.10438209149E+01  0.30798234548E+02  0.51100000000E-03 0. -1.
        -11    1    3    3    0    0  0.81166444374E+00 -0.41938823086E+01  0.39595985748E+00  0.42900154379E+01  0.51100000000E-03 0.  1.
         12    1    3    3    0    0  0.87851851713E+00 -0.10849030258E+02 -0.19285157581E+01  0.11054068271E+02  0.00000000000E+00 0. -1.
</event>
<event>
 7    1  0.4452647E-009  0.4614232E+02  0.7816164E-02  0.1320468E+00
        -11   -1    0    0    0    0  0.00000000000E+00  0.00000000000E+00  0.45593999997E+02  0.45594000000E+02  0.51100000000E-03 0. -1.
         11   -1    0    0    0    0 -0.00000000000E+00 -0.00000000000E+00 -0.45593999997E+02  0.45594000000E+02  0.51100000000E-03 0.  1.
    9900012    2    1    2    0    0 -0.55941570752E+01 -0.34467120150E+02  0.28457629662E+02  0.46142315959E+02  0.99999835650E+01 0.  0.
        -12    1    1    2    0    0  0.55941570752E+01  0.34467120150E+02 -0.28457629662E+02  0.45045684041E+02  0.00000000000E+00 0.  1.
         11    1    3    3    0    0  0.13945811814E+01 -0.82537587830E+01  0.41601862097E+01  0.93475419378E+01  0.51100000000E-03 0. -1.
        -11    1    3    3    0    0 -0.41482626247E+01 -0.16650830627E+02  0.11899757760E+02  0.20882109050E+02  0.51100000000E-03 0.  1.
         12    1    3    3    0    0 -0.28404756318E+01 -0.95625307393E+01  0.12397685692E+02  0.15912664971E+02  0.00000000000E+00 0. -1.
</event>
<event>
 7    1  0.4452647E-009  0.4614232E+02  0.7816164E-02  0.1320468E+00
        -11   -1    0    0    0    0  0.00000000000E+00  0.00000000000E+00  0.45593999997E+02  0.45594000000E+02  0.51100000000E-03 0. -1.
         11   -1    0    0    0    0 -0.00000000000E+00 -0.00000000000E+00 -0.45593999997E+02  0.45594000000E+02  0.51100000000E-03 0.  1.
    9900012    2    1    2    0    0 -0.36943432580E+02  0.20981828232E+02 -0.14968604999E+02  0.46142318050E+02  0.10000002632E+02 0.  0.
         12    1    1    2    0    0  0.36943432580E+02 -0.20981828232E+02  0.14968604999E+02  0.45045681950E+02  0.00000000000E+00 0. -1.
         11    1    3    3    0    0 -0.63863228883E+01  0.97007715527E+00 -0.29937962475E+01  0.71196197899E+01  0.51100000000E-03 0. -1.
        -11    1    3    3    0    0 -0.23356145028E+02  0.15536294288E+02 -0.60979407641E+01  0.28706633948E+02  0.51100000000E-03 0.  1.
         12    1    3    3    0    0 -0.72009646635E+01  0.44754567892E+01 -0.58768679870E+01  0.10316064312E+02  0.00000000000E+00 0. -1.
</event>
<event>
 7    1  0.4452647E-009  0.4614232E+02  0.7816164E-02  0.1320468E+00
        -11   -1    0    0    0    0  0.00000000000E+00  0.00000000000E+00  0.45593999997E+02  0.45594000000E+02  0.51100000000E-03 0. -1.
         11   -1    0    0    0    0 -0.00000000000E+00 -0.00000000000E+00 -0.45593999997E+02  0.45594000000E+02  0.51100000000E-03 0.  1.
    9900012    2    1    2    0    0  0.24287586356E+02 -0.53724345706E+01  0.37554807960E+02  0.46142317575E+02  0.99999983043E+01 0.  0.
        -12    1    1    2    0    0 -0.24287586356E+02  0.53724345706E+01 -0.37554807960E+02  0.45045682425E+02  0.00000000000E+00 0.  1.
         11    1    3    3    0    0  0.12139752275E+02 -0.20113329093E+01  0.14426465486E+02  0.18961591496E+02  0.51100000000E-03 0. -1.
        -11    1    3    3    0    0  0.97496005320E+00 -0.29197452431E+01  0.55799300708E+01  0.63726822646E+01  0.51100000000E-03 0.  1.
         12    1    3    3    0    0  0.11172874028E+02 -0.44135641814E+00  0.17548412403E+02  0.20808043815E+02  0.00000000000E+00 0. -1.
</event>
<event>
 7    1  0.4452647E-009  0.4614232E+02  0.7816164E-02  0.1320468E+00
        -11   -1    0    0    0    0  0.00000000000E+00  0.00000000000E+00  0.45593999997E+02  0.45594000000E+02  0.51100000000E-03 0. -1.
         11   -1    0    0    0    0 -0.00000000000E+00 -0.00000000000E+00 -0.45593999997E+02  0.45594000000E+02  0.51100000000E-03 0.  1.
    9900012    2    1    2    0    0  0.35460771532E+02  0.82925453318E+01 -0.26511900113E+02  0.46142317928E+02  0.10000001520E+02 0.  0.
         12    1    1    2    0    0 -0.35460771532E+02 -0.82925453318E+01  0.26511900113E+02  0.45045682072E+02  0.00000000000E+00 0. -1.
         11    1    3    3    0    0  0.10068034735E+02  0.31534175132E+01 -0.50907741390E+01  0.11714322304E+02  0.51100000000E-03 0.  1.
        -11    1    3    3    0    0  0.11749310926E+02  0.12786553708E+01 -0.14328781404E+02  0.18574047582E+02  0.51100000000E-03 0. -1.
         12    1    3    3    0    0  0.13643425872E+02  0.38604724478E+01 -0.70923445702E+01  0.15853948043E+02  0.00000000000E+00 0. -1.
</event>
<event>
 7    1  0.4452647E-009  0.4614232E+02  0.7816164E-02  0.1320468E+00
        -11   -1    0    0    0    0  0.00000000000E+00  0.00000000000E+00  0.45593999997E+02  0.45594000000E+02  0.51100000000E-03 0. -1.
         11   -1    0    0    0    0 -0.00000000000E+00 -0.00000000000E+00 -0.45593999997E+02  0.45594000000E+02  0.51100000000E-03 0.  1.
    9900012    2    1    2    0    0 -0.12893749135E+02 -0.19542704367E+02 -0.38483078261E+02  0.46142319040E+02  0.10000011662E+02 0.  0.
         12    1    1    2    0    0  0.12893749135E+02  0.19542704367E+02  0.38483078261E+02  0.45045680960E+02  0.00000000000E+00 0. -1.
         11    1    3    3    0    0 -0.43053276180E+01 -0.11992328899E+02 -0.17512578732E+02  0.21657382400E+02  0.51100000000E-03 0. -1.
        -11    1    3    3    0    0 -0.57504397182E+01 -0.76727949969E+01 -0.17869764699E+02  0.20279739413E+02  0.51100000000E-03 0.  1.
         12    1    3    3    0    0 -0.28379817986E+01  0.12241952855E+00 -0.31007348298E+01  0.42051972266E+01  0.00000000000E+00 0. -1.
</event>
<event>
 7    1  0.4452647E-009  0.4614232E+02  0.7816164E-02  0.1320468E+00
        -11   -1    0    0    0    0  0.00000000000E+00  0.00000000000E+00  0.45593999997E+02  0.45594000000E+02  0.51100000000E-03 0. -1.
         11   -1    0    0    0    0 -0.00000000000E+00 -0.00000000000E+00 -0.45593999997E+02  0.45594000000E+02  0.51100000000E-03 0.  1.
    9900012    2    1    2    0    0 -0.11414144239E+02  0.27527392753E+02 -0.33779775050E+02  0.46142320486E+02  0.10000024844E+02 0.  0.
         12    1    1    2    0    0  0.11414144239E+02 -0.27527392753E+02  0.33779775050E+02  0.45045679514E+02  0.00000000000E+00 0. -1.
         11    1    3    3    0    0 -0.59376051123E+01  0.73764528622E+01 -0.10525742871E+02  0.14158335867E+02  0.51100000000E-03 0. -1.
        -11    1    3    3    0    0 -0.46377424042E+01  0.82055355758E+01 -0.67494265167E+01  0.11592852421E+02  0.51100000000E-03 0.  1.
        -12    1    3    3    0    0 -0.83879672247E+00  0.11945404315E+02 -0.16504605663E+02  0.20391132197E+02  0.00000000000E+00 0.  1.
</event>
<event>
 7    1  0.4452647E-009  0.4614232E+02  0.7816164E-02  0.1320468E+00
        -11   -1    0    0    0    0  0.00000000000E+00  0.00000000000E+00  0.45593999997E+02  0.45594000000E+02  0.51100000000E-03 0.  1.
         11   -1    0    0    0    0 -0.00000000000E+00 -0.00000000000E+00 -0.45593999997E+02  0.45594000000E+02  0.51100000000E-03 0. -1.
    9900012    2    1    2    0    0  0.40199513482E+01 -0.40876068636E+02 -0.18495957667E+02  0.46142318232E+02  0.10000004291E+02 0.  0.
         12    1    1    2    0    0 -0.40199513482E+01  0.40876068636E+02  0.18495957667E+02  0.45045681768E+02  0.00000000000E+00 0. -1.
         11    1    3    3    0    0  0.34275310612E+01 -0.19281073196E+02 -0.45515370096E+01  0.20105328701E+02  0.51100000000E-03 0. -1.
        -11    1    3    3    0    0 -0.10200465882E+01 -0.32630603886E+01 -0.10861967789E+01  0.35871829958E+01  0.51100000000E-03 0.  1.
         12    1    3    3    0    0  0.16124668752E+01 -0.18331935051E+02 -0.12858223879E+02  0.22449806535E+02  0.00000000000E+00 0. -1.
</event>
<event>
 7    1  0.4452647E-009  0.4614232E+02  0.7816164E-02  0.1320468E+00
        -11   -1    0    0    0    0  0.00000000000E+00  0.00000000000E+00  0.45593999997E+02  0.45594000000E+02  0.51100000000E-03 0. -1.
         11   -1    0    0    0    0 -0.00000000000E+00 -0.00000000000E+00 -0.45593999997E+02  0.45594000000E+02  0.51100000000E-03 0.  1.
    9900012    2    1    2    0    0  0.40578303552E+00  0.11890643083E+02  0.43446075237E+02  0.46142317562E+02  0.99999981830E+01 0.  0.
        -12    1    1    2    0    0 -0.40578303552E+00 -0.11890643083E+02 -0.43446075237E+02  0.45045682438E+02  0.00000000000E+00 0.  1.
         11    1    3    3    0    0  0.26596541075E+01  0.49775878467E+01  0.10738604885E+02  0.12131272641E+02  0.51100000000E-03 0. -1.
        -11    1    3    3    0    0 -0.32855991964E+01  0.60878850409E+01  0.31397398449E+02  0.32150492002E+02  0.51100000000E-03 0.  1.
        -12    1    3    3    0    0  0.10317281243E+01  0.82517019530E+00  0.13100719037E+01  0.18605529196E+01  0.00000000000E+00 0.  1.
</event>
<event>
 7    1  0.4452647E-009  0.4614232E+02  0.7816164E-02  0.1320468E+00
        -11   -1    0    0    0    0  0.00000000000E+00  0.00000000000E+00  0.45593999997E+02  0.45594000000E+02  0.51100000000E-03 0.  1.
         11   -1    0    0    0    0 -0.00000000000E+00 -0.00000000000E+00 -0.45593999997E+02  0.45594000000E+02  0.51100000000E-03 0. -1.
    9900012    2    1    2    0    0 -0.24232606319E+02 -0.36690961025E+02 -0.97809881331E+01  0.46142316979E+02  0.99999928712E+01 0.  0.
         12    1    1    2    0    0  0.24232606319E+02  0.36690961025E+02  0.97809881331E+01  0.45045683021E+02  0.00000000000E+00 0. -1.
         11    1    3    3    0    0 -0.86290661781E+01 -0.11958401560E+02 -0.54626382122E+01  0.15725920242E+02  0.51100000000E-03 0.  1.
        -11    1    3    3    0    0 -0.22778040616E+01 -0.94002008854E+00 -0.17566777899E+01  0.30262098785E+01  0.51100000000E-03 0. -1.
         12    1    3    3    0    0 -0.13325736080E+02 -0.23792539376E+02 -0.25616721310E+01  0.27390186858E+02  0.00000000000E+00 0. -1.
</event>
<event>
 7    1  0.4452647E-009  0.4614232E+02  0.7816164E-02  0.1320468E+00
        -11   -1    0    0    0    0  0.00000000000E+00  0.00000000000E+00  0.45593999997E+02  0.45594000000E+02  0.51100000000E-03 0. -1.
         11   -1    0    0    0    0 -0.00000000000E+00 -0.00000000000E+00 -0.45593999997E+02  0.45594000000E+02  0.51100000000E-03 0.  1.
    9900012    2    1    2    0    0  0.66419323740E+01 -0.87187810298E+01 -0.43691887948E+02  0.46142317845E+02  0.10000000769E+02 0.  0.
         12    1    1    2    0    0 -0.66419323740E+01  0.87187810298E+01  0.43691887948E+02  0.45045682155E+02  0.00000000000E+00 0. -1.
         11    1    3    3    0    0  0.29670936733E+01 -0.61611582951E+00 -0.59029113117E+01  0.66353301196E+01  0.51100000000E-03 0. -1.
        -11    1    3    3    0    0  0.42953240447E+01 -0.37130660143E+01 -0.11263620919E+02  0.12613715723E+02  0.51100000000E-03 0.  1.
        -12    1    3    3    0    0 -0.62048534408E+00 -0.43895991860E+01 -0.26525355718E+02  0.26893272003E+02  0.00000000000E+00 0.  1.
</event>
<event>
 7    1  0.4452647E-009  0.4614232E+02  0.7816164E-02  0.1320468E+00
        -11   -1    0    0    0    0  0.00000000000E+00  0.00000000000E+00  0.45593999997E+02  0.45594000000E+02  0.51100000000E-03 0. -1.
         11   -1    0    0    0    0 -0.00000000000E+00 -0.00000000000E+00 -0.45593999997E+02  0.45594000000E+02  0.51100000000E-03 0.  1.
    9900012    2    1    2    0    0 -0.43887784680E+01  0.31133219123E+02 -0.32257940920E+02  0.46142318055E+02  0.10000002683E+02 0.  0.
         12    1    1    2    0    0  0.43887784680E+01 -0.31133219123E+02  0.32257940920E+02  0.45045681945E+02  0.00000000000E+00 0. -1.
         11    1    3    3    0    0  0.20548053631E+01  0.72574002084E+01 -0.46231460102E+01  0.88467825879E+01  0.51100000000E-03 0. -1.
        -11    1    3    3    0    0 -0.22612109010E+01  0.91004665520E+01 -0.13411322643E+02  0.16364447485E+02  0.51100000000E-03 0.  1.
         12    1    3    3    0    0 -0.41823729300E+01  0.14775352363E+02 -0.14223472267E+02  0.20931087982E+02  0.00000000000E+00 0. -1.
</event>
<event>
 7    1  0.4452647E-009  0.4614232E+02  0.7816164E-02  0.1320468E+00
        -11   -1    0    0    0    0  0.00000000000E+00  0.00000000000E+00  0.45593999997E+02  0.45594000000E+02  0.51100000000E-03 0. -1.
         11   -1    0    0    0    0 -0.00000000000E+00 -0.00000000000E+00 -0.45593999997E+02  0.45594000000E+02  0.51100000000E-03 0.  1.
    9900012    2    1    2    0    0 -0.10111821677E+01 -0.44497866323E+02  0.69304344346E+01  0.46142317430E+02  0.99999969833E+01 0.  0.
        -12    1    1    2    0    0  0.10111821677E+01  0.44497866323E+02 -0.69304344346E+01  0.45045682570E+02  0.00000000000E+00 0.  1.
         11    1    3    3    0    0  0.13223468693E+01 -0.31485341970E+02  0.17866338304E+01  0.31563704170E+02  0.51100000000E-03 0. -1.
        -11    1    3    3    0    0 -0.36911166078E+00 -0.15086665956E+01  0.19231191059E+01  0.24719841568E+01  0.51100000000E-03 0.  1.
         12    1    3    3    0    0 -0.19644173762E+01 -0.11503857758E+02  0.32206814983E+01  0.12106629104E+02  0.00000000000E+00 0. -1.
</event>
<event>
 7    1  0.4452647E-009  0.4614231E+02  0.7816164E-02  0.1320468E+00
        -11   -1    0    0    0    0  0.00000000000E+00  0.00000000000E+00  0.45593999997E+02  0.45594000000E+02  0.51100000000E-03 0. -1.
         11   -1    0    0    0    0 -0.00000000000E+00 -0.00000000000E+00 -0.45593999997E+02  0.45594000000E+02  0.51100000000E-03 0.  1.
    9900012    2    1    2    0    0  0.26557594227E+02  0.52520531143E-01 -0.36384135052E+02  0.46142313714E+02  0.99999630926E+01 0.  0.
         12    1    1    2    0    0 -0.26557594227E+02 -0.52520531143E-01  0.36384135052E+02  0.45045686286E+02  0.00000000000E+00 0. -1.
         11    1    3    3    0    0  0.13591307339E+02 -0.41717104295E+01 -0.20370429766E+02  0.24841119383E+02  0.51100000000E-03 0. -1.
        -11    1    3    3    0    0  0.13115664164E+02  0.42128667855E+01 -0.15368349109E+02  0.20638678437E+02  0.51100000000E-03 0.  1.
        -12    1    3    3    0    0 -0.14937727574E+00  0.11364175123E-01 -0.64535617679E+00  0.66251589408E+00  0.00000000000E+00 0.  1.
</event>
<event>
 7    1  0.4452647E-009  0.4614232E+02  0.7816164E-02  0.1320468E+00
        -11   -1    0    0    0    0  0.00000000000E+00  0.00000000000E+00  0.45593999997E+02  0.45594000000E+02  0.51100000000E-03 0. -1.
         11   -1    0    0    0    0 -0.00000000000E+00 -0.00000000000E+00 -0.45593999997E+02  0.45594000000E+02  0.51100000000E-03 0.  1.
    9900012    2    1    2    0    0 -0.15657057495E+02 -0.10376572913E+02 -0.40942603281E+02  0.46142317874E+02  0.10000001026E+02 0.  0.
         12    1    1    2    0    0  0.15657057495E+02  0.10376572913E+02  0.40942603281E+02  0.45045682126E+02  0.00000000000E+00 0. -1.
         11    1    3    3    0    0 -0.38255646920E+01  0.12138970284E+01 -0.98180742986E+01  0.10606746646E+02  0.51100000000E-03 0. -1.
        -11    1    3    3    0    0 -0.27136476564E+01 -0.51257435692E+01 -0.83556697369E+01  0.10171251042E+02  0.51100000000E-03 0.  1.
        -12    1    3    3    0    0 -0.91178451469E+01 -0.64647263724E+01 -0.22768859245E+02  0.25364320186E+02  0.00000000000E+00 0.  1.
</event>
<event>
 7    1  0.4452647E-009  0.4614232E+02  0.7816164E-02  0.1320468E+00
        -11   -1    0    0    0    0  0.00000000000E+00  0.00000000000E+00  0.45593999997E+02  0.45594000000E+02  0.51100000000E-03 0.  1.
         11   -1    0    0    0    0 -0.00000000000E+00 -0.00000000000E+00 -0.45593999997E+02  0.45594000000E+02  0.51100000000E-03 0. -1.
    9900012    2    1    2    0    0  0.35149096449E+02 -0.26437222001E+02  0.97328199555E+01  0.46142317936E+02  0.10000001591E+02 0.  0.
        -12    1    1    2    0    0 -0.35149096449E+02  0.26437222001E+02 -0.97328199555E+01  0.45045682064E+02  0.00000000000E+00 0.  1.
         11    1    3    3    0    0  0.19853886478E+02 -0.10522672041E+02  0.49511646740E+01  0.23009073581E+02  0.51100000000E-03 0. -1.
        -11    1    3    3    0    0  0.31045248757E+00  0.28811877247E+00 -0.25740344754E+00  0.49563088082E+00  0.51100000000E-03 0.  1.
         12    1    3    3    0    0  0.14984757484E+02 -0.16202668732E+02  0.50390587290E+01  0.22637613474E+02  0.00000000000E+00 0. -1.
</event>
<event>
 7    1  0.4452647E-009  0.4614232E+02  0.7816164E-02  0.1320468E+00
        -11   -1    0    0    0    0  0.00000000000E+00  0.00000000000E+00  0.45593999997E+02  0.45594000000E+02  0.51100000000E-03 0. -1.
         11   -1    0    0    0    0 -0.00000000000E+00 -0.00000000000E+00 -0.45593999997E+02  0.45594000000E+02  0.51100000000E-03 0.  1.
    9900012    2    1    2    0    0  0.24353700413E+02 -0.73653736201E+01 -0.37172057304E+02  0.46142319890E+02  0.10000019409E+02 0.  0.
         12    1    1    2    0    0 -0.24353700413E+02  0.73653736201E+01  0.37172057304E+02  0.45045680110E+02  0.00000000000E+00 0. -1.
         11    1    3    3    0    0  0.79849925000E+01 -0.37723870964E+01 -0.20920297740E+02  0.22707925212E+02  0.51100000000E-03 0. -1.
        -11    1    3    3    0    0  0.40946235780E+01 -0.45595916873E+00 -0.51043959471E+01  0.65596264569E+01  0.51100000000E-03 0.  1.
         12    1    3    3    0    0  0.12274084335E+02 -0.31370273550E+01 -0.11147363617E+02  0.16874768221E+02  0.00000000000E+00 0. -1.
</event>
<event>
 7    1  0.4452647E-009  0.4614232E+02  0.7816164E-02  0.1320468E+00
        -11   -1    0    0    0    0  0.00000000000E+00  0.00000000000E+00  0.45593999997E+02  0.45594000000E+02  0.51100000000E-03 0. -1.
         11   -1    0    0    0    0 -0.00000000000E+00 -0.00000000000E+00 -0.45593999997E+02  0.45594000000E+02  0.51100000000E-03 0.  1.
    9900012    2    1    2    0    0  0.42019904287E+02 -0.11143670359E-01  0.16230865788E+02  0.46142317802E+02  0.10000000369E+02 0.  0.
        -12    1    1    2    0    0 -0.42019904287E+02  0.11143670359E-01 -0.16230865788E+02  0.45045682198E+02  0.00000000000E+00 0.  1.
         11    1    3    3    0    0  0.21202175759E+01  0.16458208372E+01  0.20288662638E+00  0.26916931551E+01  0.51100000000E-03 0. -1.
        -11    1    3    3    0    0  0.31988496385E+02 -0.91020596246E+00  0.15300369243E+02  0.35471025854E+02  0.51100000000E-03 0.  1.
         12    1    3    3    0    0  0.79111903258E+01 -0.74675854505E+00  0.72760991895E+00  0.79795987926E+01  0.00000000000E+00 0. -1.
</event>
<event>
 7    1  0.4452647E-009  0.4614232E+02  0.7816164E-02  0.1320468E+00
        -11   -1    0    0    0    0  0.00000000000E+00  0.00000000000E+00  0.45593999997E+02  0.45594000000E+02  0.51100000000E-03 0. -1.
         11   -1    0    0    0    0 -0.00000000000E+00 -0.00000000000E+00 -0.45593999997E+02  0.45594000000E+02  0.51100000000E-03 0.  1.
    9900012    2    1    2    0    0  0.24723668191E+02 -0.26265704963E+02 -0.26980855107E+02  0.46142316874E+02  0.99999919113E+01 0.  0.
         12    1    1    2    0    0 -0.24723668191E+02  0.26265704963E+02  0.26980855107E+02  0.45045683126E+02  0.00000000000E+00 0. -1.
         11    1    3    3    0    0  0.37997057956E+01 -0.52137452304E+01 -0.22384120317E+01  0.68287181920E+01  0.51100000000E-03 0. -1.
        -11    1    3    3    0    0  0.20167671834E+02 -0.21633893719E+02 -0.24205317853E+02  0.38218552527E+02  0.51100000000E-03 0.  1.
        -12    1    3    3    0    0  0.75629056112E+00  0.58193398648E+00 -0.53712522175E+00  0.10950461549E+01  0.00000000000E+00 0.  1.
</event>
<event>
 7    1  0.4452647E-009  0.4614232E+02  0.7816164E-02  0.1320468E+00
        -11   -1    0    0    0    0  0.00000000000E+00  0.00000000000E+00  0.45593999997E+02  0.45594000000E+02  0.51100000000E-03 0. -1.
         11   -1    0    0    0    0 -0.00000000000E+00 -0.00000000000E+00 -0.45593999997E+02  0.45594000000E+02  0.51100000000E-03 0.  1.
    9900012    2    1    2    0    0 -0.30051759055E+02  0.11813127297E+02  0.31407885864E+02  0.46142317706E+02  0.99999994993E+01 0.  0.
        -12    1    1    2    0    0  0.30051759055E+02 -0.11813127297E+02 -0.31407885864E+02  0.45045682294E+02  0.00000000000E+00 0.  1.
         11    1    3    3    0    0 -0.19902848328E+02  0.54475812680E+01  0.22599939515E+02  0.30603215184E+02  0.51100000000E-03 0. -1.
        -11    1    3    3    0    0 -0.40733972447E+01  0.31494826512E+01  0.12027551124E+01  0.52875728085E+01  0.51100000000E-03 0.  1.
         12    1    3    3    0    0 -0.60755134821E+01  0.32160633780E+01  0.76051912367E+01  0.10251529714E+02  0.00000000000E+00 0. -1.
</event>
<event>
 7    1  0.4452647E-009  0.4614232E+02  0.7816164E-02  0.1320468E+00
        -11   -1    0    0    0    0  0.00000000000E+00  0.00000000000E+00  0.45593999997E+02  0.45594000000E+02  0.51100000000E-03 0. -1.
         11   -1    0    0    0    0 -0.00000000000E+00 -0.00000000000E+00 -0.45593999997E+02  0.45594000000E+02  0.51100000000E-03 0.  1.
    9900012    2    1    2    0    0  0.30984009940E+02 -0.69938947486E+01 -0.31940415767E+02  0.46142316576E+02  0.99999891962E+01 0.  0.
         12    1    1    2    0    0 -0.30984009940E+02  0.69938947486E+01  0.31940415767E+02  0.45045683424E+02  0.00000000000E+00 0. -1.
         11    1    3    3    0    0  0.21859363521E+02 -0.45817080888E+01 -0.17929381536E+02  0.28640644983E+02  0.51100000000E-03 0. -1.
        -11    1    3    3    0    0  0.37372834960E+01 -0.31751249797E+01 -0.52133928327E+01  0.71573858115E+01  0.51100000000E-03 0.  1.
         12    1    3    3    0    0  0.53873629236E+01  0.76293831994E+00 -0.87976413989E+01  0.10344285782E+02  0.00000000000E+00 0. -1.
</event>
<event>
 7    1  0.4452647E-009  0.4614232E+02  0.7816164E-02  0.1320468E+00
        -11   -1    0    0    0    0  0.00000000000E+00  0.00000000000E+00  0.45593999997E+02  0.45594000000E+02  0.51100000000E-03 0. -1.
         11   -1    0    0    0    0 -0.00000000000E+00 -0.00000000000E+00 -0.45593999997E+02  0.45594000000E+02  0.51100000000E-03 0.  1.
    9900012    2    1    2    0    0 -0.14030138521E+02 -0.12518207184E+02 -0.40933645778E+02  0.46142315915E+02  0.99999831619E+01 0.  0.
         12    1    1    2    0    0  0.14030138521E+02  0.12518207184E+02  0.40933645778E+02  0.45045684085E+02  0.00000000000E+00 0. -1.
         11    1    3    3    0    0 -0.19865749760E+00 -0.32086117812E+01 -0.76342083821E+01  0.82834649903E+01  0.51100000000E-03 0. -1.
        -11    1    3    3    0    0 -0.60690992666E+01 -0.65714054511E+00 -0.84433988514E+01  0.10419058692E+02  0.51100000000E-03 0.  1.
        -12    1    3    3    0    0 -0.77623817567E+01 -0.86524548578E+01 -0.24856038545E+02  0.27439792232E+02  0.00000000000E+00 0.  1.
</event>
<event>
 7    1  0.4452647E-009  0.4614232E+02  0.7816164E-02  0.1320468E+00
        -11   -1    0    0    0    0  0.00000000000E+00  0.00000000000E+00  0.45593999997E+02  0.45594000000E+02  0.51100000000E-03 0. -1.
         11   -1    0    0    0    0 -0.00000000000E+00 -0.00000000000E+00 -0.45593999997E+02  0.45594000000E+02  0.51100000000E-03 0.  1.
    9900012    2    1    2    0    0  0.84247923690E+01 -0.91487217835E+01 -0.43294771944E+02  0.46142317472E+02  0.99999973598E+01 0.  0.
         12    1    1    2    0    0 -0.84247923690E+01  0.91487217835E+01  0.43294771944E+02  0.45045682528E+02  0.00000000000E+00 0. -1.
         11    1    3    3    0    0 -0.17458820908E+01 -0.19543426743E+01 -0.10038859265E+02  0.10375271330E+02  0.51100000000E-03 0. -1.
        -11    1    3    3    0    0  0.95977505515E+01 -0.55799767239E+01 -0.31043523264E+02  0.32968974700E+02  0.51100000000E-03 0.  1.
         12    1    3    3    0    0  0.57292390829E+00 -0.16144023852E+01 -0.22123894158E+01  0.27980714418E+01  0.00000000000E+00 0. -1.
</event>
<event>
 7    1  0.4452647E-009  0.4614232E+02  0.7816164E-02  0.1320468E+00
        -11   -1    0    0    0    0  0.00000000000E+00  0.00000000000E+00  0.45593999997E+02  0.45594000000E+02  0.51100000000E-03 0. -1.
         11   -1    0    0    0    0 -0.00000000000E+00 -0.00000000000E+00 -0.45593999997E+02  0.45594000000E+02  0.51100000000E-03 0.  1.
    9900012    2    1    2    0    0 -0.28884400253E+02  0.12898441238E+02  0.32069224923E+02  0.46142317061E+02  0.99999936122E+01 0.  0.
        -12    1    1    2    0    0  0.28884400253E+02 -0.12898441238E+02 -0.32069224923E+02  0.45045682939E+02  0.00000000000E+00 0.  1.
         11    1    3    3    0    0 -0.41892727503E+01  0.44399312665E+00  0.60709937199E+01  0.73894587813E+01  0.51100000000E-03 0. -1.
        -11    1    3    3    0    0 -0.17176523027E+02  0.11827440776E+02  0.16320385236E+02  0.26481621422E+02  0.51100000000E-03 0.  1.
        -12    1    3    3    0    0 -0.75186044754E+01  0.62700733534E+00  0.96778459668E+01  0.12271236858E+02  0.00000000000E+00 0.  1.
</event>
<event>
 7    1  0.4452647E-009  0.4614232E+02  0.7816164E-02  0.1320468E+00
        -11   -1    0    0    0    0  0.00000000000E+00  0.00000000000E+00  0.45593999997E+02  0.45594000000E+02  0.51100000000E-03 0. -1.
         11   -1    0    0    0    0 -0.00000000000E+00 -0.00000000000E+00 -0.45593999997E+02  0.45594000000E+02  0.51100000000E-03 0.  1.
    9900012    2    1    2    0    0  0.15462681717E+02  0.97439610522E+01 -0.41171278911E+02  0.46142317521E+02  0.99999978115E+01 0.  0.
         12    1    1    2    0    0 -0.15462681717E+02 -0.97439610522E+01  0.41171278911E+02  0.45045682479E+02  0.00000000000E+00 0. -1.
         11    1    3    3    0    0  0.13317795171E+02  0.33897894342E+01 -0.28480212349E+02  0.31622410349E+02  0.51100000000E-03 0. -1.
        -11    1    3    3    0    0  0.19261514801E+01  0.30209404126E+01 -0.79525369998E+01  0.87223268395E+01  0.51100000000E-03 0.  1.
         12    1    3    3    0    0  0.21873506591E+00  0.33332312055E+01 -0.47385295619E+01  0.57975803321E+01  0.00000000000E+00 0. -1.
</event>
<event>
 7    1  0.4452647E-009  0.4614232E+02  0.7816164E-02  0.1320468E+00
        -11   -1    0    0    0    0  0.00000000000E+00  0.00000000000E+00  0.45593999997E+02  0.45594000000E+02  0.51100000000E-03 0. -1.
         11   -1    0    0    0    0 -0.00000000000E+00 -0.00000000000E+00 -0.45593999997E+02  0.45594000000E+02  0.51100000000E-03 0.  1.
    9900012    2    1    2    0    0  0.83330091513E+01 -0.57915830705E+01  0.43887720263E+02  0.46142318010E+02  0.10000002274E+02 0.  0.
        -12    1    1    2    0    0 -0.83330091513E+01  0.57915830705E+01 -0.43887720263E+02  0.45045681990E+02  0.00000000000E+00 0.  1.
         11    1    3    3    0    0  0.67563456632E+01  0.97930398395E+00  0.16330955693E+02  0.17700490307E+02  0.51100000000E-03 0.  1.
        -11    1    3    3    0    0  0.96852674552E+00 -0.26127607054E+01  0.12704327080E+02  0.13006324976E+02  0.51100000000E-03 0. -1.
        -12    1    3    3    0    0  0.60813674254E+00 -0.41581263491E+01  0.14852437490E+02  0.15435502727E+02  0.00000000000E+00 0.  1.
</event>
<event>
 7    1  0.4452647E-009  0.4614232E+02  0.7816164E-02  0.1320468E+00
        -11   -1    0    0    0    0  0.00000000000E+00  0.00000000000E+00  0.45593999997E+02  0.45594000000E+02  0.51100000000E-03 0. -1.
         11   -1    0    0    0    0 -0.00000000000E+00 -0.00000000000E+00 -0.45593999997E+02  0.45594000000E+02  0.51100000000E-03 0.  1.
    9900012    2    1    2    0    0 -0.34423517981E+02 -0.21049620600E+02 -0.20026192185E+02  0.46142317731E+02  0.99999997267E+01 0.  0.
         12    1    1    2    0    0  0.34423517981E+02  0.21049620600E+02  0.20026192185E+02  0.45045682269E+02  0.00000000000E+00 0. -1.
         11    1    3    3    0    0 -0.14564285935E+02 -0.14469115956E+02 -0.87461410911E+01  0.22315212874E+02  0.51100000000E-03 0. -1.
        -11    1    3    3    0    0 -0.60336788452E+01 -0.20503263890E+01 -0.43227414896E+01  0.77003384962E+01  0.51100000000E-03 0.  1.
         12    1    3    3    0    0 -0.13825553201E+02 -0.45301782549E+01 -0.69573096045E+01  0.16126766361E+02  0.00000000000E+00 0. -1.
</event>
<event>
 7    1  0.4452647E-009  0.4614232E+02  0.7816164E-02  0.1320468E+00
        -11   -1    0    0    0    0  0.00000000000E+00  0.00000000000E+00  0.45593999997E+02  0.45594000000E+02  0.51100000000E-03 0. -1.
         11   -1    0    0    0    0 -0.00000000000E+00 -0.00000000000E+00 -0.45593999997E+02  0.45594000000E+02  0.51100000000E-03 0.  1.
    9900012    2    1    2    0    0  0.29205678330E+02  0.14173507391E+02 -0.31229050210E+02  0.46142317238E+02  0.99999952315E+01 0.  0.
         12    1    1    2    0    0 -0.29205678330E+02 -0.14173507391E+02  0.31229050210E+02  0.45045682762E+02  0.00000000000E+00 0. -1.
         11    1    3    3    0    0  0.10999145688E+02  0.55197913427E+01 -0.64884942208E+01  0.13912219803E+02  0.51100000000E-03 0. -1.
        -11    1    3    3    0    0  0.16197820580E+02  0.85552564176E+01 -0.20228794052E+02  0.27290399648E+02  0.51100000000E-03 0.  1.
         12    1    3    3    0    0  0.20087120619E+01  0.98459630632E-01 -0.45117619375E+01  0.49396977871E+01  0.00000000000E+00 0. -1.
</event>
<event>
 7    1  0.4452647E-009  0.4614232E+02  0.7816164E-02  0.1320468E+00
        -11   -1    0    0    0    0  0.00000000000E+00  0.00000000000E+00  0.45593999997E+02  0.45594000000E+02  0.51100000000E-03 0. -1.
         11   -1    0    0    0    0 -0.00000000000E+00 -0.00000000000E+00 -0.45593999997E+02  0.45594000000E+02  0.51100000000E-03 0.  1.
    9900012    2    1    2    0    0 -0.37345497211E+02  0.10221340508E+02 -0.23020676221E+02  0.46142317661E+02  0.99999990856E+01 0.  0.
         12    1    1    2    0    0  0.37345497211E+02 -0.10221340508E+02  0.23020676221E+02  0.45045682339E+02  0.00000000000E+00 0. -1.
         11    1    3    3    0    0 -0.16427547497E+02  0.20531848566E+01 -0.53405779087E+01  0.17395449333E+02  0.51100000000E-03 0. -1.
        -11    1    3    3    0    0 -0.17118573192E+02  0.57927457371E+01 -0.12961006178E+02  0.22239359989E+02  0.51100000000E-03 0.  1.
         12    1    3    3    0    0 -0.37993765222E+01  0.23754099143E+01 -0.47190921335E+01  0.65075083390E+01  0.00000000000E+00 0. -1.
</event>
<event>
 7    1  0.4452647E-009  0.4614232E+02  0.7816164E-02  0.1320468E+00
        -11   -1    0    0    0    0  0.00000000000E+00  0.00000000000E+00  0.45593999997E+02  0.45594000000E+02  0.51100000000E-03 0. -1.
         11   -1    0    0    0    0 -0.00000000000E+00 -0.00000000000E+00 -0.45593999997E+02  0.45594000000E+02  0.51100000000E-03 0.  1.
    9900012    2    1    2    0    0  0.34152438777E+02  0.13946239817E+02 -0.25850085108E+02  0.46142316749E+02  0.99999907671E+01 0.  0.
         12    1    1    2    0    0 -0.34152438777E+02 -0.13946239817E+02  0.25850085108E+02  0.45045683251E+02  0.00000000000E+00 0. -1.
         11    1    3    3    0    0  0.62353699124E-01  0.63424704270E+00 -0.38196205277E+00  0.74300239962E+00  0.51100000000E-03 0. -1.
        -11    1    3    3    0    0  0.15210323507E+02  0.10333182899E+02 -0.10997036758E+02  0.21425765510E+02  0.51100000000E-03 0.  1.
        -12    1    3    3    0    0  0.18879761572E+02  0.29788098757E+01 -0.14471086298E+02  0.23973548839E+02  0.00000000000E+00 0.  1.
</event>
<event>
 7    1  0.4452647E-009  0.4614232E+02  0.7816164E-02  0.1320468E+00
        -11   -1    0    0    0    0  0.00000000000E+00  0.00000000000E+00  0.45593999997E+02  0.45594000000E+02  0.51100000000E-03 0. -1.
         11   -1    0    0    0    0 -0.00000000000E+00 -0.00000000000E+00 -0.45593999997E+02  0.45594000000E+02  0.51100000000E-03 0.  1.
    9900012    2    1    2    0    0 -0.18156407286E+02  0.35804681821E+01 -0.41068706719E+02  0.46142317083E+02  0.99999938122E+01 0.  0.
         12    1    1    2    0    0  0.18156407286E+02 -0.35804681821E+01  0.41068706719E+02  0.45045682917E+02  0.00000000000E+00 0. -1.
         11    1    3    3    0    0 -0.12362640792E+02 -0.13323180791E+00 -0.19877694834E+02  0.23408874177E+02  0.51100000000E-03 0. -1.
        -11    1    3    3    0    0 -0.19840779553E+01  0.97630996037E+00 -0.13823073109E+02  0.13998824841E+02  0.51100000000E-03 0.  1.
         12    1    3    3    0    0 -0.38096885391E+01  0.27373900296E+01 -0.73679387750E+01  0.87346180644E+01  0.00000000000E+00 0. -1.
</event>
<event>
 7    1  0.4452647E-009  0.4614232E+02  0.7816164E-02  0.1320468E+00
        -11   -1    0    0    0    0  0.00000000000E+00  0.00000000000E+00  0.45593999997E+02  0.45594000000E+02  0.51100000000E-03 0. -1.
         11   -1    0    0    0    0 -0.00000000000E+00 -0.00000000000E+00 -0.45593999997E+02  0.45594000000E+02  0.51100000000E-03 0.  1.
    9900012    2    1    2    0    0  0.17366137508E+02  0.24153821930E+02  0.33824896648E+02  0.46142317865E+02  0.10000000944E+02 0.  0.
        -12    1    1    2    0    0 -0.17366137508E+02 -0.24153821930E+02 -0.33824896648E+02  0.45045682135E+02  0.00000000000E+00 0.  1.
         11    1    3    3    0    0  0.65541197042E+01  0.33091461190E+01  0.97585534165E+01  0.12212137330E+02  0.51100000000E-03 0. -1.
        -11    1    3    3    0    0  0.71663046263E+01  0.13820430137E+02  0.18868755737E+02  0.24462014522E+02  0.51100000000E-03 0.  1.
         12    1    3    3    0    0  0.36457131779E+01  0.70242456737E+01  0.51975874947E+01  0.94681660117E+01  0.00000000000E+00 0. -1.
</event>
<event>
 7    1  0.4452647E-009  0.4614232E+02  0.7816164E-02  0.1320468E+00
        -11   -1    0    0    0    0  0.00000000000E+00  0.00000000000E+00  0.45593999997E+02  0.45594000000E+02  0.51100000000E-03 0. -1.
         11   -1    0    0    0    0 -0.00000000000E+00 -0.00000000000E+00 -0.45593999997E+02  0.45594000000E+02  0.51100000000E-03 0.  1.
    9900012    2    1    2    0    0  0.23550975728E+02 -0.30546017265E+02 -0.23268128035E+02  0.46142318623E+02  0.10000007858E+02 0.  0.
         12    1    1    2    0    0 -0.23550975728E+02  0.30546017265E+02  0.23268128035E+02  0.45045681377E+02  0.00000000000E+00 0. -1.
         11    1    3    3    0    0  0.66276760990E+01 -0.63042693387E+01 -0.93056024472E+01  0.13048530168E+02  0.51100000000E-03 0. -1.
        -11    1    3    3    0    0  0.14449373637E+02 -0.19539961474E+02 -0.92859396237E+01  0.26015825335E+02  0.51100000000E-03 0.  1.
         12    1    3    3    0    0  0.24739259923E+01 -0.47017864521E+01 -0.46765859639E+01  0.70779631204E+01  0.00000000000E+00 0. -1.
</event>
<event>
 7    1  0.4452647E-009  0.4614232E+02  0.7816164E-02  0.1320468E+00
        -11   -1    0    0    0    0  0.00000000000E+00  0.00000000000E+00  0.45593999997E+02  0.45594000000E+02  0.51100000000E-03 0.  1.
         11   -1    0    0    0    0 -0.00000000000E+00 -0.00000000000E+00 -0.45593999997E+02  0.45594000000E+02  0.51100000000E-03 0. -1.
    9900012    2    1    2    0    0 -0.19540010566E+02  0.35774179481E+02 -0.19170539813E+02  0.46142317330E+02  0.99999960691E+01 0.  0.
         12    1    1    2    0    0  0.19540010566E+02 -0.35774179481E+02  0.19170539813E+02  0.45045682670E+02  0.00000000000E+00 0. -1.
         11    1    3    3    0    0 -0.14644660488E+02  0.20596338967E+02 -0.14380080754E+02  0.29076828961E+02  0.51100000000E-03 0. -1.
        -11    1    3    3    0    0  0.19877859904E+00 -0.12435469286E+00  0.20527057871E-01  0.23536916174E+00  0.51100000000E-03 0.  1.
         12    1    3    3    0    0 -0.50941286775E+01  0.15302195206E+02 -0.48109861174E+01  0.16830119208E+02  0.00000000000E+00 0. -1.
</event>
<event>
 7    1  0.4452647E-009  0.4614232E+02  0.7816164E-02  0.1320468E+00
        -11   -1    0    0    0    0  0.00000000000E+00  0.00000000000E+00  0.45593999997E+02  0.45594000000E+02  0.51100000000E-03 0. -1.
         11   -1    0    0    0    0 -0.00000000000E+00 -0.00000000000E+00 -0.45593999997E+02  0.45594000000E+02  0.51100000000E-03 0.  1.
    9900012    2    1    2    0    0 -0.36367322979E+02 -0.19743945844E+02 -0.17796289487E+02  0.46142317658E+02  0.99999990561E+01 0.  0.
        -12    1    1    2    0    0  0.36367322979E+02  0.19743945844E+02  0.17796289487E+02  0.45045682342E+02  0.00000000000E+00 0.  1.
         11    1    3    3    0    0 -0.51369563055E+01 -0.77273758915E+00 -0.19501476505E+01  0.55487403603E+01  0.51100000000E-03 0.  1.
        -11    1    3    3    0    0 -0.13176718572E+02 -0.83833297881E+01 -0.26209583164E+01  0.15835894462E+02  0.51100000000E-03 0. -1.
         12    1    3    3    0    0 -0.18053648102E+02 -0.10587878467E+02 -0.13225183520E+02  0.24757682835E+02  0.00000000000E+00 0. -1.
</event>
<event>
 7    1  0.4452647E-009  0.4614232E+02  0.7816164E-02  0.1320468E+00
        -11   -1    0    0    0    0  0.00000000000E+00  0.00000000000E+00  0.45593999997E+02  0.45594000000E+02  0.51100000000E-03 0. -1.
         11   -1    0    0    0    0 -0.00000000000E+00 -0.00000000000E+00 -0.45593999997E+02  0.45594000000E+02  0.51100000000E-03 0.  1.
    9900012    2    1    2    0    0 -0.34980116267E+02 -0.33295757456E+01 -0.28185437480E+02  0.46142317692E+02  0.99999993676E+01 0.  0.
         12    1    1    2    0    0  0.34980116267E+02  0.33295757456E+01  0.28185437480E+02  0.45045682308E+02  0.00000000000E+00 0. -1.
         11    1    3    3    0    0 -0.12412354181E+02 -0.45291744102E+01 -0.92427819601E+01  0.16124793821E+02  0.51100000000E-03 0. -1.
        -11    1    3    3    0    0 -0.20236529628E+02  0.24207693764E+01 -0.15121915575E+02  0.25378132057E+02  0.51100000000E-03 0.  1.
        -12    1    3    3    0    0 -0.23312324578E+01 -0.12211707117E+01 -0.38207399446E+01  0.46393918140E+01  0.00000000000E+00 0.  1.
</event>
<event>
 7    1  0.4452647E-009  0.4614232E+02  0.7816164E-02  0.1320468E+00
        -11   -1    0    0    0    0  0.00000000000E+00  0.00000000000E+00  0.45593999997E+02  0.45594000000E+02  0.51100000000E-03 0. -1.
         11   -1    0    0    0    0 -0.00000000000E+00 -0.00000000000E+00 -0.45593999997E+02  0.45594000000E+02  0.51100000000E-03 0.  1.
    9900012    2    1    2    0    0 -0.38376590931E+02  0.91680819196E+01  0.21732381999E+02  0.46142324459E+02  0.10000061075E+02 0.  0.
        -12    1    1    2    0    0  0.38376590931E+02 -0.91680819196E+01 -0.21732381999E+02  0.45045675541E+02  0.00000000000E+00 0.  1.
         11    1    3    3    0    0 -0.37731283776E+01  0.11788511119E+01 -0.55649655919E+00  0.39919765004E+01  0.51100000000E-03 0.  1.
        -11    1    3    3    0    0 -0.11726772962E+02  0.10086486565E+01  0.87511104914E+01  0.14666850764E+02  0.51100000000E-03 0. -1.
         12    1    3    3    0    0 -0.22876689591E+02  0.69805821511E+01  0.13537768067E+02  0.27483497195E+02  0.00000000000E+00 0. -1.
</event>
<event>
 7    1  0.4452647E-009  0.4614232E+02  0.7816164E-02  0.1320468E+00
        -11   -1    0    0    0    0  0.00000000000E+00  0.00000000000E+00  0.45593999997E+02  0.45594000000E+02  0.51100000000E-03 0.  1.
         11   -1    0    0    0    0 -0.00000000000E+00 -0.00000000000E+00 -0.45593999997E+02  0.45594000000E+02  0.51100000000E-03 0. -1.
    9900012    2    1    2    0    0  0.34486097514E+02  0.16814393165E+02  0.23602940504E+02  0.46142317191E+02  0.99999948054E+01 0.  0.
        -12    1    1    2    0    0 -0.34486097514E+02 -0.16814393165E+02 -0.23602940504E+02  0.45045682809E+02  0.00000000000E+00 0.  1.
         11    1    3    3    0    0  0.59616354773E+01  0.66386347503E+01  0.50139846122E+01  0.10234872294E+02  0.51100000000E-03 0. -1.
        -11    1    3    3    0    0  0.47529028456E+01  0.62826841995E+00  0.11882770342E+01  0.49393126281E+01  0.51100000000E-03 0.  1.
         12    1    3    3    0    0  0.23771559191E+02  0.95474899950E+01  0.17400678858E+02  0.30968132270E+02  0.00000000000E+00 0. -1.
</event>
<event>
 7    1  0.4452647E-009  0.4614232E+02  0.7816164E-02  0.1320468E+00
        -11   -1    0    0    0    0  0.00000000000E+00  0.00000000000E+00  0.45593999997E+02  0.45594000000E+02  0.51100000000E-03 0. -1.
         11   -1    0    0    0    0 -0.00000000000E+00 -0.00000000000E+00 -0.45593999997E+02  0.45594000000E+02  0.51100000000E-03 0.  1.
    9900012    2    1    2    0    0  0.10811612363E+02 -0.26814676353E+02 -0.34542664196E+02  0.46142317859E+02  0.10000000892E+02 0.  0.
         12    1    1    2    0    0 -0.10811612363E+02  0.26814676353E+02  0.34542664196E+02  0.45045682141E+02  0.00000000000E+00 0. -1.
         11    1    3    3    0    0  0.91380674646E+01 -0.11948896400E+02 -0.13826198098E+02  0.20431450175E+02  0.51100000000E-03 0. -1.
        -11    1    3    3    0    0  0.21725578688E+01 -0.83384523090E+01 -0.12929797208E+02  0.15538000216E+02  0.51100000000E-03 0.  1.
         12    1    3    3    0    0 -0.49901297038E+00 -0.65273276443E+01 -0.77866688896E+01  0.10172867468E+02  0.00000000000E+00 0. -1.
</event>
<event>
 7    1  0.4452647E-009  0.4614232E+02  0.7816164E-02  0.1320468E+00
        -11   -1    0    0    0    0  0.00000000000E+00  0.00000000000E+00  0.45593999997E+02  0.45594000000E+02  0.51100000000E-03 0.  1.
         11   -1    0    0    0    0 -0.00000000000E+00 -0.00000000000E+00 -0.45593999997E+02  0.45594000000E+02  0.51100000000E-03 0. -1.
    9900012    2    1    2    0    0 -0.38157114525E+02  0.16762827482E+02 -0.17092563702E+02  0.46142317544E+02  0.99999980185E+01 0.  0.
         12    1    1    2    0    0  0.38157114525E+02 -0.16762827482E+02  0.17092563702E+02  0.45045682456E+02  0.00000000000E+00 0. -1.
         11    1    3    3    0    0 -0.79331852800E+01  0.66660083253E+01 -0.34805299836E+01  0.10930927907E+02  0.51100000000E-03 0. -1.
        -11    1    3    3    0    0 -0.19582645309E+02  0.50252259451E+01 -0.56688157299E+01  0.20996865603E+02  0.51100000000E-03 0.  1.
        -12    1    3    3    0    0 -0.10641283936E+02  0.50715932115E+01 -0.79432179889E+01  0.14214524034E+02  0.00000000000E+00 0.  1.
</event>
<event>
 7    1  0.4452647E-009  0.4614232E+02  0.7816164E-02  0.1320468E+00
        -11   -1    0    0    0    0  0.00000000000E+00  0.00000000000E+00  0.45593999997E+02  0.45594000000E+02  0.51100000000E-03 0. -1.
         11   -1    0    0    0    0 -0.00000000000E+00 -0.00000000000E+00 -0.45593999997E+02  0.45594000000E+02  0.51100000000E-03 0.  1.
    9900012    2    1    2    0    0  0.33153526636E+02  0.17060554303E+02  0.25276367093E+02  0.46142316800E+02  0.99999912376E+01 0.  0.
        -12    1    1    2    0    0 -0.33153526636E+02 -0.17060554303E+02 -0.25276367093E+02  0.45045683200E+02  0.00000000000E+00 0.  1.
         11    1    3    3    0    0  0.73773630941E+01  0.19676552097E+01  0.23338398815E+01  0.79839815944E+01  0.51100000000E-03 0. -1.
        -11    1    3    3    0    0  0.98570027165E+01  0.59552528942E+01  0.52220450467E+01  0.12644971108E+02  0.51100000000E-03 0.  1.
         12    1    3    3    0    0  0.15919160825E+02  0.91376461986E+01  0.17720482165E+02  0.25513364098E+02  0.00000000000E+00 0. -1.
</event>
<event>
 7    1  0.4452647E-009  0.4614232E+02  0.7816164E-02  0.1320468E+00
        -11   -1    0    0    0    0  0.00000000000E+00  0.00000000000E+00  0.45593999997E+02  0.45594000000E+02  0.51100000000E-03 0. -1.
         11   -1    0    0    0    0 -0.00000000000E+00 -0.00000000000E+00 -0.45593999997E+02  0.45594000000E+02  0.51100000000E-03 0.  1.
    9900012    2    1    2    0    0 -0.39934810423E+02 -0.13236823920E+02  0.16096922745E+02  0.46142317489E+02  0.99999975224E+01 0.  0.
        -12    1    1    2    0    0  0.39934810423E+02  0.13236823920E+02 -0.16096922745E+02  0.45045682511E+02  0.00000000000E+00 0.  1.
         11    1    3    3    0    0 -0.72475992945E+01 -0.22770028923E+01  0.12585954806E+01  0.77004221020E+01  0.51100000000E-03 0. -1.
        -11    1    3    3    0    0 -0.28435743388E+02 -0.91780889462E+01  0.15697737518E+02  0.33752744810E+02  0.51100000000E-03 0.  1.
        -12    1    3    3    0    0 -0.42514677399E+01 -0.17817320812E+01 -0.85941025383E+00  0.46891505774E+01  0.00000000000E+00 0.  1.
</event>
<event>
 7    1  0.4452647E-009  0.4614232E+02  0.7816164E-02  0.1320468E+00
        -11   -1    0    0    0    0  0.00000000000E+00  0.00000000000E+00  0.45593999997E+02  0.45594000000E+02  0.51100000000E-03 0. -1.
         11   -1    0    0    0    0 -0.00000000000E+00 -0.00000000000E+00 -0.45593999997E+02  0.45594000000E+02  0.51100000000E-03 0.  1.
    9900012    2    1    2    0    0 -0.28050620049E+02 -0.20275233747E+02  0.28830385845E+02  0.46142317226E+02  0.99999951187E+01 0.  0.
        -12    1    1    2    0    0  0.28050620049E+02  0.20275233747E+02 -0.28830385845E+02  0.45045682774E+02  0.00000000000E+00 0.  1.
         11    1    3    3    0    0 -0.18036389010E+02 -0.12613353994E+02  0.16252852697E+02  0.27359883929E+02  0.51100000000E-03 0. -1.
        -11    1    3    3    0    0 -0.60289888764E+01 -0.64995263270E+01  0.11449792740E+02  0.14480687256E+02  0.51100000000E-03 0.  1.
        -12    1    3    3    0    0 -0.39852421623E+01 -0.11623534254E+01  0.11277404073E+01  0.43017460414E+01  0.00000000000E+00 0.  1.
</event>
<event>
 7    1  0.4452647E-009  0.4614232E+02  0.7816164E-02  0.1320468E+00
        -11   -1    0    0    0    0  0.00000000000E+00  0.00000000000E+00  0.45593999997E+02  0.45594000000E+02  0.51100000000E-03 0. -1.
         11   -1    0    0    0    0 -0.00000000000E+00 -0.00000000000E+00 -0.45593999997E+02  0.45594000000E+02  0.51100000000E-03 0.  1.
    9900012    2    1    2    0    0 -0.22157429554E+02 -0.29365591501E+02 -0.25996612286E+02  0.46142317643E+02  0.99999989226E+01 0.  0.
         12    1    1    2    0    0  0.22157429554E+02  0.29365591501E+02  0.25996612286E+02  0.45045682357E+02  0.00000000000E+00 0. -1.
         11    1    3    3    0    0 -0.11649226723E+01 -0.15537120614E+01  0.87616995079E+00  0.21304318919E+01  0.51100000000E-03 0. -1.
        -11    1    3    3    0    0 -0.55341993183E+01 -0.72796343992E+01 -0.75235918705E+01  0.11841658413E+02  0.51100000000E-03 0.  1.
         12    1    3    3    0    0 -0.15458307564E+02 -0.20532245040E+02 -0.19349190366E+02  0.32170227338E+02  0.00000000000E+00 0. -1.
</event>
<event>
 7    1  0.4452647E-009  0.4614232E+02  0.7816164E-02  0.1320468E+00
        -11   -1    0    0    0    0  0.00000000000E+00  0.00000000000E+00  0.45593999997E+02  0.45594000000E+02  0.51100000000E-03 0. -1.
         11   -1    0    0    0    0 -0.00000000000E+00 -0.00000000000E+00 -0.45593999997E+02  0.45594000000E+02  0.51100000000E-03 0.  1.
    9900012    2    1    2    0    0 -0.88521213764E+01  0.36433238849E+02 -0.24967431151E+02  0.46142316920E+02  0.99999923288E+01 0.  0.
         12    1    1    2    0    0  0.88521213764E+01 -0.36433238849E+02  0.24967431151E+02  0.45045683080E+02  0.00000000000E+00 0. -1.
         11    1    3    3    0    0 -0.15189288067E+01  0.74372580572E+01 -0.85307308306E+01  0.11418989487E+02  0.51100000000E-03 0. -1.
        -11    1    3    3    0    0 -0.80256130120E+01  0.23017672395E+02 -0.14672434348E+02  0.28451784420E+02  0.51100000000E-03 0.  1.
         12    1    3    3    0    0  0.69242044233E+00  0.59783083961E+01 -0.17642659730E+01  0.62715430136E+01  0.00000000000E+00 0. -1.
</event>
<event>
 7    1  0.4452647E-009  0.4614232E+02  0.7816164E-02  0.1320468E+00
        -11   -1    0    0    0    0  0.00000000000E+00  0.00000000000E+00  0.45593999997E+02  0.45594000000E+02  0.51100000000E-03 0. -1.
         11   -1    0    0    0    0 -0.00000000000E+00 -0.00000000000E+00 -0.45593999997E+02  0.45594000000E+02  0.51100000000E-03 0.  1.
    9900012    2    1    2    0    0 -0.41084105688E+02  0.32371463662E+01 -0.18186000186E+02  0.46142318081E+02  0.10000002919E+02 0.  0.
         12    1    1    2    0    0  0.41084105688E+02 -0.32371463662E+01  0.18186000186E+02  0.45045681919E+02  0.00000000000E+00 0. -1.
         11    1    3    3    0    0 -0.79975168515E+01  0.43208745074E+01 -0.54517679191E+01  0.10599622918E+02  0.51100000000E-03 0. -1.
        -11    1    3    3    0    0 -0.14762242105E+02  0.25466824089E+00 -0.66011271986E+01  0.16172925785E+02  0.51100000000E-03 0.  1.
         12    1    3    3    0    0 -0.18324346731E+02 -0.13383963820E+01 -0.61331050688E+01  0.19369769379E+02  0.00000000000E+00 0. -1.
</event>
<event>
 7    1  0.4452647E-009  0.4614232E+02  0.7816164E-02  0.1320468E+00
        -11   -1    0    0    0    0  0.00000000000E+00  0.00000000000E+00  0.45593999997E+02  0.45594000000E+02  0.51100000000E-03 0. -1.
         11   -1    0    0    0    0 -0.00000000000E+00 -0.00000000000E+00 -0.45593999997E+02  0.45594000000E+02  0.51100000000E-03 0.  1.
    9900012    2    1    2    0    0  0.21588703118E+01 -0.94142395880E+00  0.44984068531E+02  0.46142318501E+02  0.10000006751E+02 0.  0.
        -12    1    1    2    0    0 -0.21588703118E+01  0.94142395880E+00 -0.44984068531E+02  0.45045681499E+02  0.00000000000E+00 0.  1.
         11    1    3    3    0    0 -0.24191538407E+00  0.23937536830E+01  0.93252121686E+01  0.96305847173E+01  0.51100000000E-03 0. -1.
        -11    1    3    3    0    0  0.54295407400E+00 -0.51636710965E+01  0.25547889814E+02  0.26070154824E+02  0.51100000000E-03 0.  1.
         12    1    3    3    0    0  0.18578316219E+01  0.18284934548E+01  0.10110966548E+02  0.10441578960E+02  0.00000000000E+00 0. -1.
</event>
<event>
 7    1  0.4452647E-009  0.4614232E+02  0.7816164E-02  0.1320468E+00
        -11   -1    0    0    0    0  0.00000000000E+00  0.00000000000E+00  0.45593999997E+02  0.45594000000E+02  0.51100000000E-03 0. -1.
         11   -1    0    0    0    0 -0.00000000000E+00 -0.00000000000E+00 -0.45593999997E+02  0.45594000000E+02  0.51100000000E-03 0.  1.
    9900012    2    1    2    0    0 -0.90909050763E+01 -0.49327509573E+01 -0.43842181459E+02  0.46142318052E+02  0.10000002650E+02 0.  0.
         12    1    1    2    0    0  0.90909050763E+01  0.49327509573E+01  0.43842181459E+02  0.45045681948E+02  0.00000000000E+00 0. -1.
         11    1    3    3    0    0 -0.32624398982E+01 -0.40445481159E+01 -0.73737514564E+01  0.90207590786E+01  0.51100000000E-03 0. -1.
        -11    1    3    3    0    0 -0.49842495844E+01 -0.16427688533E+01 -0.34039513623E+02  0.34441688712E+02  0.51100000000E-03 0.  1.
         12    1    3    3    0    0 -0.84421559362E+00  0.75456601194E+00 -0.24289163799E+01  0.26798702609E+01  0.00000000000E+00 0. -1.
</event>
<event>
 7    1  0.4452647E-009  0.4614232E+02  0.7816164E-02  0.1320468E+00
        -11   -1    0    0    0    0  0.00000000000E+00  0.00000000000E+00  0.45593999997E+02  0.45594000000E+02  0.51100000000E-03 0. -1.
         11   -1    0    0    0    0 -0.00000000000E+00 -0.00000000000E+00 -0.45593999997E+02  0.45594000000E+02  0.51100000000E-03 0.  1.
    9900012    2    1    2    0    0  0.25128491530E+02 -0.65821280853E+01 -0.36801467418E+02  0.46142317622E+02  0.99999987353E+01 0.  0.
         12    1    1    2    0    0 -0.25128491530E+02  0.65821280853E+01  0.36801467418E+02  0.45045682378E+02  0.00000000000E+00 0. -1.
         11    1    3    3    0    0 -0.48031707752E-01 -0.53293629174E+00 -0.35654983729E+01  0.36054274427E+01  0.51100000000E-03 0. -1.
        -11    1    3    3    0    0  0.23401688614E+02 -0.44368295940E+01 -0.31836977752E+02  0.39760755016E+02  0.51100000000E-03 0.  1.
        -12    1    3    3    0    0  0.17748346245E+01 -0.16123621996E+01 -0.13989912931E+01  0.27761351633E+01  0.00000000000E+00 0.  1.
</event>
<event>
 7    1  0.4452647E-009  0.4614232E+02  0.7816164E-02  0.1320468E+00
        -11   -1    0    0    0    0  0.00000000000E+00  0.00000000000E+00  0.45593999997E+02  0.45594000000E+02  0.51100000000E-03 0. -1.
         11   -1    0    0    0    0 -0.00000000000E+00 -0.00000000000E+00 -0.45593999997E+02  0.45594000000E+02  0.51100000000E-03 0.  1.
    9900012    2    1    2    0    0 -0.15430882055E+02  0.53853110151E+01 -0.41976180975E+02  0.46142318021E+02  0.10000002371E+02 0.  0.
         12    1    1    2    0    0  0.15430882055E+02 -0.53853110151E+01  0.41976180975E+02  0.45045681979E+02  0.00000000000E+00 0. -1.
         11    1    3    3    0    0 -0.67394576439E+01 -0.57619202196E+00 -0.10462387408E+02  0.12458484543E+02  0.51100000000E-03 0. -1.
        -11    1    3    3    0    0  0.24940926825E+00  0.21614089379E+01 -0.61086932182E+01  0.64845991915E+01  0.51100000000E-03 0.  1.
        -12    1    3    3    0    0 -0.89408336792E+01  0.38000940992E+01 -0.25405100349E+02  0.27199234287E+02  0.00000000000E+00 0.  1.
</event>
<event>
 7    1  0.4452647E-009  0.4614232E+02  0.7816164E-02  0.1320468E+00
        -11   -1    0    0    0    0  0.00000000000E+00  0.00000000000E+00  0.45593999997E+02  0.45594000000E+02  0.51100000000E-03 0. -1.
         11   -1    0    0    0    0 -0.00000000000E+00 -0.00000000000E+00 -0.45593999997E+02  0.45594000000E+02  0.51100000000E-03 0.  1.
    9900012    2    1    2    0    0 -0.18156895259E+02  0.26804542512E+02 -0.31320235467E+02  0.46142317694E+02  0.99999993867E+01 0.  0.
         12    1    1    2    0    0  0.18156895259E+02 -0.26804542512E+02  0.31320235467E+02  0.45045682306E+02  0.00000000000E+00 0. -1.
         11    1    3    3    0    0 -0.94351830265E+01  0.16534390465E+02 -0.21375565928E+02  0.28623828637E+02  0.51100000000E-03 0. -1.
        -11    1    3    3    0    0 -0.84533693779E+01  0.82210026090E+01 -0.99851343261E+01  0.15451448007E+02  0.51100000000E-03 0.  1.
         12    1    3    3    0    0 -0.26834285469E+00  0.20491494376E+01  0.40464787379E-01  0.20670410504E+01  0.00000000000E+00 0. -1.
</event>
<event>
 7    1  0.5240349E-009  0.4614232E+02  0.7816164E-02  0.1320468E+00
        -11   -1    0    0    0    0  0.00000000000E+00  0.00000000000E+00  0.45593999997E+02  0.45594000000E+02  0.51100000000E-03 0. -1.
         11   -1    0    0    0    0 -0.00000000000E+00 -0.00000000000E+00 -0.45593999997E+02  0.45594000000E+02  0.51100000000E-03 0.  1.
    9900012    2    1    2    0    0  0.67151768191E+01 -0.29914931270E+02  0.33001762715E+02  0.46142322573E+02  0.10000043875E+02 0.  0.
        -12    1    1    2    0    0 -0.67151768191E+01  0.29914931270E+02 -0.33001762715E+02  0.45045677427E+02  0.00000000000E+00 0.  1.
         11    1    3    3    0    0  0.27505301239E+01 -0.20013124561E+02  0.27522006847E+02  0.34140173283E+02  0.51100000000E-03 0. -1.
        -11    1    3    3    0    0  0.22705093508E+01 -0.56746296632E+01  0.28558733916E+01  0.67463062202E+01  0.51100000000E-03 0.  1.
         12    1    3    3    0    0  0.16941373444E+01 -0.42271770458E+01  0.26238824760E+01  0.52558430691E+01  0.00000000000E+00 0. -1.
</event>
<event>
 7    1  0.4452647E-009  0.4614232E+02  0.7816164E-02  0.1320468E+00
        -11   -1    0    0    0    0  0.00000000000E+00  0.00000000000E+00  0.45593999997E+02  0.45594000000E+02  0.51100000000E-03 0.  1.
         11   -1    0    0    0    0 -0.00000000000E+00 -0.00000000000E+00 -0.45593999997E+02  0.45594000000E+02  0.51100000000E-03 0. -1.
    9900012    2    1    2    0    0 -0.36852537459E+02  0.22699187180E+02 -0.12480019064E+02  0.46142317725E+02  0.99999996692E+01 0.  0.
         12    1    1    2    0    0  0.36852537459E+02 -0.22699187180E+02  0.12480019064E+02  0.45045682275E+02  0.00000000000E+00 0. -1.
         11    1    3    3    0    0  0.11845047257E+00 -0.20154402358E+00  0.30163448026E+00  0.38162039869E+00  0.51100000000E-03 0. -1.
        -11    1    3    3    0    0 -0.31199421369E+02  0.17033322997E+02 -0.11890624720E+02  0.37482328404E+02  0.51100000000E-03 0.  1.
        -12    1    3    3    0    0 -0.57715665624E+01  0.58674082064E+01 -0.89102882421E+00  0.82783689221E+01  0.00000000000E+00 0.  1.
</event>
<event>
 7    1  0.4452647E-009  0.4614232E+02  0.7816164E-02  0.1320468E+00
        -11   -1    0    0    0    0  0.00000000000E+00  0.00000000000E+00  0.45593999997E+02  0.45594000000E+02  0.51100000000E-03 0. -1.
         11   -1    0    0    0    0 -0.00000000000E+00 -0.00000000000E+00 -0.45593999997E+02  0.45594000000E+02  0.51100000000E-03 0.  1.
    9900012    2    1    2    0    0  0.31651651296E+02 -0.36703486422E+01  0.31840460713E+02  0.46142318439E+02  0.10000006178E+02 0.  0.
        -12    1    1    2    0    0 -0.31651651296E+02  0.36703486422E+01 -0.31840460713E+02  0.45045681561E+02  0.00000000000E+00 0.  1.
         11    1    3    3    0    0  0.10513842951E+02 -0.33102687009E+01  0.10472495115E+02  0.15204339074E+02  0.51100000000E-03 0. -1.
        -11    1    3    3    0    0  0.19260176575E+02  0.14207233510E+01  0.16399882316E+02  0.25336317744E+02  0.51100000000E-03 0.  1.
        -12    1    3    3    0    0  0.18776317695E+01 -0.17808032924E+01  0.49680832815E+01  0.56016616214E+01  0.00000000000E+00 0.  1.
</event>
<event>
 7    1  0.4452647E-009  0.4614232E+02  0.7816164E-02  0.1320468E+00
        -11   -1    0    0    0    0  0.00000000000E+00  0.00000000000E+00  0.45593999997E+02  0.45594000000E+02  0.51100000000E-03 0. -1.
         11   -1    0    0    0    0 -0.00000000000E+00 -0.00000000000E+00 -0.45593999997E+02  0.45594000000E+02  0.51100000000E-03 0.  1.
    9900012    2    1    2    0    0  0.28718156515E+02 -0.43920626209E+01  0.34425146750E+02  0.46142318116E+02  0.10000003235E+02 0.  0.
        -12    1    1    2    0    0 -0.28718156515E+02  0.43920626209E+01 -0.34425146750E+02  0.45045681884E+02  0.00000000000E+00 0.  1.
         11    1    3    3    0    0  0.11595445533E+02 -0.85894359846E+00  0.80975447861E+01  0.14169063944E+02  0.51100000000E-03 0. -1.
        -11    1    3    3    0    0  0.57346660961E+01 -0.33220275340E+01  0.79242263364E+01  0.10330325525E+02  0.51100000000E-03 0.  1.
         12    1    3    3    0    0  0.11388044885E+02 -0.21109148841E+00  0.18403375627E+02  0.21642928646E+02  0.00000000000E+00 0. -1.
</event>
<event>
 7    1  0.4452647E-009  0.4614232E+02  0.7816164E-02  0.1320468E+00
        -11   -1    0    0    0    0  0.00000000000E+00  0.00000000000E+00  0.45593999997E+02  0.45594000000E+02  0.51100000000E-03 0. -1.
         11   -1    0    0    0    0 -0.00000000000E+00 -0.00000000000E+00 -0.45593999997E+02  0.45594000000E+02  0.51100000000E-03 0.  1.
    9900012    2    1    2    0    0  0.55115873473E+01  0.48543597253E+01 -0.44442899615E+02  0.46142315083E+02  0.99999755781E+01 0.  0.
         12    1    1    2    0    0 -0.55115873473E+01 -0.48543597253E+01  0.44442899615E+02  0.45045684917E+02  0.00000000000E+00 0. -1.
         11    1    3    3    0    0  0.37489400498E+01  0.23693413358E+01 -0.36785916610E+02  0.37052287257E+02  0.51100000000E-03 0.  1.
        -11    1    3    3    0    0 -0.74551367012E+00  0.21316560987E+01 -0.26722361659E+01  0.34986561338E+01  0.51100000000E-03 0. -1.
         12    1    3    3    0    0  0.25081609676E+01  0.35336229088E+00 -0.49847468397E+01  0.55913716925E+01  0.00000000000E+00 0. -1.
</event>
<event>
 7    1  0.4452647E-009  0.4614232E+02  0.7816164E-02  0.1320468E+00
        -11   -1    0    0    0    0  0.00000000000E+00  0.00000000000E+00  0.45593999997E+02  0.45594000000E+02  0.51100000000E-03 0. -1.
         11   -1    0    0    0    0 -0.00000000000E+00 -0.00000000000E+00 -0.45593999997E+02  0.45594000000E+02  0.51100000000E-03 0.  1.
    9900012    2    1    2    0    0  0.25769154251E+02 -0.34072056421E+02 -0.14288425976E+02  0.46142318116E+02  0.10000003236E+02 0.  0.
         12    1    1    2    0    0 -0.25769154251E+02  0.34072056421E+02  0.14288425976E+02  0.45045681884E+02  0.00000000000E+00 0. -1.
         11    1    3    3    0    0  0.16811825740E+02 -0.18034336812E+02 -0.86560549163E+01  0.26130481740E+02  0.51100000000E-03 0. -1.
        -11    1    3    3    0    0  0.55813846486E+01 -0.10697217466E+02 -0.63817100475E+01  0.13649488617E+02  0.51100000000E-03 0.  1.
         12    1    3    3    0    0  0.33759438617E+01 -0.53405021425E+01  0.74933898789E+00  0.63623477593E+01  0.00000000000E+00 0. -1.
</event>
<event>
 7    1  0.4452647E-009  0.4614232E+02  0.7816164E-02  0.1320468E+00
        -11   -1    0    0    0    0  0.00000000000E+00  0.00000000000E+00  0.45593999997E+02  0.45594000000E+02  0.51100000000E-03 0. -1.
         11   -1    0    0    0    0 -0.00000000000E+00 -0.00000000000E+00 -0.45593999997E+02  0.45594000000E+02  0.51100000000E-03 0.  1.
    9900012    2    1    2    0    0 -0.13845765799E+02  0.55662411990E+00 -0.42861385239E+02  0.46142318680E+02  0.10000008379E+02 0.  0.
         12    1    1    2    0    0  0.13845765799E+02 -0.55662411990E+00  0.42861385239E+02  0.45045681320E+02  0.00000000000E+00 0. -1.
         11    1    3    3    0    0 -0.23946429091E+01 -0.39464308404E+00 -0.12794166390E+01  0.27435314876E+01  0.51100000000E-03 0. -1.
        -11    1    3    3    0    0 -0.72125157300E+01  0.11356926144E+01 -0.17765309713E+02  0.19207196837E+02  0.51100000000E-03 0.  1.
         12    1    3    3    0    0 -0.42386071601E+01 -0.18442541050E+00 -0.23816658887E+02  0.24191590355E+02  0.00000000000E+00 0. -1.
</event>
<event>
 7    1  0.4452647E-009  0.4614232E+02  0.7816164E-02  0.1320468E+00
        -11   -1    0    0    0    0  0.00000000000E+00  0.00000000000E+00  0.45593999997E+02  0.45594000000E+02  0.51100000000E-03 0. -1.
         11   -1    0    0    0    0 -0.00000000000E+00 -0.00000000000E+00 -0.45593999997E+02  0.45594000000E+02  0.51100000000E-03 0.  1.
    9900012    2    1    2    0    0 -0.10726462038E+02  0.23583348254E+02 -0.36849452349E+02  0.46142318285E+02  0.10000004781E+02 0.  0.
         12    1    1    2    0    0  0.10726462038E+02 -0.23583348254E+02  0.36849452349E+02  0.45045681715E+02  0.00000000000E+00 0. -1.
         11    1    3    3    0    0  0.33374816431E+00  0.25644516668E+01 -0.63568161956E+01  0.68627190380E+01  0.51100000000E-03 0. -1.
        -11    1    3    3    0    0 -0.27981156639E+01  0.40552192805E+01 -0.11483149446E+02  0.12495478228E+02  0.51100000000E-03 0.  1.
         12    1    3    3    0    0 -0.82620945388E+01  0.16963677306E+02 -0.19009486708E+02  0.26784121020E+02  0.00000000000E+00 0. -1.
</event>
<event>
 7    1  0.4681359E-009  0.4614232E+02  0.7816164E-02  0.1320468E+00
        -11   -1    0    0    0    0  0.00000000000E+00  0.00000000000E+00  0.45593999997E+02  0.45594000000E+02  0.51100000000E-03 0. -1.
         11   -1    0    0    0    0 -0.00000000000E+00 -0.00000000000E+00 -0.45593999997E+02  0.45594000000E+02  0.51100000000E-03 0.  1.
    9900012    2    1    2    0    0 -0.10282473511E+02  0.21430715511E+02  0.38263672426E+02  0.46142318117E+02  0.10000003244E+02 0.  0.
        -12    1    1    2    0    0  0.10282473511E+02 -0.21430715511E+02 -0.38263672426E+02  0.45045681883E+02  0.00000000000E+00 0.  1.
         11    1    3    3    0    0 -0.41125337852E+01  0.14780877924E+02  0.30240334291E+02  0.33909660934E+02  0.51100000000E-03 0. -1.
        -11    1    3    3    0    0 -0.64368832713E+00  0.99197744205E+00  0.40133103354E+00  0.12487676996E+01  0.51100000000E-03 0.  1.
         12    1    3    3    0    0 -0.55262513986E+01  0.56578601447E+01  0.76220071008E+01  0.10983889483E+02  0.00000000000E+00 0. -1.
</event>
<event>
 7    1  0.4452647E-009  0.4614232E+02  0.7816164E-02  0.1320468E+00
        -11   -1    0    0    0    0  0.00000000000E+00  0.00000000000E+00  0.45593999997E+02  0.45594000000E+02  0.51100000000E-03 0. -1.
         11   -1    0    0    0    0 -0.00000000000E+00 -0.00000000000E+00 -0.45593999997E+02  0.45594000000E+02  0.51100000000E-03 0.  1.
    9900012    2    1    2    0    0 -0.16232421032E+02 -0.24053995154E+02  0.34453262817E+02  0.46142317697E+02  0.99999994153E+01 0.  0.
        -12    1    1    2    0    0  0.16232421032E+02  0.24053995154E+02 -0.34453262817E+02  0.45045682303E+02  0.00000000000E+00 0.  1.
         11    1    3    3    0    0 -0.12352587039E+02 -0.19055486717E+02  0.26287236574E+02  0.34737829344E+02  0.51100000000E-03 0. -1.
        -11    1    3    3    0    0 -0.17694497592E+01 -0.44628117994E+01  0.26709650767E+01  0.54937870644E+01  0.51100000000E-03 0.  1.
         12    1    3    3    0    0 -0.21103842344E+01 -0.53569663725E+00  0.54950611663E+01  0.59107012887E+01  0.00000000000E+00 0. -1.
</event>
<event>
 7    1  0.4452647E-009  0.4614232E+02  0.7816164E-02  0.1320468E+00
        -11   -1    0    0    0    0  0.00000000000E+00  0.00000000000E+00  0.45593999997E+02  0.45594000000E+02  0.51100000000E-03 0. -1.
         11   -1    0    0    0    0 -0.00000000000E+00 -0.00000000000E+00 -0.45593999997E+02  0.45594000000E+02  0.51100000000E-03 0.  1.
    9900012    2    1    2    0    0  0.21625418390E+01 -0.47425439054E+00 -0.44991244092E+02  0.46142317083E+02  0.99999938206E+01 0.  0.
         12    1    1    2    0    0 -0.21625418390E+01  0.47425439054E+00  0.44991244092E+02  0.45045682917E+02  0.00000000000E+00 0. -1.
         11    1    3    3    0    0  0.99749484929E+00 -0.32488920812E+01 -0.80662510083E+01  0.87529824243E+01  0.51100000000E-03 0. -1.
        -11    1    3    3    0    0 -0.15797453456E+01 -0.43413279778E+00 -0.11492364667E+02  0.11608553421E+02  0.51100000000E-03 0.  1.
         12    1    3    3    0    0  0.27447923353E+01  0.32087704885E+01 -0.25432628417E+02  0.25780781238E+02  0.00000000000E+00 0. -1.
</event>
<event>
 7    1  0.4452647E-009  0.4614232E+02  0.7816164E-02  0.1320468E+00
        -11   -1    0    0    0    0  0.00000000000E+00  0.00000000000E+00  0.45593999997E+02  0.45594000000E+02  0.51100000000E-03 0. -1.
         11   -1    0    0    0    0 -0.00000000000E+00 -0.00000000000E+00 -0.45593999997E+02  0.45594000000E+02  0.51100000000E-03 0.  1.
    9900012    2    1    2    0    0  0.31410222496E+02  0.23046337230E+02 -0.22613649963E+02  0.46142324274E+02  0.10000059390E+02 0.  0.
         12    1    1    2    0    0 -0.31410222496E+02 -0.23046337230E+02  0.22613649963E+02  0.45045675726E+02  0.00000000000E+00 0. -1.
         11    1    3    3    0    0  0.31901384127E+00  0.19631376325E+01 -0.73737388819E+00  0.21211788484E+01  0.51100000000E-03 0. -1.
        -11    1    3    3    0    0  0.26708589372E+02  0.16960932348E+02 -0.20917878026E+02  0.37928611809E+02  0.51100000000E-03 0.  1.
        -12    1    3    3    0    0  0.43826192830E+01  0.41222672495E+01 -0.95839804861E+00  0.60925336171E+01  0.00000000000E+00 0.  1.
</event>
<event>
 7    1  0.5574797E-009  0.4614232E+02  0.7816164E-02  0.1320468E+00
        -11   -1    0    0    0    0  0.00000000000E+00  0.00000000000E+00  0.45593999997E+02  0.45594000000E+02  0.51100000000E-03 0. -1.
         11   -1    0    0    0    0 -0.00000000000E+00 -0.00000000000E+00 -0.45593999997E+02  0.45594000000E+02  0.51100000000E-03 0.  1.
    9900012    2    1    2    0    0 -0.34171820784E+01  0.99043299857E+01  0.43810279330E+02  0.46142318067E+02  0.10000002789E+02 0.  0.
        -12    1    1    2    0    0  0.34171820784E+01 -0.99043299857E+01 -0.43810279330E+02  0.45045681933E+02  0.00000000000E+00 0.  1.
         11    1    3    3    0    0 -0.35926869253E+01  0.87591383530E+01  0.26483987390E+02  0.28125282085E+02  0.51100000000E-03 0. -1.
        -11    1    3    3    0    0  0.15194953531E+01  0.19605881401E+01  0.49035998553E+01  0.54952764976E+01  0.51100000000E-03 0.  1.
         12    1    3    3    0    0 -0.13439905063E+01 -0.81539650735E+00  0.12422692085E+02  0.12521759485E+02  0.00000000000E+00 0. -1.
</event>
<event>
 7    1  0.4452647E-009  0.4614232E+02  0.7816164E-02  0.1320468E+00
        -11   -1    0    0    0    0  0.00000000000E+00  0.00000000000E+00  0.45593999997E+02  0.45594000000E+02  0.51100000000E-03 0. -1.
         11   -1    0    0    0    0 -0.00000000000E+00 -0.00000000000E+00 -0.45593999997E+02  0.45594000000E+02  0.51100000000E-03 0.  1.
    9900012    2    1    2    0    0  0.16926049958E+02  0.26162705187E+02 -0.32528987316E+02  0.46142319566E+02  0.10000016462E+02 0.  0.
         12    1    1    2    0    0 -0.16926049958E+02 -0.26162705187E+02  0.32528987316E+02  0.45045680434E+02  0.00000000000E+00 0. -1.
         11    1    3    3    0    0  0.57149042622E+01  0.53288357036E+01 -0.67282447121E+01  0.10311444993E+02  0.51100000000E-03 0. -1.
        -11    1    3    3    0    0  0.93490286033E+01  0.11453292363E+02 -0.19099622953E+02  0.24153215914E+02  0.51100000000E-03 0.  1.
         12    1    3    3    0    0  0.18621170928E+01  0.93805771206E+01 -0.67011196514E+01  0.11677658659E+02  0.00000000000E+00 0. -1.
</event>
<event>
 7    1  0.4452647E-009  0.4614232E+02  0.7816164E-02  0.1320468E+00
        -11   -1    0    0    0    0  0.00000000000E+00  0.00000000000E+00  0.45593999997E+02  0.45594000000E+02  0.51100000000E-03 0. -1.
         11   -1    0    0    0    0 -0.00000000000E+00 -0.00000000000E+00 -0.45593999997E+02  0.45594000000E+02  0.51100000000E-03 0.  1.
    9900012    2    1    2    0    0 -0.21224889104E+02 -0.20556988701E+02  0.34000408605E+02  0.46142317774E+02  0.10000000115E+02 0.  0.
        -12    1    1    2    0    0  0.21224889104E+02  0.20556988701E+02 -0.34000408605E+02  0.45045682226E+02  0.00000000000E+00 0.  1.
         11    1    3    3    0    0 -0.12791796253E+02 -0.12961054050E+02  0.17210872840E+02  0.25056598285E+02  0.51100000000E-03 0. -1.
        -11    1    3    3    0    0 -0.62376322845E+01 -0.24368323623E+01  0.11859837372E+02  0.13619910103E+02  0.51100000000E-03 0.  1.
        -12    1    3    3    0    0 -0.21954605667E+01 -0.51591022887E+01  0.49296983933E+01  0.74658093851E+01  0.00000000000E+00 0.  1.
</event>
<event>
 7    1  0.4452647E-009  0.4614232E+02  0.7816164E-02  0.1320468E+00
        -11   -1    0    0    0    0  0.00000000000E+00  0.00000000000E+00  0.45593999997E+02  0.45594000000E+02  0.51100000000E-03 0. -1.
         11   -1    0    0    0    0 -0.00000000000E+00 -0.00000000000E+00 -0.45593999997E+02  0.45594000000E+02  0.51100000000E-03 0.  1.
    9900012    2    1    2    0    0  0.50078013771E+01 -0.12434738816E+02 -0.43004797635E+02  0.46142318479E+02  0.10000006548E+02 0.  0.
         12    1    1    2    0    0 -0.50078013771E+01  0.12434738816E+02  0.43004797635E+02  0.45045681521E+02  0.00000000000E+00 0. -1.
         11    1    3    3    0    0  0.40125113518E+00 -0.30305276308E+01 -0.39912103243E+01  0.50274108951E+01  0.51100000000E-03 0. -1.
        -11    1    3    3    0    0 -0.12100900162E+01 -0.21154139918E+01 -0.17477145529E+02  0.17646243519E+02  0.51100000000E-03 0.  1.
        -12    1    3    3    0    0  0.58166402581E+01 -0.72887971937E+01 -0.21536441781E+02  0.23468664065E+02  0.00000000000E+00 0.  1.
</event>
<event>
 7    1  0.4452647E-009  0.4614232E+02  0.7816164E-02  0.1320468E+00
        -11   -1    0    0    0    0  0.00000000000E+00  0.00000000000E+00  0.45593999997E+02  0.45594000000E+02  0.51100000000E-03 0. -1.
         11   -1    0    0    0    0 -0.00000000000E+00 -0.00000000000E+00 -0.45593999997E+02  0.45594000000E+02  0.51100000000E-03 0.  1.
    9900012    2    1    2    0    0  0.10122024340E+02  0.62910038442E+01 -0.43440550680E+02  0.46142317083E+02  0.99999938167E+01 0.  0.
         12    1    1    2    0    0 -0.10122024340E+02 -0.62910038442E+01  0.43440550680E+02  0.45045682917E+02  0.00000000000E+00 0. -1.
         11    1    3    3    0    0  0.43621257601E+01  0.43019163642E+01 -0.35212954855E+02  0.35741947561E+02  0.51100000000E-03 0. -1.
        -11    1    3    3    0    0  0.53887092426E+00  0.32047041758E+00 -0.16021398804E+00  0.64711045783E+00  0.51100000000E-03 0.  1.
         12    1    3    3    0    0  0.52210276555E+01  0.16686170624E+01 -0.80673818363E+01  0.97532590642E+01  0.00000000000E+00 0. -1.
</event>
<event>
 7    1  0.4452647E-009  0.4614232E+02  0.7816164E-02  0.1320468E+00
        -11   -1    0    0    0    0  0.00000000000E+00  0.00000000000E+00  0.45593999997E+02  0.45594000000E+02  0.51100000000E-03 0. -1.
         11   -1    0    0    0    0 -0.00000000000E+00 -0.00000000000E+00 -0.45593999997E+02  0.45594000000E+02  0.51100000000E-03 0.  1.
    9900012    2    1    2    0    0  0.23640837390E+02  0.38264932967E+02  0.24533982834E+01  0.46142318180E+02  0.10000003820E+02 0.  0.
         12    1    1    2    0    0 -0.23640837390E+02 -0.38264932967E+02 -0.24533982834E+01  0.45045681820E+02  0.00000000000E+00 0. -1.
         11    1    3    3    0    0  0.61378405065E+01  0.57882383996E+01  0.35801403646E+01  0.91648347036E+01  0.51100000000E-03 0.  1.
        -11    1    3    3    0    0  0.99166057781E+01  0.19137320562E+02 -0.17005107912E+01  0.21621004733E+02  0.51100000000E-03 0. -1.
        -12    1    3    3    0    0  0.75863911052E+01  0.13339374006E+02  0.57376871004E+00  0.15356478744E+02  0.00000000000E+00 0.  1.
</event>
<event>
 7    1  0.4452647E-009  0.4614232E+02  0.7816164E-02  0.1320468E+00
        -11   -1    0    0    0    0  0.00000000000E+00  0.00000000000E+00  0.45593999997E+02  0.45594000000E+02  0.51100000000E-03 0. -1.
         11   -1    0    0    0    0 -0.00000000000E+00 -0.00000000000E+00 -0.45593999997E+02  0.45594000000E+02  0.51100000000E-03 0.  1.
    9900012    2    1    2    0    0 -0.67488029502E+01  0.15712623386E+02 -0.41673499177E+02  0.46142318646E+02  0.10000008072E+02 0.  0.
         12    1    1    2    0    0  0.67488029502E+01 -0.15712623386E+02  0.41673499177E+02  0.45045681354E+02  0.00000000000E+00 0. -1.
         11    1    3    3    0    0  0.24280943058E+01  0.45854999942E+01 -0.11974969037E+02  0.13050759973E+02  0.51100000000E-03 0. -1.
        -11    1    3    3    0    0 -0.52194988742E+01  0.74883558856E+01 -0.20437000302E+02  0.22382797501E+02  0.51100000000E-03 0.  1.
        -12    1    3    3    0    0 -0.39573983817E+01  0.36387675060E+01 -0.92615298384E+01  0.10708761173E+02  0.00000000000E+00 0.  1.
</event>
<event>
 7    1  0.4452647E-009  0.4614232E+02  0.7816164E-02  0.1320468E+00
        -11   -1    0    0    0    0  0.00000000000E+00  0.00000000000E+00  0.45593999997E+02  0.45594000000E+02  0.51100000000E-03 0. -1.
         11   -1    0    0    0    0 -0.00000000000E+00 -0.00000000000E+00 -0.45593999997E+02  0.45594000000E+02  0.51100000000E-03 0.  1.
    9900012    2    1    2    0    0 -0.32625029871E+01  0.28841507942E+01  0.44834710555E+02  0.46142317387E+02  0.99999965888E+01 0.  0.
        -12    1    1    2    0    0  0.32625029871E+01 -0.28841507942E+01 -0.44834710555E+02  0.45045682613E+02  0.00000000000E+00 0.  1.
         11    1    3    3    0    0 -0.63645952029E+00  0.50315022006E+00  0.20657065400E+02  0.20672991851E+02  0.51100000000E-03 0. -1.
        -11    1    3    3    0    0 -0.43142448634E+01  0.22275834175E+01  0.22721899352E+02  0.23234877815E+02  0.51100000000E-03 0.  1.
        -12    1    3    3    0    0  0.16882013966E+01  0.15341715660E+00  0.14557458027E+01  0.22344477219E+01  0.00000000000E+00 0.  1.
</event>
<event>
 7    1  0.4452647E-009  0.4614232E+02  0.7816164E-02  0.1320468E+00
        -11   -1    0    0    0    0  0.00000000000E+00  0.00000000000E+00  0.45593999997E+02  0.45594000000E+02  0.51100000000E-03 0. -1.
         11   -1    0    0    0    0 -0.00000000000E+00 -0.00000000000E+00 -0.45593999997E+02  0.45594000000E+02  0.51100000000E-03 0.  1.
    9900012    2    1    2    0    0  0.30791780677E+02 -0.32673346112E+02 -0.36649875732E+01  0.46142318327E+02  0.10000005164E+02 0.  0.
         12    1    1    2    0    0 -0.30791780677E+02  0.32673346112E+02  0.36649875732E+01  0.45045681673E+02  0.00000000000E+00 0. -1.
         11    1    3    3    0    0  0.41892679757E+01 -0.55323944254E+01 -0.34401141700E+01  0.77454334943E+01  0.51100000000E-03 0. -1.
        -11    1    3    3    0    0  0.16769939637E+02 -0.20444580845E+02 -0.11257755086E+01  0.26466566307E+02  0.51100000000E-03 0.  1.
        -12    1    3    3    0    0  0.98325730647E+01 -0.66963708424E+01  0.90090210543E+00  0.11930318526E+02  0.00000000000E+00 0.  1.
</event>
<event>
 7    1  0.4452647E-009  0.4614232E+02  0.7816164E-02  0.1320468E+00
        -11   -1    0    0    0    0  0.00000000000E+00  0.00000000000E+00  0.45593999997E+02  0.45594000000E+02  0.51100000000E-03 0. -1.
         11   -1    0    0    0    0 -0.00000000000E+00 -0.00000000000E+00 -0.45593999997E+02  0.45594000000E+02  0.51100000000E-03 0.  1.
    9900012    2    1    2    0    0 -0.15935601853E+02  0.21603210257E+02 -0.36172799049E+02  0.46142317733E+02  0.99999997451E+01 0.  0.
         12    1    1    2    0    0  0.15935601853E+02 -0.21603210257E+02  0.36172799049E+02  0.45045682267E+02  0.00000000000E+00 0. -1.
         11    1    3    3    0    0  0.39255126164E+00  0.27482333833E+01 -0.49319639938E+01  0.56596070817E+01  0.51100000000E-03 0. -1.
        -11    1    3    3    0    0  0.22206394805E+00  0.15192321178E+01 -0.35016262162E+01  0.38234493646E+01  0.51100000000E-03 0.  1.
        -12    1    3    3    0    0 -0.16550217063E+02  0.17335744756E+02 -0.27739208839E+02  0.36659261287E+02  0.00000000000E+00 0.  1.
</event>
<event>
 7    1  0.4452647E-009  0.4614232E+02  0.7816164E-02  0.1320468E+00
        -11   -1    0    0    0    0  0.00000000000E+00  0.00000000000E+00  0.45593999997E+02  0.45594000000E+02  0.51100000000E-03 0. -1.
         11   -1    0    0    0    0 -0.00000000000E+00 -0.00000000000E+00 -0.45593999997E+02  0.45594000000E+02  0.51100000000E-03 0.  1.
    9900012    2    1    2    0    0  0.41508084672E+02  0.12530800489E+02 -0.12213562419E+02  0.46142321395E+02  0.10000033136E+02 0.  0.
         12    1    1    2    0    0 -0.41508084672E+02 -0.12530800489E+02  0.12213562419E+02  0.45045678605E+02  0.00000000000E+00 0. -1.
         11    1    3    3    0    0  0.34417811635E+01 -0.62171086114E+00 -0.94206858304E+00  0.36221368622E+01  0.51100000000E-03 0. -1.
        -11    1    3    3    0    0  0.33093360232E+02  0.13579959887E+02 -0.83362759708E+01  0.36729814856E+02  0.51100000000E-03 0.  1.
        -12    1    3    3    0    0  0.49729432762E+01 -0.42744853735E+00 -0.29352178652E+01  0.57903696771E+01  0.00000000000E+00 0.  1.
</event>
<event>
 7    1  0.4452647E-009  0.4614232E+02  0.7816164E-02  0.1320468E+00
        -11   -1    0    0    0    0  0.00000000000E+00  0.00000000000E+00  0.45593999997E+02  0.45594000000E+02  0.51100000000E-03 0. -1.
         11   -1    0    0    0    0 -0.00000000000E+00 -0.00000000000E+00 -0.45593999997E+02  0.45594000000E+02  0.51100000000E-03 0.  1.
    9900012    2    1    2    0    0 -0.21618881417E+02 -0.23108969959E+02 -0.32057962893E+02  0.46142317508E+02  0.99999976941E+01 0.  0.
         12    1    1    2    0    0  0.21618881417E+02  0.23108969959E+02  0.32057962893E+02  0.45045682492E+02  0.00000000000E+00 0. -1.
         11    1    3    3    0    0 -0.42335539023E+01 -0.21085116664E+01 -0.62531955953E+01  0.78403606745E+01  0.51100000000E-03 0.  1.
        -11    1    3    3    0    0 -0.47745387253E+01 -0.11604188177E+02 -0.12333143678E+02  0.17594312619E+02  0.51100000000E-03 0. -1.
        -12    1    3    3    0    0 -0.12610788790E+02 -0.93962701157E+01 -0.13471623620E+02  0.20707644215E+02  0.00000000000E+00 0.  1.
</event>
<event>
 7    1  0.4452647E-009  0.4614232E+02  0.7816164E-02  0.1320468E+00
        -11   -1    0    0    0    0  0.00000000000E+00  0.00000000000E+00  0.45593999997E+02  0.45594000000E+02  0.51100000000E-03 0.  1.
         11   -1    0    0    0    0 -0.00000000000E+00 -0.00000000000E+00 -0.45593999997E+02  0.45594000000E+02  0.51100000000E-03 0. -1.
    9900012    2    1    2    0    0  0.54665749731E+01  0.37887880153E+02 -0.23743181273E+02  0.46142316950E+02  0.99999926055E+01 0.  0.
         12    1    1    2    0    0 -0.54665749731E+01 -0.37887880153E+02  0.23743181273E+02  0.45045683050E+02  0.00000000000E+00 0. -1.
         11    1    3    3    0    0 -0.19518658084E+00 -0.71265635639E-01 -0.60844394871E+00  0.64294703671E+00  0.51100000000E-03 0.  1.
        -11    1    3    3    0    0  0.46283116625E+01  0.84675180268E+01 -0.63200945376E+01  0.11535325119E+02  0.51100000000E-03 0. -1.
        -12    1    3    3    0    0  0.10334498914E+01  0.29491627762E+02 -0.16814642787E+02  0.33964044794E+02  0.00000000000E+00 0.  1.
</event>
<event>
 7    1  0.4452647E-009  0.4614232E+02  0.7816164E-02  0.1320468E+00
        -11   -1    0    0    0    0  0.00000000000E+00  0.00000000000E+00  0.45593999997E+02  0.45594000000E+02  0.51100000000E-03 0. -1.
         11   -1    0    0    0    0 -0.00000000000E+00 -0.00000000000E+00 -0.45593999997E+02  0.45594000000E+02  0.51100000000E-03 0.  1.
    9900012    2    1    2    0    0  0.29706797143E+02  0.92709486103E+01  0.32567916948E+02  0.46142317644E+02  0.99999989277E+01 0.  0.
        -12    1    1    2    0    0 -0.29706797143E+02 -0.92709486103E+01 -0.32567916948E+02  0.45045682356E+02  0.00000000000E+00 0.  1.
         11    1    3    3    0    0  0.13811671020E+02  0.36259256192E+01  0.16020407976E+02  0.21460733094E+02  0.51100000000E-03 0. -1.
        -11    1    3    3    0    0  0.16054662310E+02  0.65657696637E+01  0.16003588115E+02  0.23600346311E+02  0.51100000000E-03 0.  1.
        -12    1    3    3    0    0 -0.15953618710E+00 -0.92074667252E+00  0.54392085661E+00  0.10812382384E+01  0.00000000000E+00 0.  1.
</event>
<event>
 7    1  0.4452647E-009  0.4614232E+02  0.7816164E-02  0.1320468E+00
        -11   -1    0    0    0    0  0.00000000000E+00  0.00000000000E+00  0.45593999997E+02  0.45594000000E+02  0.51100000000E-03 0. -1.
         11   -1    0    0    0    0 -0.00000000000E+00 -0.00000000000E+00 -0.45593999997E+02  0.45594000000E+02  0.51100000000E-03 0.  1.
    9900012    2    1    2    0    0  0.24565772984E+02  0.15319338348E+02  0.34510204155E+02  0.46142317404E+02  0.99999967409E+01 0.  0.
        -12    1    1    2    0    0 -0.24565772984E+02 -0.15319338348E+02 -0.34510204155E+02  0.45045682596E+02  0.00000000000E+00 0.  1.
         11    1    3    3    0    0  0.19828518745E+02  0.10116636103E+02  0.23107638155E+02  0.32085501758E+02  0.51100000000E-03 0. -1.
        -11    1    3    3    0    0  0.53074280259E+01  0.51544640463E+01  0.11249747273E+02  0.13464549968E+02  0.51100000000E-03 0.  1.
         12    1    3    3    0    0 -0.57017378648E+00  0.48238198155E-01  0.15281872640E+00  0.59226567830E+00  0.00000000000E+00 0. -1.
</event>
<event>
 7    1  0.4452647E-009  0.4614232E+02  0.7816164E-02  0.1320468E+00
        -11   -1    0    0    0    0  0.00000000000E+00  0.00000000000E+00  0.45593999997E+02  0.45594000000E+02  0.51100000000E-03 0. -1.
         11   -1    0    0    0    0 -0.00000000000E+00 -0.00000000000E+00 -0.45593999997E+02  0.45594000000E+02  0.51100000000E-03 0.  1.
    9900012    2    1    2    0    0  0.11995021701E+02  0.36419400603E+02  0.23640220846E+02  0.46142319546E+02  0.10000016273E+02 0.  0.
        -12    1    1    2    0    0 -0.11995021701E+02 -0.36419400603E+02 -0.23640220846E+02  0.45045680454E+02  0.00000000000E+00 0.  1.
         11    1    3    3    0    0  0.68114435577E+01  0.10983513044E+02  0.60184519070E+01  0.14256755793E+02  0.51100000000E-03 0.  1.
        -11    1    3    3    0    0  0.61660840693E+01  0.22713614922E+02  0.16661229028E+02  0.28836182975E+02  0.51100000000E-03 0. -1.
        -12    1    3    3    0    0 -0.98250592550E+00  0.27222726371E+01  0.96053991098E+00  0.30493807773E+01  0.00000000000E+00 0.  1.
</event>
<event>
 7    1  0.4452647E-009  0.4614232E+02  0.7816164E-02  0.1320468E+00
        -11   -1    0    0    0    0  0.00000000000E+00  0.00000000000E+00  0.45593999997E+02  0.45594000000E+02  0.51100000000E-03 0. -1.
         11   -1    0    0    0    0 -0.00000000000E+00 -0.00000000000E+00 -0.45593999997E+02  0.45594000000E+02  0.51100000000E-03 0.  1.
    9900012    2    1    2    0    0 -0.42001053773E+02 -0.84545650094E+01 -0.13912061402E+02  0.46142316078E+02  0.99999846540E+01 0.  0.
         12    1    1    2    0    0  0.42001053773E+02  0.84545650094E+01  0.13912061402E+02  0.45045683922E+02  0.00000000000E+00 0. -1.
         11    1    3    3    0    0 -0.78925959646E+01 -0.49050269264E+01 -0.18190510776E+01  0.94689654817E+01  0.51100000000E-03 0. -1.
        -11    1    3    3    0    0 -0.26411700338E+02 -0.33820362710E+01 -0.73198755690E+01  0.27615152773E+02  0.51100000000E-03 0.  1.
        -12    1    3    3    0    0 -0.76967574702E+01 -0.16750181194E+00 -0.47731347553E+01  0.90581978232E+01  0.00000000000E+00 0.  1.
</event>
<event>
 7    1  0.4452647E-009  0.4614232E+02  0.7816164E-02  0.1320468E+00
        -11   -1    0    0    0    0  0.00000000000E+00  0.00000000000E+00  0.45593999997E+02  0.45594000000E+02  0.51100000000E-03 0. -1.
         11   -1    0    0    0    0 -0.00000000000E+00 -0.00000000000E+00 -0.45593999997E+02  0.45594000000E+02  0.51100000000E-03 0.  1.
    9900012    2    1    2    0    0  0.23036999925E+02 -0.35359015617E+02  0.15752785641E+02  0.46142316450E+02  0.99999880486E+01 0.  0.
        -12    1    1    2    0    0 -0.23036999925E+02  0.35359015617E+02 -0.15752785641E+02  0.45045683550E+02  0.00000000000E+00 0.  1.
         11    1    3    3    0    0  0.43222412140E+01 -0.87057118527E+01  0.38393831401E+01  0.10450456982E+02  0.51100000000E-03 0. -1.
        -11    1    3    3    0    0  0.21523588735E+01 -0.39436379146E+01  0.50482279103E+01  0.67579237949E+01  0.51100000000E-03 0.  1.
        -12    1    3    3    0    0  0.16562399838E+02 -0.22709665850E+02  0.68651745911E+01  0.28933935674E+02  0.00000000000E+00 0.  1.
</event>
<event>
 7    1  0.4452647E-009  0.4614232E+02  0.7816164E-02  0.1320468E+00
        -11   -1    0    0    0    0  0.00000000000E+00  0.00000000000E+00  0.45593999997E+02  0.45594000000E+02  0.51100000000E-03 0. -1.
         11   -1    0    0    0    0 -0.00000000000E+00 -0.00000000000E+00 -0.45593999997E+02  0.45594000000E+02  0.51100000000E-03 0.  1.
    9900012    2    1    2    0    0  0.11772708207E+02 -0.16165657993E+02  0.40363201207E+02  0.46142321311E+02  0.10000032369E+02 0.  0.
        -12    1    1    2    0    0 -0.11772708207E+02  0.16165657993E+02 -0.40363201207E+02  0.45045678689E+02  0.00000000000E+00 0.  1.
         11    1    3    3    0    0  0.36544300387E+01 -0.86373846681E+01  0.17453700398E+02  0.19813907506E+02  0.51100000000E-03 0. -1.
        -11    1    3    3    0    0  0.44583004631E+00 -0.21820967035E+01  0.87718971920E+00  0.23936943243E+01  0.51100000000E-03 0.  1.
        -12    1    3    3    0    0  0.76724481218E+01 -0.53461766219E+01  0.22032311089E+02  0.23934719480E+02  0.00000000000E+00 0.  1.
</event>
<event>
 7    1  0.4452647E-009  0.4614232E+02  0.7816164E-02  0.1320468E+00
        -11   -1    0    0    0    0  0.00000000000E+00  0.00000000000E+00  0.45593999997E+02  0.45594000000E+02  0.51100000000E-03 0. -1.
         11   -1    0    0    0    0 -0.00000000000E+00 -0.00000000000E+00 -0.45593999997E+02  0.45594000000E+02  0.51100000000E-03 0.  1.
    9900012    2    1    2    0    0 -0.17702866755E+02 -0.62368663345E+01 -0.40949034949E+02  0.46142318117E+02  0.10000003247E+02 0.  0.
         12    1    1    2    0    0  0.17702866755E+02  0.62368663345E+01  0.40949034949E+02  0.45045681883E+02  0.00000000000E+00 0. -1.
         11    1    3    3    0    0  0.21462210954E+00  0.25594362772E+00  0.20929869911E+00  0.39417762119E+00  0.51100000000E-03 0. -1.
        -11    1    3    3    0    0 -0.15980961734E+02 -0.75579790872E+01 -0.37775041651E+02  0.41706929374E+02  0.51100000000E-03 0.  1.
         12    1    3    3    0    0 -0.19365271303E+01  0.10651691249E+01 -0.33832919977E+01  0.40412111220E+01  0.00000000000E+00 0. -1.
</event>
<event>
 7    1  0.4452647E-009  0.4614232E+02  0.7816164E-02  0.1320468E+00
        -11   -1    0    0    0    0  0.00000000000E+00  0.00000000000E+00  0.45593999997E+02  0.45594000000E+02  0.51100000000E-03 0. -1.
         11   -1    0    0    0    0 -0.00000000000E+00 -0.00000000000E+00 -0.45593999997E+02  0.45594000000E+02  0.51100000000E-03 0.  1.
    9900012    2    1    2    0    0  0.37250732969E+01  0.12817706787E+02 -0.43022595056E+02  0.46142318035E+02  0.10000002494E+02 0.  0.
         12    1    1    2    0    0 -0.37250732969E+01 -0.12817706787E+02  0.43022595056E+02  0.45045681965E+02  0.00000000000E+00 0. -1.
         11    1    3    3    0    0  0.15453253132E+01  0.48651200751E+00 -0.30634533966E+01  0.34654684000E+01  0.51100000000E-03 0. -1.
        -11    1    3    3    0    0  0.10257113013E+01  0.82398268942E+01 -0.13287643866E+02  0.15668704818E+02  0.51100000000E-03 0.  1.
        -12    1    3    3    0    0  0.11540366824E+01  0.40913678854E+01 -0.26671497794E+02  0.27008144816E+02  0.00000000000E+00 0.  1.
</event>
<event>
 7    1  0.4452647E-009  0.4614232E+02  0.7816164E-02  0.1320468E+00
        -11   -1    0    0    0    0  0.00000000000E+00  0.00000000000E+00  0.45593999997E+02  0.45594000000E+02  0.51100000000E-03 0. -1.
         11   -1    0    0    0    0 -0.00000000000E+00 -0.00000000000E+00 -0.45593999997E+02  0.45594000000E+02  0.51100000000E-03 0.  1.
    9900012    2    1    2    0    0 -0.40178166715E+02 -0.10026701501E+02 -0.17728325949E+02  0.46142319136E+02  0.10000012541E+02 0.  0.
         12    1    1    2    0    0  0.40178166715E+02  0.10026701501E+02  0.17728325949E+02  0.45045680864E+02  0.00000000000E+00 0. -1.
         11    1    3    3    0    0 -0.10762435560E+02 -0.40560241161E+00 -0.10633181266E+01  0.10822438643E+02  0.51100000000E-03 0. -1.
        -11    1    3    3    0    0 -0.14717864037E+02 -0.52093478554E+01 -0.10314396368E+02  0.18712017518E+02  0.51100000000E-03 0.  1.
         12    1    3    3    0    0 -0.14697867118E+02 -0.44117512339E+01 -0.63506114543E+01  0.16607862975E+02  0.00000000000E+00 0. -1.
</event>
<event>
 7    1  0.4452647E-009  0.4614232E+02  0.7816164E-02  0.1320468E+00
        -11   -1    0    0    0    0  0.00000000000E+00  0.00000000000E+00  0.45593999997E+02  0.45594000000E+02  0.51100000000E-03 0. -1.
         11   -1    0    0    0    0 -0.00000000000E+00 -0.00000000000E+00 -0.45593999997E+02  0.45594000000E+02  0.51100000000E-03 0.  1.
    9900012    2    1    2    0    0 -0.17133580071E+02 -0.35232590701E+02 -0.22231021463E+02  0.46142319532E+02  0.10000016148E+02 0.  0.
         12    1    1    2    0    0  0.17133580071E+02  0.35232590701E+02  0.22231021463E+02  0.45045680468E+02  0.00000000000E+00 0. -1.
         11    1    3    3    0    0 -0.77037636528E-02  0.23544246290E+00 -0.60699680591E+00  0.65110512578E+00  0.51100000000E-03 0. -1.
        -11    1    3    3    0    0 -0.52432613317E+01 -0.60000511792E+01 -0.65907331515E+01  0.10340704390E+02  0.51100000000E-03 0.  1.
         12    1    3    3    0    0 -0.11882614975E+02 -0.29467981985E+02 -0.15033291505E+02  0.35150510016E+02  0.00000000000E+00 0. -1.
</event>
<event>
 7    1  0.4452647E-009  0.4614232E+02  0.7816164E-02  0.1320468E+00
        -11   -1    0    0    0    0  0.00000000000E+00  0.00000000000E+00  0.45593999997E+02  0.45594000000E+02  0.51100000000E-03 0. -1.
         11   -1    0    0    0    0 -0.00000000000E+00 -0.00000000000E+00 -0.45593999997E+02  0.45594000000E+02  0.51100000000E-03 0.  1.
    9900012    2    1    2    0    0 -0.12003810380E+02 -0.34414805374E+02  0.26469662137E+02  0.46142319783E+02  0.10000018434E+02 0.  0.
        -12    1    1    2    0    0  0.12003810380E+02  0.34414805374E+02 -0.26469662137E+02  0.45045680217E+02  0.00000000000E+00 0.  1.
         11    1    3    3    0    0 -0.18125745600E+01 -0.30396111252E+01  0.44113060438E+01  0.56554649324E+01  0.51100000000E-03 0. -1.
        -11    1    3    3    0    0 -0.23291662681E+01 -0.41529634763E+01  0.68102762934E+01  0.83097523786E+01  0.51100000000E-03 0.  1.
        -12    1    3    3    0    0 -0.78620695514E+01 -0.27222230773E+02  0.15248079800E+02  0.32177102472E+02  0.00000000000E+00 0.  1.
</event>
<event>
 7    1  0.4452647E-009  0.4614233E+02  0.7816164E-02  0.1320468E+00
        -11   -1    0    0    0    0  0.00000000000E+00  0.00000000000E+00  0.45593999997E+02  0.45594000000E+02  0.51100000000E-03 0. -1.
         11   -1    0    0    0    0 -0.00000000000E+00 -0.00000000000E+00 -0.45593999997E+02  0.45594000000E+02  0.51100000000E-03 0.  1.
    9900012    2    1    2    0    0  0.52416942457E+01 -0.41067404203E+02  0.17751217981E+02  0.46142325553E+02  0.10000071056E+02 0.  0.
         12    1    1    2    0    0 -0.52416942457E+01  0.41067404203E+02 -0.17751217981E+02  0.45045674447E+02  0.00000000000E+00 0. -1.
         11    1    3    3    0    0  0.11903365840E+01 -0.20435427817E+01  0.13416266338E+01  0.27189944041E+01  0.51100000000E-03 0. -1.
        -11    1    3    3    0    0  0.28524263976E+01 -0.31686576926E+01  0.10029688848E+01  0.43798030517E+01  0.51100000000E-03 0.  1.
        -12    1    3    3    0    0  0.11989312641E+01 -0.35855203729E+02  0.15406622462E+02  0.39043528098E+02  0.00000000000E+00 0.  1.
</event>
<event>
 7    1  0.4452647E-009  0.4614232E+02  0.7816164E-02  0.1320468E+00
        -11   -1    0    0    0    0  0.00000000000E+00  0.00000000000E+00  0.45593999997E+02  0.45594000000E+02  0.51100000000E-03 0. -1.
         11   -1    0    0    0    0 -0.00000000000E+00 -0.00000000000E+00 -0.45593999997E+02  0.45594000000E+02  0.51100000000E-03 0.  1.
    9900012    2    1    2    0    0 -0.23074197332E+02 -0.62790731328E+01  0.38174180613E+02  0.46142318660E+02  0.10000008193E+02 0.  0.
        -12    1    1    2    0    0  0.23074197332E+02  0.62790731328E+01 -0.38174180613E+02  0.45045681340E+02  0.00000000000E+00 0.  1.
         11    1    3    3    0    0  0.44150672557E+00  0.29982813537E+00  0.71164858222E+00  0.88953306019E+00  0.51100000000E-03 0.  1.
        -11    1    3    3    0    0 -0.20191985098E+02 -0.33779799014E+01  0.32992813482E+02  0.38828504377E+02  0.51100000000E-03 0. -1.
         12    1    3    3    0    0 -0.33237189595E+01 -0.32009213667E+01  0.44697185487E+01  0.64242812223E+01  0.00000000000E+00 0. -1.
</event>
<event>
 7    1  0.4452647E-009  0.4614232E+02  0.7816164E-02  0.1320468E+00
        -11   -1    0    0    0    0  0.00000000000E+00  0.00000000000E+00  0.45593999997E+02  0.45594000000E+02  0.51100000000E-03 0. -1.
         11   -1    0    0    0    0 -0.00000000000E+00 -0.00000000000E+00 -0.45593999997E+02  0.45594000000E+02  0.51100000000E-03 0.  1.
    9900012    2    1    2    0    0  0.10124670814E+02 -0.14954590569E+02  0.41266993384E+02  0.46142317842E+02  0.10000000735E+02 0.  0.
        -12    1    1    2    0    0 -0.10124670814E+02  0.14954590569E+02 -0.41266993384E+02  0.45045682158E+02  0.00000000000E+00 0.  1.
         11    1    3    3    0    0  0.77356385408E+01 -0.68466844263E+01  0.29461671666E+02  0.31220302511E+02  0.51100000000E-03 0. -1.
        -11    1    3    3    0    0 -0.57988329670E+00 -0.34321439418E+01  0.56994846702E+01  0.66783233257E+01  0.51100000000E-03 0.  1.
         12    1    3    3    0    0  0.29689155699E+01 -0.46757622012E+01  0.61058370472E+01  0.82436920049E+01  0.00000000000E+00 0. -1.
</event>
<event>
 7    1  0.4452647E-009  0.4614232E+02  0.7816164E-02  0.1320468E+00
        -11   -1    0    0    0    0  0.00000000000E+00  0.00000000000E+00  0.45593999997E+02  0.45594000000E+02  0.51100000000E-03 0. -1.
         11   -1    0    0    0    0 -0.00000000000E+00 -0.00000000000E+00 -0.45593999997E+02  0.45594000000E+02  0.51100000000E-03 0.  1.
    9900012    2    1    2    0    0  0.10514132804E+02  0.43240848874E+02  0.69853800477E+01  0.46142317250E+02  0.99999953400E+01 0.  0.
        -12    1    1    2    0    0 -0.10514132804E+02 -0.43240848874E+02 -0.69853800477E+01  0.45045682750E+02  0.00000000000E+00 0.  1.
         11    1    3    3    0    0  0.69514448378E+01  0.14967709517E+02  0.30360130376E+01  0.16780115880E+02  0.51100000000E-03 0. -1.
        -11    1    3    3    0    0  0.74740263213E+00  0.10414024642E+02  0.42686978850E+01  0.11279729688E+02  0.51100000000E-03 0.  1.
        -12    1    3    3    0    0  0.28152853340E+01  0.17859114716E+02 -0.31933087485E+00  0.18082471682E+02  0.00000000000E+00 0.  1.
</event>
<event>
 7    1  0.4452647E-009  0.4614232E+02  0.7816164E-02  0.1320468E+00
        -11   -1    0    0    0    0  0.00000000000E+00  0.00000000000E+00  0.45593999997E+02  0.45594000000E+02  0.51100000000E-03 0. -1.
         11   -1    0    0    0    0 -0.00000000000E+00 -0.00000000000E+00 -0.45593999997E+02  0.45594000000E+02  0.51100000000E-03 0.  1.
    9900012    2    1    2    0    0 -0.32469501493E+02 -0.17733413551E+02  0.25697685250E+02  0.46142317515E+02  0.99999977572E+01 0.  0.
        -12    1    1    2    0    0  0.32469501493E+02  0.17733413551E+02 -0.25697685250E+02  0.45045682485E+02  0.00000000000E+00 0.  1.
         11    1    3    3    0    0 -0.29667770077E+02 -0.16027300328E+02  0.22350636250E+02  0.40454936389E+02  0.51100000000E-03 0. -1.
        -11    1    3    3    0    0 -0.51590597275E+00 -0.14880977943E+01  0.29681441478E+01  0.33601300513E+01  0.51100000000E-03 0.  1.
        -12    1    3    3    0    0 -0.22858254423E+01 -0.21801542828E+00  0.37890485180E+00  0.23272510751E+01  0.00000000000E+00 0.  1.
</event>
<event>
 7    1  0.4452647E-009  0.4614232E+02  0.7816164E-02  0.1320468E+00
        -11   -1    0    0    0    0  0.00000000000E+00  0.00000000000E+00  0.45593999997E+02  0.45594000000E+02  0.51100000000E-03 0. -1.
         11   -1    0    0    0    0 -0.00000000000E+00 -0.00000000000E+00 -0.45593999997E+02  0.45594000000E+02  0.51100000000E-03 0.  1.
    9900012    2    1    2    0    0 -0.22233672884E+02 -0.30308039531E+02  0.24823377183E+02  0.46142317356E+02  0.99999963016E+01 0.  0.
        -12    1    1    2    0    0  0.22233672884E+02  0.30308039531E+02 -0.24823377183E+02  0.45045682644E+02  0.00000000000E+00 0.  1.
         11    1    3    3    0    0 -0.79158813702E+01 -0.95523809420E+01  0.10553169103E+02  0.16287373573E+02  0.51100000000E-03 0. -1.
        -11    1    3    3    0    0 -0.35977769895E+00 -0.43521437283E+00 -0.78639907821E+00  0.96812980241E+00  0.51100000000E-03 0.  1.
        -12    1    3    3    0    0 -0.13958013815E+02 -0.20320444216E+02  0.15056607158E+02  0.28886813980E+02  0.00000000000E+00 0.  1.
</event>
<event>
 7    1  0.4452647E-009  0.4614232E+02  0.7816164E-02  0.1320468E+00
        -11   -1    0    0    0    0  0.00000000000E+00  0.00000000000E+00  0.45593999997E+02  0.45594000000E+02  0.51100000000E-03 0. -1.
         11   -1    0    0    0    0 -0.00000000000E+00 -0.00000000000E+00 -0.45593999997E+02  0.45594000000E+02  0.51100000000E-03 0.  1.
    9900012    2    1    2    0    0 -0.11907658524E+02 -0.36955275442E+00 -0.43441738590E+02  0.46142317050E+02  0.99999935151E+01 0.  0.
         12    1    1    2    0    0  0.11907658524E+02  0.36955275442E+00  0.43441738590E+02  0.45045682950E+02  0.00000000000E+00 0. -1.
         11    1    3    3    0    0 -0.12661586429E+01 -0.31792980712E+01 -0.12420400461E+02  0.12883223269E+02  0.51100000000E-03 0. -1.
        -11    1    3    3    0    0 -0.10753246267E+02  0.17121962258E+01 -0.28319475562E+02  0.30340675958E+02  0.51100000000E-03 0.  1.
        -12    1    3    3    0    0  0.11174638603E+00  0.10975490910E+01 -0.27018625660E+01  0.29184178226E+01  0.00000000000E+00 0.  1.
</event>
<event>
 7    1  0.4452647E-009  0.4614232E+02  0.7816164E-02  0.1320468E+00
        -11   -1    0    0    0    0  0.00000000000E+00  0.00000000000E+00  0.45593999997E+02  0.45594000000E+02  0.51100000000E-03 0. -1.
         11   -1    0    0    0    0 -0.00000000000E+00 -0.00000000000E+00 -0.45593999997E+02  0.45594000000E+02  0.51100000000E-03 0.  1.
    9900012    2    1    2    0    0  0.31830893107E+02 -0.87213427447E+01 -0.30656907869E+02  0.46142316796E+02  0.99999912001E+01 0.  0.
         12    1    1    2    0    0 -0.31830893107E+02  0.87213427447E+01  0.30656907869E+02  0.45045683204E+02  0.00000000000E+00 0. -1.
         11    1    3    3    0    0  0.83203271796E+01 -0.50237155829E+01 -0.95429587401E+01  0.13621072807E+02  0.51100000000E-03 0. -1.
        -11    1    3    3    0    0  0.10789031502E+02  0.16556440764E+01 -0.99406302453E+01  0.14763484954E+02  0.51100000000E-03 0.  1.
        -12    1    3    3    0    0  0.12721534425E+02 -0.53532712382E+01 -0.11173318883E+02  0.17757759035E+02  0.00000000000E+00 0.  1.
</event>
<event>
 7    1  0.4452647E-009  0.4614232E+02  0.7816164E-02  0.1320468E+00
        -11   -1    0    0    0    0  0.00000000000E+00  0.00000000000E+00  0.45593999997E+02  0.45594000000E+02  0.51100000000E-03 0. -1.
         11   -1    0    0    0    0 -0.00000000000E+00 -0.00000000000E+00 -0.45593999997E+02  0.45594000000E+02  0.51100000000E-03 0.  1.
    9900012    2    1    2    0    0 -0.56951037923E+01  0.42112503823E+02 -0.14940414687E+02  0.46142321223E+02  0.10000031567E+02 0.  0.
         12    1    1    2    0    0  0.56951037923E+01 -0.42112503823E+02  0.14940414687E+02  0.45045678777E+02  0.00000000000E+00 0. -1.
         11    1    3    3    0    0 -0.49663897816E+01  0.11239730879E+02 -0.15448694344E+01  0.12384797113E+02  0.51100000000E-03 0.  1.
        -11    1    3    3    0    0  0.72620045010E+00  0.16380271543E+02 -0.64267461314E+01  0.17610898019E+02  0.51100000000E-03 0. -1.
        -12    1    3    3    0    0 -0.14549144608E+01  0.14492501401E+02 -0.69687991211E+01  0.16146626091E+02  0.00000000000E+00 0.  1.
</event>
<event>
 7    1  0.4452647E-009  0.4614232E+02  0.7816164E-02  0.1320468E+00
        -11   -1    0    0    0    0  0.00000000000E+00  0.00000000000E+00  0.45593999997E+02  0.45594000000E+02  0.51100000000E-03 0. -1.
         11   -1    0    0    0    0 -0.00000000000E+00 -0.00000000000E+00 -0.45593999997E+02  0.45594000000E+02  0.51100000000E-03 0.  1.
    9900012    2    1    2    0    0  0.10646297929E+02  0.41316952166E+01  0.43574062373E+02  0.46142317891E+02  0.10000001186E+02 0.  0.
        -12    1    1    2    0    0 -0.10646297929E+02 -0.41316952166E+01 -0.43574062373E+02  0.45045682109E+02  0.00000000000E+00 0.  1.
         11    1    3    3    0    0  0.52476291206E+00  0.10631393559E+01  0.14137602152E+02  0.14187227928E+02  0.51100000000E-03 0. -1.
        -11    1    3    3    0    0  0.49420837826E+01  0.38969042113E+01  0.99363947656E+01  0.11761887423E+02  0.51100000000E-03 0.  1.
         12    1    3    3    0    0  0.51794512341E+01 -0.82834835061E+00  0.19500065455E+02  0.20193202540E+02  0.00000000000E+00 0. -1.
</event>
<event>
 7    1  0.4452647E-009  0.4614232E+02  0.7816164E-02  0.1320468E+00
        -11   -1    0    0    0    0  0.00000000000E+00  0.00000000000E+00  0.45593999997E+02  0.45594000000E+02  0.51100000000E-03 0. -1.
         11   -1    0    0    0    0 -0.00000000000E+00 -0.00000000000E+00 -0.45593999997E+02  0.45594000000E+02  0.51100000000E-03 0.  1.
    9900012    2    1    2    0    0  0.96847001459E+01  0.22141442446E+02 -0.38014163149E+02  0.46142317738E+02  0.99999997909E+01 0.  0.
         12    1    1    2    0    0 -0.96847001459E+01 -0.22141442446E+02  0.38014163149E+02  0.45045682262E+02  0.00000000000E+00 0. -1.
         11    1    3    3    0    0  0.20535580853E+01  0.13457587685E+01 -0.16718656947E+01  0.29704044565E+01  0.51100000000E-03 0. -1.
        -11    1    3    3    0    0  0.75492080757E+01  0.14048091580E+02 -0.20659552920E+02  0.26098975971E+02  0.51100000000E-03 0.  1.
        -12    1    3    3    0    0  0.81933984919E-01  0.67475920978E+01 -0.15682744534E+02  0.17072937311E+02  0.00000000000E+00 0.  1.
</event>
<event>
 7    1  0.4452647E-009  0.4614232E+02  0.7816164E-02  0.1320468E+00
        -11   -1    0    0    0    0  0.00000000000E+00  0.00000000000E+00  0.45593999997E+02  0.45594000000E+02  0.51100000000E-03 0. -1.
         11   -1    0    0    0    0 -0.00000000000E+00 -0.00000000000E+00 -0.45593999997E+02  0.45594000000E+02  0.51100000000E-03 0.  1.
    9900012    2    1    2    0    0 -0.32836053444E+02 -0.10181437073E+02  0.29107481013E+02  0.46142317437E+02  0.99999970427E+01 0.  0.
        -12    1    1    2    0    0  0.32836053444E+02  0.10181437073E+02 -0.29107481013E+02  0.45045682563E+02  0.00000000000E+00 0.  1.
         11    1    3    3    0    0 -0.80541379743E+01 -0.23629198223E+01  0.90440302285E+01  0.12338841584E+02  0.51100000000E-03 0. -1.
        -11    1    3    3    0    0 -0.22346915283E+02 -0.57425808347E+01  0.14112225083E+02  0.27046566406E+02  0.51100000000E-03 0.  1.
        -12    1    3    3    0    0 -0.24350001859E+01 -0.20759364163E+01  0.59512257023E+01  0.67569094466E+01  0.00000000000E+00 0.  1.
</event>
<event>
 7    1  0.4452647E-009  0.4614232E+02  0.7816164E-02  0.1320468E+00
        -11   -1    0    0    0    0  0.00000000000E+00  0.00000000000E+00  0.45593999997E+02  0.45594000000E+02  0.51100000000E-03 0. -1.
         11   -1    0    0    0    0 -0.00000000000E+00 -0.00000000000E+00 -0.45593999997E+02  0.45594000000E+02  0.51100000000E-03 0.  1.
    9900012    2    1    2    0    0  0.10135149795E+02  0.12175721875E+02 -0.42168044990E+02  0.46142317823E+02  0.10000000565E+02 0.  0.
         12    1    1    2    0    0 -0.10135149795E+02 -0.12175721875E+02  0.42168044990E+02  0.45045682177E+02  0.00000000000E+00 0. -1.
         11    1    3    3    0    0  0.35367473748E+00  0.38440050794E+01 -0.77152721971E+01  0.86271018428E+01  0.51100000000E-03 0. -1.
        -11    1    3    3    0    0  0.31351945895E+01  0.56535485611E+01 -0.90543807462E+01  0.11125370439E+02  0.51100000000E-03 0.  1.
        -12    1    3    3    0    0  0.66462804680E+01  0.26781682346E+01 -0.25398392046E+02  0.26389845541E+02  0.00000000000E+00 0.  1.
</event>
<event>
 7    1  0.4452647E-009  0.4614232E+02  0.7816164E-02  0.1320468E+00
        -11   -1    0    0    0    0  0.00000000000E+00  0.00000000000E+00  0.45593999997E+02  0.45594000000E+02  0.51100000000E-03 0. -1.
         11   -1    0    0    0    0 -0.00000000000E+00 -0.00000000000E+00 -0.45593999997E+02  0.45594000000E+02  0.51100000000E-03 0.  1.
    9900012    2    1    2    0    0 -0.32474488875E+02  0.15770228216E+02  0.26941063849E+02  0.46142318220E+02  0.10000004182E+02 0.  0.
        -12    1    1    2    0    0  0.32474488875E+02 -0.15770228216E+02 -0.26941063849E+02  0.45045681780E+02  0.00000000000E+00 0.  1.
         11    1    3    3    0    0 -0.21505446902E+02  0.87280189274E+01  0.13293489177E+02  0.26746577643E+02  0.51100000000E-03 0. -1.
        -11    1    3    3    0    0 -0.91020548930E+01  0.67986450835E+01  0.13281595927E+02  0.17477693465E+02  0.51100000000E-03 0.  1.
        -12    1    3    3    0    0 -0.18669870800E+01  0.24356420512E+00  0.36597874627E+00  0.19180471114E+01  0.00000000000E+00 0.  1.
</event>
<event>
 7    1  0.4452647E-009  0.4614232E+02  0.7816164E-02  0.1320468E+00
        -11   -1    0    0    0    0  0.00000000000E+00  0.00000000000E+00  0.45593999997E+02  0.45594000000E+02  0.51100000000E-03 0. -1.
         11   -1    0    0    0    0 -0.00000000000E+00 -0.00000000000E+00 -0.45593999997E+02  0.45594000000E+02  0.51100000000E-03 0.  1.
    9900012    2    1    2    0    0 -0.87206330622E+01  0.14136679451E+02  0.41871450368E+02  0.46142317600E+02  0.99999985347E+01 0.  0.
        -12    1    1    2    0    0  0.87206330622E+01 -0.14136679451E+02 -0.41871450368E+02  0.45045682400E+02  0.00000000000E+00 0.  1.
         11    1    3    3    0    0 -0.22078419387E+01  0.71543349202E+00  0.63463586478E+01  0.67574166259E+01  0.51100000000E-03 0. -1.
        -11    1    3    3    0    0  0.17523486538E+01  0.35687681460E+01  0.62183462458E+01  0.73806952368E+01  0.51100000000E-03 0.  1.
        -12    1    3    3    0    0 -0.82651397773E+01  0.98524778126E+01  0.29306745475E+02  0.32004205738E+02  0.00000000000E+00 0.  1.
</event>
<event>
 7    1  0.4452647E-009  0.4614232E+02  0.7816164E-02  0.1320468E+00
        -11   -1    0    0    0    0  0.00000000000E+00  0.00000000000E+00  0.45593999997E+02  0.45594000000E+02  0.51100000000E-03 0. -1.
         11   -1    0    0    0    0 -0.00000000000E+00 -0.00000000000E+00 -0.45593999997E+02  0.45594000000E+02  0.51100000000E-03 0.  1.
    9900012    2    1    2    0    0 -0.24529528377E+02 -0.22927684607E+02  0.30028934001E+02  0.46142319174E+02  0.10000012882E+02 0.  0.
        -12    1    1    2    0    0  0.24529528377E+02  0.22927684607E+02 -0.30028934001E+02  0.45045680826E+02  0.00000000000E+00 0.  1.
         11    1    3    3    0    0 -0.38247677544E+01 -0.32373675996E+01  0.91073080744E+01  0.10394828424E+02  0.51100000000E-03 0. -1.
        -11    1    3    3    0    0 -0.16943949577E+01 -0.30641859463E+01  0.11899483372E+01  0.36981329198E+01  0.51100000000E-03 0.  1.
         12    1    3    3    0    0 -0.19010365665E+02 -0.16626131062E+02  0.19731677589E+02  0.32049357830E+02  0.00000000000E+00 0. -1.
</event>
<event>
 7    1  0.4452647E-009  0.4614232E+02  0.7816164E-02  0.1320468E+00
        -11   -1    0    0    0    0  0.00000000000E+00  0.00000000000E+00  0.45593999997E+02  0.45594000000E+02  0.51100000000E-03 0. -1.
         11   -1    0    0    0    0 -0.00000000000E+00 -0.00000000000E+00 -0.45593999997E+02  0.45594000000E+02  0.51100000000E-03 0.  1.
    9900012    2    1    2    0    0  0.42303999397E+02  0.82399121430E+01  0.13099197359E+02  0.46142317759E+02  0.99999999793E+01 0.  0.
        -12    1    1    2    0    0 -0.42303999397E+02 -0.82399121430E+01 -0.13099197359E+02  0.45045682241E+02  0.00000000000E+00 0.  1.
         11    1    3    3    0    0  0.72431413545E+01  0.31415308923E+00 -0.19261841423E+00  0.72525092871E+01  0.51100000000E-03 0.  1.
        -11    1    3    3    0    0  0.19604640294E+02  0.35893526413E+01  0.39554755368E+01  0.20319231295E+02  0.51100000000E-03 0. -1.
         12    1    3    3    0    0  0.15456217749E+02  0.43364064124E+01  0.93363402360E+01  0.18570577177E+02  0.00000000000E+00 0. -1.
</event>
<event>
 7    1  0.4452647E-009  0.4614232E+02  0.7816164E-02  0.1320468E+00
        -11   -1    0    0    0    0  0.00000000000E+00  0.00000000000E+00  0.45593999997E+02  0.45594000000E+02  0.51100000000E-03 0. -1.
         11   -1    0    0    0    0 -0.00000000000E+00 -0.00000000000E+00 -0.45593999997E+02  0.45594000000E+02  0.51100000000E-03 0.  1.
    9900012    2    1    2    0    0  0.32524371337E+02  0.24799571408E+01 -0.31066519466E+02  0.46142317077E+02  0.99999937588E+01 0.  0.
         12    1    1    2    0    0 -0.32524371337E+02 -0.24799571408E+01  0.31066519466E+02  0.45045682923E+02  0.00000000000E+00 0. -1.
         11    1    3    3    0    0  0.20295358313E+02  0.39985798526E+01 -0.14742545278E+02  0.25401434043E+02  0.51100000000E-03 0.  1.
        -11    1    3    3    0    0  0.11793701912E+02 -0.69714481765E+00 -0.15563992852E+02  0.19540094407E+02  0.51100000000E-03 0. -1.
         12    1    3    3    0    0  0.43531111222E+00 -0.82147789423E+00 -0.75998133660E+00  0.12007886272E+01  0.00000000000E+00 0. -1.
</event>
<event>
 7    1  0.4452647E-009  0.4614232E+02  0.7816164E-02  0.1320468E+00
        -11   -1    0    0    0    0  0.00000000000E+00  0.00000000000E+00  0.45593999997E+02  0.45594000000E+02  0.51100000000E-03 0. -1.
         11   -1    0    0    0    0 -0.00000000000E+00 -0.00000000000E+00 -0.45593999997E+02  0.45594000000E+02  0.51100000000E-03 0.  1.
    9900012    2    1    2    0    0 -0.19016491734E+02 -0.39868866049E+02  0.88294997948E+01  0.46142317582E+02  0.99999983644E+01 0.  0.
        -12    1    1    2    0    0  0.19016491734E+02  0.39868866049E+02 -0.88294997948E+01  0.45045682418E+02  0.00000000000E+00 0.  1.
         11    1    3    3    0    0 -0.60683363609E+01 -0.96477129733E+01  0.16991498440E+01  0.11523462251E+02  0.51100000000E-03 0. -1.
        -11    1    3    3    0    0 -0.71511768746E+01 -0.11810348211E+02  0.66163760571E+01  0.15310130240E+02  0.51100000000E-03 0.  1.
        -12    1    3    3    0    0 -0.57969784981E+01 -0.18410804865E+02  0.51397389369E+00  0.19308725091E+02  0.00000000000E+00 0.  1.
</event>
<event>
 7    1  0.4452647E-009  0.4614232E+02  0.7816164E-02  0.1320468E+00
        -11   -1    0    0    0    0  0.00000000000E+00  0.00000000000E+00  0.45593999997E+02  0.45594000000E+02  0.51100000000E-03 0. -1.
         11   -1    0    0    0    0 -0.00000000000E+00 -0.00000000000E+00 -0.45593999997E+02  0.45594000000E+02  0.51100000000E-03 0.  1.
    9900012    2    1    2    0    0  0.37794215210E+02  0.23859864474E+01  0.24392989605E+02  0.46142316783E+02  0.99999910803E+01 0.  0.
        -12    1    1    2    0    0 -0.37794215210E+02 -0.23859864474E+01 -0.24392989605E+02  0.45045683217E+02  0.00000000000E+00 0.  1.
         11    1    3    3    0    0  0.15627794133E+02 -0.20126786945E+01  0.71774803608E+01  0.17314590656E+02  0.51100000000E-03 0. -1.
        -11    1    3    3    0    0  0.71111239510E+01  0.32505352008E+01  0.77391606431E+01  0.11001303135E+02  0.51100000000E-03 0.  1.
        -12    1    3    3    0    0  0.15055297125E+02  0.11481299411E+01  0.94763486010E+01  0.17826422992E+02  0.00000000000E+00 0.  1.
</event>
<event>
 7    1  0.4452647E-009  0.4614232E+02  0.7816164E-02  0.1320468E+00
        -11   -1    0    0    0    0  0.00000000000E+00  0.00000000000E+00  0.45593999997E+02  0.45594000000E+02  0.51100000000E-03 0. -1.
         11   -1    0    0    0    0 -0.00000000000E+00 -0.00000000000E+00 -0.45593999997E+02  0.45594000000E+02  0.51100000000E-03 0.  1.
    9900012    2    1    2    0    0 -0.36590993954E+01 -0.36716932236E+02  0.25837793195E+02  0.46142315652E+02  0.99999807669E+01 0.  0.
        -12    1    1    2    0    0  0.36590993954E+01  0.36716932236E+02 -0.25837793195E+02  0.45045684348E+02  0.00000000000E+00 0.  1.
         11    1    3    3    0    0 -0.21013041783E+01 -0.18491902058E+01  0.27471472956E+01  0.39219640733E+01  0.51100000000E-03 0. -1.
        -11    1    3    3    0    0  0.40266898465E-01 -0.16520757298E+02  0.77345987236E+01  0.18241739523E+02  0.51100000000E-03 0.  1.
         12    1    3    3    0    0 -0.15980621156E+01 -0.18346984732E+02  0.15356047176E+02  0.23978612056E+02  0.00000000000E+00 0. -1.
</event>
<event>
 7    1  0.4452647E-009  0.4614232E+02  0.7816164E-02  0.1320468E+00
        -11   -1    0    0    0    0  0.00000000000E+00  0.00000000000E+00  0.45593999997E+02  0.45594000000E+02  0.51100000000E-03 0. -1.
         11   -1    0    0    0    0 -0.00000000000E+00 -0.00000000000E+00 -0.45593999997E+02  0.45594000000E+02  0.51100000000E-03 0.  1.
    9900012    2    1    2    0    0 -0.13294601133E+02  0.37358650746E+01 -0.42876688344E+02  0.46142317516E+02  0.99999977661E+01 0.  0.
         12    1    1    2    0    0  0.13294601133E+02 -0.37358650746E+01  0.42876688344E+02  0.45045682484E+02  0.00000000000E+00 0. -1.
         11    1    3    3    0    0 -0.48109717186E+01 -0.16405113599E+01 -0.17901742621E+02  0.18609382459E+02  0.51100000000E-03 0. -1.
        -11    1    3    3    0    0 -0.78876464526E+01  0.60352010997E+01 -0.24669227383E+02  0.26593408935E+02  0.51100000000E-03 0.  1.
        -12    1    3    3    0    0 -0.59598296142E+00 -0.65882466512E+00 -0.30571834012E+00  0.93952612159E+00  0.00000000000E+00 0.  1.
</event>
<event>
 7    1  0.4452647E-009  0.4614232E+02  0.7816164E-02  0.1320468E+00
        -11   -1    0    0    0    0  0.00000000000E+00  0.00000000000E+00  0.45593999997E+02  0.45594000000E+02  0.51100000000E-03 0. -1.
         11   -1    0    0    0    0 -0.00000000000E+00 -0.00000000000E+00 -0.45593999997E+02  0.45594000000E+02  0.51100000000E-03 0.  1.
    9900012    2    1    2    0    0  0.24413348185E+01  0.61703063844E+01 -0.44554244092E+02  0.46142318041E+02  0.10000002551E+02 0.  0.
         12    1    1    2    0    0 -0.24413348185E+01 -0.61703063844E+01  0.44554244092E+02  0.45045681959E+02  0.00000000000E+00 0. -1.
         11    1    3    3    0    0  0.26089580324E+01  0.53475186105E+01 -0.15295806915E+02  0.16412322406E+02  0.51100000000E-03 0. -1.
        -11    1    3    3    0    0  0.79806297692E+00  0.70252727359E+00 -0.28435978332E+02  0.28455848486E+02  0.51100000000E-03 0.  1.
         12    1    3    3    0    0 -0.96568619082E+00  0.12026050034E+00 -0.82245884466E+00  0.12741471494E+01  0.00000000000E+00 0. -1.
</event>
<event>
 7    1  0.4452647E-009  0.4614232E+02  0.7816164E-02  0.1320468E+00
        -11   -1    0    0    0    0  0.00000000000E+00  0.00000000000E+00  0.45593999997E+02  0.45594000000E+02  0.51100000000E-03 0. -1.
         11   -1    0    0    0    0 -0.00000000000E+00 -0.00000000000E+00 -0.45593999997E+02  0.45594000000E+02  0.51100000000E-03 0.  1.
    9900012    2    1    2    0    0 -0.39157496036E+02  0.30782598252E+01  0.22052852848E+02  0.46142317653E+02  0.99999990124E+01 0.  0.
        -12    1    1    2    0    0  0.39157496036E+02 -0.30782598252E+01 -0.22052852848E+02  0.45045682347E+02  0.00000000000E+00 0.  1.
         11    1    3    3    0    0 -0.49845364184E+01  0.17769221217E+01  0.59163550351E+01  0.79376515857E+01  0.51100000000E-03 0. -1.
        -11    1    3    3    0    0 -0.16867005948E+02  0.31155839757E+01  0.92793155545E+01  0.19501498676E+02  0.51100000000E-03 0.  1.
        -12    1    3    3    0    0 -0.17305953670E+02 -0.18142462723E+01  0.68571822582E+01  0.18703167392E+02  0.00000000000E+00 0.  1.
</event>
<event>
 7    1  0.4452647E-009  0.4614232E+02  0.7816164E-02  0.1320468E+00
        -11   -1    0    0    0    0  0.00000000000E+00  0.00000000000E+00  0.45593999997E+02  0.45594000000E+02  0.51100000000E-03 0. -1.
         11   -1    0    0    0    0 -0.00000000000E+00 -0.00000000000E+00 -0.45593999997E+02  0.45594000000E+02  0.51100000000E-03 0.  1.
    9900012    2    1    2    0    0  0.10214180765E+02  0.74650379394E+01  0.43232594474E+02  0.46142317575E+02  0.99999983044E+01 0.  0.
        -12    1    1    2    0    0 -0.10214180765E+02 -0.74650379394E+01 -0.43232594474E+02  0.45045682425E+02  0.00000000000E+00 0.  1.
         11    1    3    3    0    0  0.90784648759E+01  0.53408773563E+01  0.24269846299E+02  0.26456926033E+02  0.51100000000E-03 0. -1.
        -11    1    3    3    0    0 -0.17171188451E+01  0.16684971098E+01  0.88304088485E+01  0.91492349640E+01  0.51100000000E-03 0.  1.
         12    1    3    3    0    0  0.28528347337E+01  0.45566347331E+00  0.10132339326E+02  0.10536156578E+02  0.00000000000E+00 0. -1.
</event>
<event>
 7    1  0.4452647E-009  0.4614232E+02  0.7816164E-02  0.1320468E+00
        -11   -1    0    0    0    0  0.00000000000E+00  0.00000000000E+00  0.45593999997E+02  0.45594000000E+02  0.51100000000E-03 0. -1.
         11   -1    0    0    0    0 -0.00000000000E+00 -0.00000000000E+00 -0.45593999997E+02  0.45594000000E+02  0.51100000000E-03 0.  1.
    9900012    2    1    2    0    0 -0.11978967844E+02  0.26347203497E+02  0.34517280026E+02  0.46142318486E+02  0.10000006609E+02 0.  0.
        -12    1    1    2    0    0  0.11978967844E+02 -0.26347203497E+02 -0.34517280026E+02  0.45045681514E+02  0.00000000000E+00 0.  1.
         11    1    3    3    0    0 -0.38697850991E+01  0.63957799434E+01  0.10347094526E+02  0.12764936474E+02  0.51100000000E-03 0. -1.
        -11    1    3    3    0    0 -0.65161954237E+01  0.82633652139E+01  0.15512150314E+02  0.18744887705E+02  0.51100000000E-03 0.  1.
        -12    1    3    3    0    0 -0.15929873212E+01  0.11688058339E+02  0.86580351853E+01  0.14632494306E+02  0.00000000000E+00 0.  1.
</event>
<event>
 7    1  0.4452647E-009  0.4614232E+02  0.7816164E-02  0.1320468E+00
        -11   -1    0    0    0    0  0.00000000000E+00  0.00000000000E+00  0.45593999997E+02  0.45594000000E+02  0.51100000000E-03 0. -1.
         11   -1    0    0    0    0 -0.00000000000E+00 -0.00000000000E+00 -0.45593999997E+02  0.45594000000E+02  0.51100000000E-03 0.  1.
    9900012    2    1    2    0    0 -0.32745765129E+01 -0.23952504757E+02 -0.38008790978E+02  0.46142317331E+02  0.99999960770E+01 0.  0.
         12    1    1    2    0    0  0.32745765129E+01  0.23952504757E+02  0.38008790978E+02  0.45045682669E+02  0.00000000000E+00 0. -1.
         11    1    3    3    0    0  0.22461778224E+01 -0.16606561372E+02 -0.24260773213E+02  0.29485730660E+02  0.51100000000E-03 0. -1.
        -11    1    3    3    0    0 -0.45837386199E+01 -0.69795674868E+01 -0.11691927313E+02  0.14367539337E+02  0.51100000000E-03 0.  1.
         12    1    3    3    0    0 -0.93701571538E+00 -0.36637589895E+00 -0.20560904516E+01  0.22890473336E+01  0.00000000000E+00 0. -1.
</event>
<event>
 7    1  0.4452647E-009  0.4614232E+02  0.7816164E-02  0.1320468E+00
        -11   -1    0    0    0    0  0.00000000000E+00  0.00000000000E+00  0.45593999997E+02  0.45594000000E+02  0.51100000000E-03 0. -1.
         11   -1    0    0    0    0 -0.00000000000E+00 -0.00000000000E+00 -0.45593999997E+02  0.45594000000E+02  0.51100000000E-03 0.  1.
    9900012    2    1    2    0    0 -0.35627069654E+02 -0.25453571934E+02  0.10580213956E+02  0.46142319367E+02  0.10000014646E+02 0.  0.
        -12    1    1    2    0    0  0.35627069654E+02  0.25453571934E+02 -0.10580213956E+02  0.45045680633E+02  0.00000000000E+00 0.  1.
         11    1    3    3    0    0 -0.26083900524E+02 -0.13642546466E+02  0.46557591963E+01  0.29802097822E+02  0.51100000000E-03 0. -1.
        -11    1    3    3    0    0 -0.57706329037E+01 -0.66362013290E+01  0.29189235580E+01  0.92660394553E+01  0.51100000000E-03 0.  1.
         12    1    3    3    0    0 -0.37725362263E+01 -0.51748241382E+01  0.30055312013E+01  0.70741820900E+01  0.00000000000E+00 0. -1.
</event>
<event>
 7    1  0.4452647E-009  0.4614232E+02  0.7816164E-02  0.1320468E+00
        -11   -1    0    0    0    0  0.00000000000E+00  0.00000000000E+00  0.45593999997E+02  0.45594000000E+02  0.51100000000E-03 0. -1.
         11   -1    0    0    0    0 -0.00000000000E+00 -0.00000000000E+00 -0.45593999997E+02  0.45594000000E+02  0.51100000000E-03 0.  1.
    9900012    2    1    2    0    0 -0.21595215673E+02 -0.23539550617E+02  0.31759243594E+02  0.46142319442E+02  0.10000015329E+02 0.  0.
        -12    1    1    2    0    0  0.21595215673E+02  0.23539550617E+02 -0.31759243594E+02  0.45045680558E+02  0.00000000000E+00 0.  1.
         11    1    3    3    0    0 -0.14234476088E+02 -0.15028338825E+02  0.21024356473E+02  0.29504149584E+02  0.51100000000E-03 0. -1.
        -11    1    3    3    0    0 -0.42300342343E+01 -0.76898611569E+01  0.51298889519E+01  0.10165771744E+02  0.51100000000E-03 0.  1.
        -12    1    3    3    0    0 -0.31307053510E+01 -0.82135063583E+00  0.56049981700E+01  0.64723981141E+01  0.00000000000E+00 0.  1.
</event>
<event>
 7    1  0.4452647E-009  0.4614232E+02  0.7816164E-02  0.1320468E+00
        -11   -1    0    0    0    0  0.00000000000E+00  0.00000000000E+00  0.45593999997E+02  0.45594000000E+02  0.51100000000E-03 0. -1.
         11   -1    0    0    0    0 -0.00000000000E+00 -0.00000000000E+00 -0.45593999997E+02  0.45594000000E+02  0.51100000000E-03 0.  1.
    9900012    2    1    2    0    0 -0.55801153617E+01  0.15708362733E+02  0.41847619047E+02  0.46142316887E+02  0.99999920292E+01 0.  0.
        -12    1    1    2    0    0  0.55801153617E+01 -0.15708362733E+02 -0.41847619047E+02  0.45045683113E+02  0.00000000000E+00 0.  1.
         11    1    3    3    0    0 -0.20408481004E+01  0.38335616847E+01  0.98573209235E+01  0.10771630898E+02  0.51100000000E-03 0. -1.
        -11    1    3    3    0    0 -0.45791131354E+00  0.13202144194E+01 -0.14647041712E+00  0.14050276611E+01  0.51100000000E-03 0.  1.
        -12    1    3    3    0    0 -0.30813559477E+01  0.10554586629E+02  0.32136768541E+02  0.33965658328E+02  0.00000000000E+00 0.  1.
</event>
<event>
 7    1  0.4452647E-009  0.4614232E+02  0.7816164E-02  0.1320468E+00
        -11   -1    0    0    0    0  0.00000000000E+00  0.00000000000E+00  0.45593999997E+02  0.45594000000E+02  0.51100000000E-03 0. -1.
         11   -1    0    0    0    0 -0.00000000000E+00 -0.00000000000E+00 -0.45593999997E+02  0.45594000000E+02  0.51100000000E-03 0.  1.
    9900012    2    1    2    0    0 -0.28796743467E+01 -0.42520430346E+02  0.14588831987E+02  0.46142317189E+02  0.99999947857E+01 0.  0.
        -12    1    1    2    0    0  0.28796743467E+01  0.42520430346E+02 -0.14588831987E+02  0.45045682811E+02  0.00000000000E+00 0.  1.
         11    1    3    3    0    0 -0.42906888683E+00 -0.60370453199E+01  0.20664307460E+01  0.63953227122E+01  0.51100000000E-03 0. -1.
        -11    1    3    3    0    0 -0.74681517652E+00  0.36003963199E+00  0.41978196446E+00  0.92928930011E+00  0.51100000000E-03 0.  1.
        -12    1    3    3    0    0 -0.17037902833E+01 -0.36843424658E+02  0.12102619276E+02  0.38817705177E+02  0.00000000000E+00 0.  1.
</event>
<event>
 7    1  0.4452647E-009  0.4614232E+02  0.7816164E-02  0.1320468E+00
        -11   -1    0    0    0    0  0.00000000000E+00  0.00000000000E+00  0.45593999997E+02  0.45594000000E+02  0.51100000000E-03 0.  1.
         11   -1    0    0    0    0 -0.00000000000E+00 -0.00000000000E+00 -0.45593999997E+02  0.45594000000E+02  0.51100000000E-03 0. -1.
    9900012    2    1    2    0    0 -0.48142126776E+01 -0.43572365530E+02 -0.10362714781E+02  0.46142317197E+02  0.99999948535E+01 0.  0.
         12    1    1    2    0    0  0.48142126776E+01  0.43572365530E+02  0.10362714781E+02  0.45045682803E+02  0.00000000000E+00 0. -1.
         11    1    3    3    0    0 -0.27994769279E-01 -0.18249290568E+02 -0.19849681938E+01  0.18356946612E+02  0.51100000000E-03 0. -1.
        -11    1    3    3    0    0  0.96916280863E+00 -0.11194888988E+02 -0.35666670854E+01  0.11789229422E+02  0.51100000000E-03 0.  1.
        -12    1    3    3    0    0 -0.57553807170E+01 -0.14128185974E+02 -0.48110795021E+01  0.15996141162E+02  0.00000000000E+00 0.  1.
</event>
<event>
 7    1  0.4452647E-009  0.4614232E+02  0.7816164E-02  0.1320468E+00
        -11   -1    0    0    0    0  0.00000000000E+00  0.00000000000E+00  0.45593999997E+02  0.45594000000E+02  0.51100000000E-03 0. -1.
         11   -1    0    0    0    0 -0.00000000000E+00 -0.00000000000E+00 -0.45593999997E+02  0.45594000000E+02  0.51100000000E-03 0.  1.
    9900012    2    1    2    0    0 -0.40807269554E+02  0.10136521637E+02 -0.16159554007E+02  0.46142317576E+02  0.99999983144E+01 0.  0.
         12    1    1    2    0    0  0.40807269554E+02 -0.10136521637E+02  0.16159554007E+02  0.45045682424E+02  0.00000000000E+00 0. -1.
         11    1    3    3    0    0  0.11971087830E-01  0.35566294128E+00  0.56945907249E+00  0.67150825096E+00  0.51100000000E-03 0. -1.
        -11    1    3    3    0    0 -0.38490245846E+02  0.10381299752E+02 -0.15535013296E+02  0.42785593933E+02  0.51100000000E-03 0.  1.
        -12    1    3    3    0    0 -0.23289947949E+01 -0.60044105675E+00 -0.11939997837E+01  0.26852153919E+01  0.00000000000E+00 0.  1.
</event>
<event>
 7    1  0.4452647E-009  0.4614232E+02  0.7816164E-02  0.1320468E+00
        -11   -1    0    0    0    0  0.00000000000E+00  0.00000000000E+00  0.45593999997E+02  0.45594000000E+02  0.51100000000E-03 0. -1.
         11   -1    0    0    0    0 -0.00000000000E+00 -0.00000000000E+00 -0.45593999997E+02  0.45594000000E+02  0.51100000000E-03 0.  1.
    9900012    2    1    2    0    0  0.24574430661E+02  0.33554860918E+02 -0.17299773977E+02  0.46142317485E+02  0.99999974825E+01 0.  0.
         12    1    1    2    0    0 -0.24574430661E+02 -0.33554860918E+02  0.17299773977E+02  0.45045682515E+02  0.00000000000E+00 0. -1.
         11    1    3    3    0    0  0.29311661484E+01  0.83487101442E+01 -0.54307988016E+01  0.10382016757E+02  0.51100000000E-03 0. -1.
        -11    1    3    3    0    0  0.10261832383E+02  0.87569767183E+01 -0.27079367934E+01  0.13759461001E+02  0.51100000000E-03 0.  1.
        -12    1    3    3    0    0  0.11381432130E+02  0.16449174056E+02 -0.91610383823E+01  0.22000839727E+02  0.00000000000E+00 0.  1.
</event>
<event>
 7    1  0.4452647E-009  0.4614231E+02  0.7816164E-02  0.1320468E+00
        -11   -1    0    0    0    0  0.00000000000E+00  0.00000000000E+00  0.45593999997E+02  0.45594000000E+02  0.51100000000E-03 0. -1.
         11   -1    0    0    0    0 -0.00000000000E+00 -0.00000000000E+00 -0.45593999997E+02  0.45594000000E+02  0.51100000000E-03 0.  1.
    9900012    2    1    2    0    0 -0.40568674161E+02 -0.96912542757E+01  0.17011056937E+02  0.46142314405E+02  0.99999693969E+01 0.  0.
        -12    1    1    2    0    0  0.40568674161E+02  0.96912542757E+01 -0.17011056937E+02  0.45045685595E+02  0.00000000000E+00 0.  1.
         11    1    3    3    0    0 -0.10682525293E+02 -0.20532777247E+01  0.83673100891E+00  0.10910197756E+02  0.51100000000E-03 0.  1.
        -11    1    3    3    0    0 -0.18476407279E+02 -0.72921959594E+01  0.96370787876E+01  0.22077749788E+02  0.51100000000E-03 0. -1.
         12    1    3    3    0    0 -0.11409741589E+02 -0.34578059170E+00  0.65372471400E+01  0.13154366861E+02  0.00000000000E+00 0. -1.
</event>
<event>
 7    1  0.4452647E-009  0.4614232E+02  0.7816164E-02  0.1320468E+00
        -11   -1    0    0    0    0  0.00000000000E+00  0.00000000000E+00  0.45593999997E+02  0.45594000000E+02  0.51100000000E-03 0. -1.
         11   -1    0    0    0    0 -0.00000000000E+00 -0.00000000000E+00 -0.45593999997E+02  0.45594000000E+02  0.51100000000E-03 0.  1.
    9900012    2    1    2    0    0 -0.13956264006E+02 -0.39331684704E+02  0.16951542115E+02  0.46142317557E+02  0.99999981350E+01 0.  0.
        -12    1    1    2    0    0  0.13956264006E+02  0.39331684704E+02 -0.16951542115E+02  0.45045682443E+02  0.00000000000E+00 0.  1.
         11    1    3    3    0    0  0.88298851907E+00 -0.23230129987E+01  0.18518619774E+01  0.30992662295E+01  0.51100000000E-03 0. -1.
        -11    1    3    3    0    0 -0.93440738693E+01 -0.26065357293E+02  0.13112107710E+02  0.30637263849E+02  0.51100000000E-03 0.  1.
        -12    1    3    3    0    0 -0.54951786562E+01 -0.10943314413E+02  0.19875724281E+01  0.12405787478E+02  0.00000000000E+00 0.  1.
</event>
<event>
 7    1  0.4452647E-009  0.4614232E+02  0.7816164E-02  0.1320468E+00
        -11   -1    0    0    0    0  0.00000000000E+00  0.00000000000E+00  0.45593999997E+02  0.45594000000E+02  0.51100000000E-03 0. -1.
         11   -1    0    0    0    0 -0.00000000000E+00 -0.00000000000E+00 -0.45593999997E+02  0.45594000000E+02  0.51100000000E-03 0.  1.
    9900012    2    1    2    0    0 -0.18412501794E+02 -0.33646054970E+02  0.23622791629E+02  0.46142317391E+02  0.99999966253E+01 0.  0.
        -12    1    1    2    0    0  0.18412501794E+02  0.33646054970E+02 -0.23622791629E+02  0.45045682609E+02  0.00000000000E+00 0.  1.
         11    1    3    3    0    0 -0.50654122388E+01 -0.54657475221E+01  0.77671939004E+01  0.10763925793E+02  0.51100000000E-03 0. -1.
        -11    1    3    3    0    0 -0.11562291348E+02 -0.25517004724E+02  0.12314266508E+02  0.30601393288E+02  0.51100000000E-03 0.  1.
        -12    1    3    3    0    0 -0.17847982073E+01 -0.26633027242E+01  0.35413312205E+01  0.47769983101E+01  0.00000000000E+00 0.  1.
</event>
<event>
 7    1  0.4452647E-009  0.4614232E+02  0.7816164E-02  0.1320468E+00
        -11   -1    0    0    0    0  0.00000000000E+00  0.00000000000E+00  0.45593999997E+02  0.45594000000E+02  0.51100000000E-03 0. -1.
         11   -1    0    0    0    0 -0.00000000000E+00 -0.00000000000E+00 -0.45593999997E+02  0.45594000000E+02  0.51100000000E-03 0.  1.
    9900012    2    1    2    0    0  0.89862844786E+01  0.16426643917E+01 -0.44109657742E+02  0.46142316953E+02  0.99999926288E+01 0.  0.
         12    1    1    2    0    0 -0.89862844786E+01 -0.16426643917E+01  0.44109657742E+02  0.45045683047E+02  0.00000000000E+00 0. -1.
         11    1    3    3    0    0  0.74875185594E+01  0.26252840442E+01 -0.18575311176E+02  0.20198941458E+02  0.51100000000E-03 0. -1.
        -11    1    3    3    0    0  0.70423955851E+00 -0.89473352310E+00 -0.24891647000E+02  0.24917676298E+02  0.51100000000E-03 0.  1.
        -12    1    3    3    0    0  0.79452636068E+00 -0.87886129385E-01 -0.64269956611E+00  0.10256991966E+01  0.00000000000E+00 0.  1.
</event>
<event>
 7    1  0.4452647E-009  0.4614232E+02  0.7816164E-02  0.1320468E+00
        -11   -1    0    0    0    0  0.00000000000E+00  0.00000000000E+00  0.45593999997E+02  0.45594000000E+02  0.51100000000E-03 0. -1.
         11   -1    0    0    0    0 -0.00000000000E+00 -0.00000000000E+00 -0.45593999997E+02  0.45594000000E+02  0.51100000000E-03 0.  1.
    9900012    2    1    2    0    0 -0.81279595858E+01 -0.23468562307E+00  0.44305694665E+02  0.46142318919E+02  0.10000010555E+02 0.  0.
        -12    1    1    2    0    0  0.81279595858E+01  0.23468562307E+00 -0.44305694665E+02  0.45045681081E+02  0.00000000000E+00 0.  1.
         11    1    3    3    0    0  0.30409297993E+00  0.21982477001E+01  0.43924125100E+01  0.49211841471E+01  0.51100000000E-03 0. -1.
        -11    1    3    3    0    0 -0.11258396732E+01 -0.12897255618E+01  0.18255745101E+02  0.18335842943E+02  0.51100000000E-03 0.  1.
        -12    1    3    3    0    0 -0.73062128925E+01 -0.11432077613E+01  0.21657537054E+02  0.22885291828E+02  0.00000000000E+00 0.  1.
</event>
<event>
 7    1  0.4452647E-009  0.4614232E+02  0.7816164E-02  0.1320468E+00
        -11   -1    0    0    0    0  0.00000000000E+00  0.00000000000E+00  0.45593999997E+02  0.45594000000E+02  0.51100000000E-03 0. -1.
         11   -1    0    0    0    0 -0.00000000000E+00 -0.00000000000E+00 -0.45593999997E+02  0.45594000000E+02  0.51100000000E-03 0.  1.
    9900012    2    1    2    0    0 -0.17882378982E+02  0.37762820401E+02  0.16831622042E+02  0.46142316708E+02  0.99999903933E+01 0.  0.
        -12    1    1    2    0    0  0.17882378982E+02 -0.37762820401E+02 -0.16831622042E+02  0.45045683292E+02  0.00000000000E+00 0.  1.
         11    1    3    3    0    0 -0.88757056673E+01  0.16908343628E+02  0.99118288433E+01  0.21515449951E+02  0.51100000000E-03 0. -1.
        -11    1    3    3    0    0 -0.59517738260E+01  0.10118117195E+02  0.49898468331E+00  0.11749420974E+02  0.51100000000E-03 0.  1.
        -12    1    3    3    0    0 -0.30548994884E+01  0.10736359578E+02  0.64208085153E+01  0.12877445782E+02  0.00000000000E+00 0.  1.
</event>
<event>
 7    1  0.4452647E-009  0.4614232E+02  0.7816164E-02  0.1320468E+00
        -11   -1    0    0    0    0  0.00000000000E+00  0.00000000000E+00  0.45593999997E+02  0.45594000000E+02  0.51100000000E-03 0. -1.
         11   -1    0    0    0    0 -0.00000000000E+00 -0.00000000000E+00 -0.45593999997E+02  0.45594000000E+02  0.51100000000E-03 0.  1.
    9900012    2    1    2    0    0 -0.54744334983E+01 -0.31204475019E+02  0.32022255169E+02  0.46142317527E+02  0.99999978635E+01 0.  0.
        -12    1    1    2    0    0  0.54744334983E+01  0.31204475019E+02 -0.32022255169E+02  0.45045682473E+02  0.00000000000E+00 0.  1.
         11    1    3    3    0    0 -0.16260260303E+01 -0.23223933375E+02  0.24298811360E+02  0.33651556811E+02  0.51100000000E-03 0. -1.
        -11    1    3    3    0    0 -0.30326385839E+01 -0.19063566278E+01  0.37543788955E+01  0.51890705840E+01  0.51100000000E-03 0.  1.
         12    1    3    3    0    0 -0.81576888401E+00 -0.60741850169E+01  0.39690649136E+01  0.73016901317E+01  0.00000000000E+00 0. -1.
</event>
<event>
 7    1  0.4452647E-009  0.4614232E+02  0.7816164E-02  0.1320468E+00
        -11   -1    0    0    0    0  0.00000000000E+00  0.00000000000E+00  0.45593999997E+02  0.45594000000E+02  0.51100000000E-03 0.  1.
         11   -1    0    0    0    0 -0.00000000000E+00 -0.00000000000E+00 -0.45593999997E+02  0.45594000000E+02  0.51100000000E-03 0. -1.
    9900012    2    1    2    0    0  0.12557683083E+02 -0.43184790366E+02 -0.25479503087E+01  0.46142316809E+02  0.99999913211E+01 0.  0.
        -12    1    1    2    0    0 -0.12557683083E+02  0.43184790366E+02  0.25479503087E+01  0.45045683191E+02  0.00000000000E+00 0.  1.
         11    1    3    3    0    0  0.33372942990E+01 -0.85920467927E+01 -0.59143406489E+00  0.92363735221E+01  0.51100000000E-03 0. -1.
        -11    1    3    3    0    0  0.16065256717E+01 -0.14433794134E+02  0.29166712309E+01  0.14812910219E+02  0.51100000000E-03 0.  1.
        -12    1    3    3    0    0  0.76138631125E+01 -0.20158949439E+02 -0.48731874747E+01  0.22093033068E+02  0.00000000000E+00 0.  1.
</event>
<event>
 7    1  0.4452647E-009  0.4614232E+02  0.7816164E-02  0.1320468E+00
        -11   -1    0    0    0    0  0.00000000000E+00  0.00000000000E+00  0.45593999997E+02  0.45594000000E+02  0.51100000000E-03 0. -1.
         11   -1    0    0    0    0 -0.00000000000E+00 -0.00000000000E+00 -0.45593999997E+02  0.45594000000E+02  0.51100000000E-03 0.  1.
    9900012    2    1    2    0    0  0.25139331061E+02 -0.29843318945E+02 -0.22505640248E+02  0.46142317690E+02  0.99999993488E+01 0.  0.
         12    1    1    2    0    0 -0.25139331061E+02  0.29843318945E+02  0.22505640248E+02  0.45045682310E+02  0.00000000000E+00 0. -1.
         11    1    3    3    0    0  0.35977397070E+00 -0.35793723607E+01 -0.98477767904E+00  0.37297628805E+01  0.51100000000E-03 0. -1.
        -11    1    3    3    0    0  0.14382904353E+02 -0.17116855667E+02 -0.16056282339E+02  0.27525604232E+02  0.51100000000E-03 0.  1.
        -12    1    3    3    0    0  0.10396652737E+02 -0.91470909172E+01 -0.54645802300E+01  0.14886950577E+02  0.00000000000E+00 0.  1.
</event>
<event>
 7    1  0.4452647E-009  0.4614232E+02  0.7816164E-02  0.1320468E+00
        -11   -1    0    0    0    0  0.00000000000E+00  0.00000000000E+00  0.45593999997E+02  0.45594000000E+02  0.51100000000E-03 0. -1.
         11   -1    0    0    0    0 -0.00000000000E+00 -0.00000000000E+00 -0.45593999997E+02  0.45594000000E+02  0.51100000000E-03 0.  1.
    9900012    2    1    2    0    0  0.18098579062E+02 -0.37179870439E+02 -0.17866509016E+02  0.46142317917E+02  0.10000001421E+02 0.  0.
         12    1    1    2    0    0 -0.18098579062E+02  0.37179870439E+02  0.17866509016E+02  0.45045682083E+02  0.00000000000E+00 0. -1.
         11    1    3    3    0    0  0.15167848428E+02 -0.23190727758E+02 -0.99415763784E+01  0.29439912042E+02  0.51100000000E-03 0. -1.
        -11    1    3    3    0    0  0.20548502895E+00 -0.41831286497E+01 -0.40081807397E+01  0.57970943153E+01  0.51100000000E-03 0.  1.
         12    1    3    3    0    0  0.27252456047E+01 -0.98060140314E+01 -0.39167518975E+01  0.10905311560E+02  0.00000000000E+00 0. -1.
</event>
<event>
 7    1  0.4452647E-009  0.4614232E+02  0.7816164E-02  0.1320468E+00
        -11   -1    0    0    0    0  0.00000000000E+00  0.00000000000E+00  0.45593999997E+02  0.45594000000E+02  0.51100000000E-03 0. -1.
         11   -1    0    0    0    0 -0.00000000000E+00 -0.00000000000E+00 -0.45593999997E+02  0.45594000000E+02  0.51100000000E-03 0.  1.
    9900012    2    1    2    0    0 -0.82675831583E+01  0.41257105063E+01  0.44087857111E+02  0.46142316932E+02  0.99999924366E+01 0.  0.
        -12    1    1    2    0    0  0.82675831583E+01 -0.41257105063E+01 -0.44087857111E+02  0.45045683068E+02  0.00000000000E+00 0.  1.
         11    1    3    3    0    0  0.27977129608E+00  0.64955684826E+00  0.13713083784E+02  0.13731309595E+02  0.51100000000E-03 0. -1.
        -11    1    3    3    0    0 -0.33494138516E+01 -0.10500624718E+01  0.49479249493E+01  0.60665612919E+01  0.51100000000E-03 0.  1.
         12    1    3    3    0    0 -0.51979406028E+01  0.45262161299E+01  0.25426848378E+02  0.26344446044E+02  0.00000000000E+00 0. -1.
</event>
<event>
 7    1  0.4452647E-009  0.4614232E+02  0.7816164E-02  0.1320468E+00
        -11   -1    0    0    0    0  0.00000000000E+00  0.00000000000E+00  0.45593999997E+02  0.45594000000E+02  0.51100000000E-03 0. -1.
         11   -1    0    0    0    0 -0.00000000000E+00 -0.00000000000E+00 -0.45593999997E+02  0.45594000000E+02  0.51100000000E-03 0.  1.
    9900012    2    1    2    0    0 -0.15821377561E+02 -0.21129045945E+02 -0.36501520394E+02  0.46142316948E+02  0.99999925896E+01 0.  0.
         12    1    1    2    0    0  0.15821377561E+02  0.21129045945E+02  0.36501520394E+02  0.45045683052E+02  0.00000000000E+00 0. -1.
         11    1    3    3    0    0 -0.35013195950E+01 -0.80802719598E+01 -0.19081940769E+02  0.21015958165E+02  0.51100000000E-03 0. -1.
        -11    1    3    3    0    0 -0.65054304064E+01 -0.55242199314E+01 -0.71896241314E+01  0.11159226050E+02  0.51100000000E-03 0.  1.
         12    1    3    3    0    0 -0.58146275594E+01 -0.75245540540E+01 -0.10229955494E+02  0.13967132733E+02  0.00000000000E+00 0. -1.
</event>
<event>
 7    1  0.4452647E-009  0.4614233E+02  0.7816164E-02  0.1320468E+00
        -11   -1    0    0    0    0  0.00000000000E+00  0.00000000000E+00  0.45593999997E+02  0.45594000000E+02  0.51100000000E-03 0. -1.
         11   -1    0    0    0    0 -0.00000000000E+00 -0.00000000000E+00 -0.45593999997E+02  0.45594000000E+02  0.51100000000E-03 0.  1.
    9900012    2    1    2    0    0 -0.34200198217E+02  0.12583535523E+02 -0.26478552967E+02  0.46142326606E+02  0.10000080652E+02 0.  0.
         12    1    1    2    0    0  0.34200198217E+02 -0.12583535523E+02  0.26478552967E+02  0.45045673394E+02  0.00000000000E+00 0. -1.
         11    1    3    3    0    0 -0.20080606324E+01  0.19605990337E+01  0.12348319816E+00  0.28091821649E+01  0.51100000000E-03 0. -1.
        -11    1    3    3    0    0 -0.18952353799E+02  0.73164426215E+01 -0.18412733644E+02  0.27418074470E+02  0.51100000000E-03 0.  1.
         12    1    3    3    0    0 -0.13239783786E+02  0.33064938673E+01 -0.81893025210E+01  0.15915069970E+02  0.00000000000E+00 0. -1.
</event>
<event>
 7    1  0.4452647E-009  0.4614232E+02  0.7816164E-02  0.1320468E+00
        -11   -1    0    0    0    0  0.00000000000E+00  0.00000000000E+00  0.45593999997E+02  0.45594000000E+02  0.51100000000E-03 0. -1.
         11   -1    0    0    0    0 -0.00000000000E+00 -0.00000000000E+00 -0.45593999997E+02  0.45594000000E+02  0.51100000000E-03 0.  1.
    9900012    2    1    2    0    0  0.92905785637E+01 -0.32633174859E+01 -0.43956222348E+02  0.46142316809E+02  0.99999913147E+01 0.  0.
         12    1    1    2    0    0 -0.92905785637E+01  0.32633174859E+01  0.43956222348E+02  0.45045683191E+02  0.00000000000E+00 0. -1.
         11    1    3    3    0    0  0.32814889204E+01  0.37326868309E+00 -0.41730024548E+01  0.53217899991E+01  0.51100000000E-03 0. -1.
        -11    1    3    3    0    0 -0.47908378305E+00 -0.40115560533E-01 -0.15675679001E+00  0.50567131786E+00  0.51100000000E-03 0.  1.
        -12    1    3    3    0    0  0.64881734263E+01 -0.35964706085E+01 -0.39626463103E+02  0.40314855492E+02  0.00000000000E+00 0.  1.
</event>
<event>
 7    1  0.4452647E-009  0.4614232E+02  0.7816164E-02  0.1320468E+00
        -11   -1    0    0    0    0  0.00000000000E+00  0.00000000000E+00  0.45593999997E+02  0.45594000000E+02  0.51100000000E-03 0. -1.
         11   -1    0    0    0    0 -0.00000000000E+00 -0.00000000000E+00 -0.45593999997E+02  0.45594000000E+02  0.51100000000E-03 0.  1.
    9900012    2    1    2    0    0 -0.98652891614E+01  0.41188065797E+02 -0.15340559792E+02  0.46142317975E+02  0.10000001953E+02 0.  0.
         12    1    1    2    0    0  0.98652891614E+01 -0.41188065797E+02  0.15340559792E+02  0.45045682025E+02  0.00000000000E+00 0. -1.
         11    1    3    3    0    0 -0.37879078104E+01  0.71041128647E+01 -0.15016359379E+01  0.81897238003E+01  0.51100000000E-03 0. -1.
        -11    1    3    3    0    0 -0.32162813895E+01  0.23701267454E+02 -0.12812755508E+02  0.27134134386E+02  0.51100000000E-03 0.  1.
        -12    1    3    3    0    0 -0.28610999616E+01  0.10382685478E+02 -0.10261683455E+01  0.10818459789E+02  0.00000000000E+00 0.  1.
</event>
<event>
 7    1  0.4452647E-009  0.4614232E+02  0.7816164E-02  0.1320468E+00
        -11   -1    0    0    0    0  0.00000000000E+00  0.00000000000E+00  0.45593999997E+02  0.45594000000E+02  0.51100000000E-03 0. -1.
         11   -1    0    0    0    0 -0.00000000000E+00 -0.00000000000E+00 -0.45593999997E+02  0.45594000000E+02  0.51100000000E-03 0.  1.
    9900012    2    1    2    0    0 -0.20566983479E+02  0.32595686109E+02 -0.23315949439E+02  0.46142322510E+02  0.10000043300E+02 0.  0.
         12    1    1    2    0    0  0.20566983479E+02 -0.32595686109E+02  0.23315949439E+02  0.45045677490E+02  0.00000000000E+00 0. -1.
         11    1    3    3    0    0 -0.88997670268E+01  0.94569825270E+01 -0.12288191438E+02  0.17878479262E+02  0.51100000000E-03 0. -1.
        -11    1    3    3    0    0 -0.90454579160E+01  0.19832151841E+02 -0.94667010855E+01  0.23764532086E+02  0.51100000000E-03 0.  1.
         12    1    3    3    0    0 -0.26217585358E+01  0.33065517406E+01 -0.15610569162E+01  0.44993111616E+01  0.00000000000E+00 0. -1.
</event>
<event>
 7    1  0.4452647E-009  0.4614232E+02  0.7816164E-02  0.1320468E+00
        -11   -1    0    0    0    0  0.00000000000E+00  0.00000000000E+00  0.45593999997E+02  0.45594000000E+02  0.51100000000E-03 0. -1.
         11   -1    0    0    0    0 -0.00000000000E+00 -0.00000000000E+00 -0.45593999997E+02  0.45594000000E+02  0.51100000000E-03 0.  1.
    9900012    2    1    2    0    0 -0.44168500237E+01 -0.15491887399E+02 -0.42066690400E+02  0.46142316738E+02  0.99999906735E+01 0.  0.
         12    1    1    2    0    0  0.44168500237E+01  0.15491887399E+02  0.42066690400E+02  0.45045683262E+02  0.00000000000E+00 0. -1.
         11    1    3    3    0    0 -0.68539199068E+00 -0.12394537929E+01 -0.47926571881E+00  0.14952269982E+01  0.51100000000E-03 0. -1.
        -11    1    3    3    0    0  0.51699736456E+00 -0.37828476595E+01 -0.19132803386E+02  0.19510033017E+02  0.51100000000E-03 0.  1.
        -12    1    3    3    0    0 -0.42484553976E+01 -0.10469585947E+02 -0.22454621295E+02  0.25137056723E+02  0.00000000000E+00 0.  1.
</event>
<event>
 7    1  0.4452647E-009  0.4614232E+02  0.7816164E-02  0.1320468E+00
        -11   -1    0    0    0    0  0.00000000000E+00  0.00000000000E+00  0.45593999997E+02  0.45594000000E+02  0.51100000000E-03 0. -1.
         11   -1    0    0    0    0 -0.00000000000E+00 -0.00000000000E+00 -0.45593999997E+02  0.45594000000E+02  0.51100000000E-03 0.  1.
    9900012    2    1    2    0    0 -0.66213113374E+01 -0.32362015877E+02 -0.30626322611E+02  0.46142317941E+02  0.10000001643E+02 0.  0.
         12    1    1    2    0    0  0.66213113374E+01  0.32362015877E+02  0.30626322611E+02  0.45045682059E+02  0.00000000000E+00 0. -1.
         11    1    3    3    0    0 -0.35419690203E+01 -0.12355052808E+02 -0.69208032766E+01  0.14597615993E+02  0.51100000000E-03 0. -1.
        -11    1    3    3    0    0 -0.31407067614E+01 -0.20194371298E+02 -0.23759821974E+02  0.31340162916E+02  0.51100000000E-03 0.  1.
        -12    1    3    3    0    0  0.61364444265E-01  0.18740822860E+00  0.54302639829E-01  0.20453903260E+00  0.00000000000E+00 0.  1.
</event>
<event>
 7    1  0.4452647E-009  0.4614232E+02  0.7816164E-02  0.1320468E+00
        -11   -1    0    0    0    0  0.00000000000E+00  0.00000000000E+00  0.45593999997E+02  0.45594000000E+02  0.51100000000E-03 0. -1.
         11   -1    0    0    0    0 -0.00000000000E+00 -0.00000000000E+00 -0.45593999997E+02  0.45594000000E+02  0.51100000000E-03 0.  1.
    9900012    2    1    2    0    0 -0.31860950077E+02 -0.29868282293E+02 -0.11039884378E+02  0.46142317920E+02  0.10000001449E+02 0.  0.
         12    1    1    2    0    0  0.31860950077E+02  0.29868282293E+02  0.11039884378E+02  0.45045682080E+02  0.00000000000E+00 0. -1.
         11    1    3    3    0    0 -0.17306258113E+01 -0.44071711680E+01 -0.28263113634E+01  0.55141871193E+01  0.51100000000E-03 0. -1.
        -11    1    3    3    0    0 -0.18324995659E+02 -0.17122490697E+02 -0.29779929390E+01  0.25255763616E+02  0.51100000000E-03 0.  1.
        -12    1    3    3    0    0 -0.11805328606E+02 -0.83386204279E+01 -0.52355800761E+01  0.15372367185E+02  0.00000000000E+00 0.  1.
</event>
<event>
 7    1  0.4452647E-009  0.4614232E+02  0.7816164E-02  0.1320468E+00
        -11   -1    0    0    0    0  0.00000000000E+00  0.00000000000E+00  0.45593999997E+02  0.45594000000E+02  0.51100000000E-03 0. -1.
         11   -1    0    0    0    0 -0.00000000000E+00 -0.00000000000E+00 -0.45593999997E+02  0.45594000000E+02  0.51100000000E-03 0.  1.
    9900012    2    1    2    0    0  0.47348957768E+01 -0.23087785970E+02  0.38388127589E+02  0.46142318311E+02  0.10000005017E+02 0.  0.
        -12    1    1    2    0    0 -0.47348957768E+01  0.23087785970E+02 -0.38388127589E+02  0.45045681689E+02  0.00000000000E+00 0.  1.
         11    1    3    3    0    0  0.12754170587E+01 -0.55700311040E+00  0.37736242013E+00  0.14419929943E+01  0.51100000000E-03 0.  1.
        -11    1    3    3    0    0  0.44678730759E+00 -0.13434845891E+02  0.26571926278E+02  0.29778548813E+02  0.51100000000E-03 0. -1.
        -12    1    3    3    0    0  0.30126914105E+01 -0.90959369677E+01  0.11438838891E+02  0.14921776504E+02  0.00000000000E+00 0.  1.
</event>
<event>
 7    1  0.4452647E-009  0.4614231E+02  0.7816164E-02  0.1320468E+00
        -11   -1    0    0    0    0  0.00000000000E+00  0.00000000000E+00  0.45593999997E+02  0.45594000000E+02  0.51100000000E-03 0. -1.
         11   -1    0    0    0    0 -0.00000000000E+00 -0.00000000000E+00 -0.45593999997E+02  0.45594000000E+02  0.51100000000E-03 0.  1.
    9900012    2    1    2    0    0  0.11184937705E+02 -0.10704332084E+02  0.42301637270E+02  0.46142311277E+02  0.99999408696E+01 0.  0.
        -12    1    1    2    0    0 -0.11184937705E+02  0.10704332084E+02 -0.42301637270E+02  0.45045688723E+02  0.00000000000E+00 0.  1.
         11    1    3    3    0    0  0.10234066404E+02 -0.87706581635E+01  0.33621458828E+02  0.36222410932E+02  0.51100000000E-03 0. -1.
        -11    1    3    3    0    0 -0.84710848753E+00  0.96990226063E+00  0.33553594710E+01  0.35939867314E+01  0.51100000000E-03 0.  1.
         12    1    3    3    0    0  0.17979797886E+01 -0.29035761816E+01  0.53248189711E+01  0.63259136129E+01  0.00000000000E+00 0. -1.
</event>
<event>
 7    1  0.4452647E-009  0.4614232E+02  0.7816164E-02  0.1320468E+00
        -11   -1    0    0    0    0  0.00000000000E+00  0.00000000000E+00  0.45593999997E+02  0.45594000000E+02  0.51100000000E-03 0. -1.
         11   -1    0    0    0    0 -0.00000000000E+00 -0.00000000000E+00 -0.45593999997E+02  0.45594000000E+02  0.51100000000E-03 0.  1.
    9900012    2    1    2    0    0  0.92206597772E+01  0.42725543229E+01  0.43884372703E+02  0.46142318135E+02  0.10000003412E+02 0.  0.
        -12    1    1    2    0    0 -0.92206597772E+01 -0.42725543229E+01 -0.43884372703E+02  0.45045681865E+02  0.00000000000E+00 0.  1.
         11    1    3    3    0    0  0.36990533160E+01  0.12098532831E+01  0.10107803431E+02  0.10831178646E+02  0.51100000000E-03 0.  1.
        -11    1    3    3    0    0  0.76079339353E+01  0.27099078110E+01  0.28610815660E+02  0.29728824936E+02  0.51100000000E-03 0. -1.
        -12    1    3    3    0    0 -0.20863274741E+01  0.35279322879E+00  0.51657536122E+01  0.55823145534E+01  0.00000000000E+00 0.  1.
</event>
<event>
 7    1  0.4452647E-009  0.4614232E+02  0.7816164E-02  0.1320468E+00
        -11   -1    0    0    0    0  0.00000000000E+00  0.00000000000E+00  0.45593999997E+02  0.45594000000E+02  0.51100000000E-03 0. -1.
         11   -1    0    0    0    0 -0.00000000000E+00 -0.00000000000E+00 -0.45593999997E+02  0.45594000000E+02  0.51100000000E-03 0.  1.
    9900012    2    1    2    0    0 -0.14395900360E+02 -0.89430375625E+01 -0.41735998571E+02  0.46142318245E+02  0.10000004415E+02 0.  0.
         12    1    1    2    0    0  0.14395900360E+02  0.89430375625E+01  0.41735998571E+02  0.45045681755E+02  0.00000000000E+00 0. -1.
         11    1    3    3    0    0  0.82330490749E+00 -0.20222652374E+00 -0.11638440937E+01  0.14398818956E+01  0.51100000000E-03 0. -1.
        -11    1    3    3    0    0 -0.10846829868E+02 -0.27228075044E+01 -0.27021381458E+02  0.29244186688E+02  0.51100000000E-03 0.  1.
         12    1    3    3    0    0 -0.43723753989E+01 -0.60180035343E+01 -0.13550773020E+02  0.15458249662E+02  0.00000000000E+00 0. -1.
</event>
<event>
 7    1  0.4452647E-009  0.4614232E+02  0.7816164E-02  0.1320468E+00
        -11   -1    0    0    0    0  0.00000000000E+00  0.00000000000E+00  0.45593999997E+02  0.45594000000E+02  0.51100000000E-03 0.  1.
         11   -1    0    0    0    0 -0.00000000000E+00 -0.00000000000E+00 -0.45593999997E+02  0.45594000000E+02  0.51100000000E-03 0. -1.
    9900012    2    1    2    0    0  0.25173147131E+02 -0.33473060747E+02 -0.16582533434E+02  0.46142317107E+02  0.99999940357E+01 0.  0.
         12    1    1    2    0    0 -0.25173147131E+02  0.33473060747E+02  0.16582533434E+02  0.45045682893E+02  0.00000000000E+00 0. -1.
         11    1    3    3    0    0  0.20129091930E+01 -0.11130676568E+01 -0.32674593577E+01  0.39958746156E+01  0.51100000000E-03 0. -1.
        -11    1    3    3    0    0  0.93789099039E+01 -0.15558469265E+02 -0.74778818693E+01  0.19645575440E+02  0.51100000000E-03 0.  1.
         12    1    3    3    0    0  0.13781328034E+02 -0.16801523825E+02 -0.58371922066E+01  0.22500867052E+02  0.00000000000E+00 0. -1.
</event>
<event>
 7    1  0.4452647E-009  0.4614232E+02  0.7816164E-02  0.1320468E+00
        -11   -1    0    0    0    0  0.00000000000E+00  0.00000000000E+00  0.45593999997E+02  0.45594000000E+02  0.51100000000E-03 0. -1.
         11   -1    0    0    0    0 -0.00000000000E+00 -0.00000000000E+00 -0.45593999997E+02  0.45594000000E+02  0.51100000000E-03 0.  1.
    9900012    2    1    2    0    0  0.27649310530E+02 -0.61226625106E+01  0.35030589053E+02  0.46142317205E+02  0.99999949321E+01 0.  0.
        -12    1    1    2    0    0 -0.27649310530E+02  0.61226625106E+01 -0.35030589053E+02  0.45045682795E+02  0.00000000000E+00 0.  1.
         11    1    3    3    0    0  0.20038198186E+02 -0.77009811250E+01  0.25308250709E+02  0.33186473917E+02  0.51100000000E-03 0. -1.
        -11    1    3    3    0    0  0.31476349414E+01  0.19461257297E+01  0.63495600664E+01  0.73492805347E+01  0.51100000000E-03 0.  1.
        -12    1    3    3    0    0  0.44634774028E+01 -0.36780711530E+00  0.33727782781E+01  0.56065627538E+01  0.00000000000E+00 0.  1.
</event>
<event>
 7    1  0.4452647E-009  0.4614232E+02  0.7816164E-02  0.1320468E+00
        -11   -1    0    0    0    0  0.00000000000E+00  0.00000000000E+00  0.45593999997E+02  0.45594000000E+02  0.51100000000E-03 0. -1.
         11   -1    0    0    0    0 -0.00000000000E+00 -0.00000000000E+00 -0.45593999997E+02  0.45594000000E+02  0.51100000000E-03 0.  1.
    9900012    2    1    2    0    0 -0.29433265839E+02  0.20176883636E+02 -0.27489811272E+02  0.46142317688E+02  0.99999993341E+01 0.  0.
         12    1    1    2    0    0  0.29433265839E+02 -0.20176883636E+02  0.27489811272E+02  0.45045682312E+02  0.00000000000E+00 0. -1.
         11    1    3    3    0    0 -0.10617760466E+02  0.13037056778E+02 -0.11581805270E+02  0.20416657423E+02  0.51100000000E-03 0. -1.
        -11    1    3    3    0    0 -0.16135357677E+02  0.67949956940E+01 -0.13539089348E+02  0.22132073434E+02  0.51100000000E-03 0.  1.
         12    1    3    3    0    0 -0.26801476954E+01  0.34483116379E+00 -0.23689166534E+01  0.35935868309E+01  0.00000000000E+00 0. -1.
</event>
<event>
 7    1  0.6508668E-009  0.4614232E+02  0.7816164E-02  0.1320468E+00
        -11   -1    0    0    0    0  0.00000000000E+00  0.00000000000E+00  0.45593999997E+02  0.45594000000E+02  0.51100000000E-03 0. -1.
         11   -1    0    0    0    0 -0.00000000000E+00 -0.00000000000E+00 -0.45593999997E+02  0.45594000000E+02  0.51100000000E-03 0.  1.
    9900012    2    1    2    0    0 -0.25736327296E+02 -0.32831349539E+01  0.36823578825E+02  0.46142317906E+02  0.10000001322E+02 0.  0.
        -12    1    1    2    0    0  0.25736327296E+02  0.32831349539E+01 -0.36823578825E+02  0.45045682094E+02  0.00000000000E+00 0.  1.
         11    1    3    3    0    0 -0.17401037401E+02  0.42242559328E+00  0.17999723179E+02  0.25039260788E+02  0.51100000000E-03 0. -1.
        -11    1    3    3    0    0 -0.16264555112E+01 -0.11993738325E+00  0.57542382341E+01  0.59808862572E+01  0.51100000000E-03 0.  1.
         12    1    3    3    0    0 -0.67088343843E+01 -0.35856231639E+01  0.13069617412E+02  0.15122170861E+02  0.00000000000E+00 0. -1.
</event>
<event>
 7    1  0.4452647E-009  0.4614231E+02  0.7816164E-02  0.1320468E+00
        -11   -1    0    0    0    0  0.00000000000E+00  0.00000000000E+00  0.45593999997E+02  0.45594000000E+02  0.51100000000E-03 0. -1.
         11   -1    0    0    0    0 -0.00000000000E+00 -0.00000000000E+00 -0.45593999997E+02  0.45594000000E+02  0.51100000000E-03 0.  1.
    9900012    2    1    2    0    0 -0.55009061885E+01 -0.25260415982E+02  0.36888550778E+02  0.46142314713E+02  0.99999722005E+01 0.  0.
        -12    1    1    2    0    0  0.55009061885E+01  0.25260415982E+02 -0.36888550778E+02  0.45045685287E+02  0.00000000000E+00 0.  1.
         11    1    3    3    0    0 -0.24645747210E+01 -0.15955591956E+02  0.22691767539E+02  0.27849081807E+02  0.51100000000E-03 0. -1.
        -11    1    3    3    0    0 -0.87123888527E+00 -0.47441950639E+01  0.22478759366E+01  0.53215966107E+01  0.51100000000E-03 0.  1.
        -12    1    3    3    0    0 -0.21650925822E+01 -0.45606289628E+01  0.11948907303E+02  0.12971636295E+02  0.00000000000E+00 0.  1.
</event>
<event>
 7    1  0.4452647E-009  0.4614232E+02  0.7816164E-02  0.1320468E+00
        -11   -1    0    0    0    0  0.00000000000E+00  0.00000000000E+00  0.45593999997E+02  0.45594000000E+02  0.51100000000E-03 0. -1.
         11   -1    0    0    0    0 -0.00000000000E+00 -0.00000000000E+00 -0.45593999997E+02  0.45594000000E+02  0.51100000000E-03 0.  1.
    9900012    2    1    2    0    0 -0.28034896604E+02  0.35457261762E+01  0.35079703587E+02  0.46142320901E+02  0.10000028636E+02 0.  0.
        -12    1    1    2    0    0  0.28034896604E+02 -0.35457261762E+01 -0.35079703587E+02  0.45045679099E+02  0.00000000000E+00 0.  1.
         11    1    3    3    0    0  0.78053054123E-01  0.24522792049E+00  0.28719305429E+01  0.28834379335E+01  0.51100000000E-03 0. -1.
        -11    1    3    3    0    0 -0.21350843531E+02  0.47080247660E+01  0.22813721171E+02  0.31598890654E+02  0.51100000000E-03 0.  1.
        -12    1    3    3    0    0 -0.67621061278E+01 -0.14075265102E+01  0.93940518729E+01  0.11659992314E+02  0.00000000000E+00 0.  1.
</event>
<event>
 7    1  0.4452647E-009  0.4614232E+02  0.7816164E-02  0.1320468E+00
        -11   -1    0    0    0    0  0.00000000000E+00  0.00000000000E+00  0.45593999997E+02  0.45594000000E+02  0.51100000000E-03 0. -1.
         11   -1    0    0    0    0 -0.00000000000E+00 -0.00000000000E+00 -0.45593999997E+02  0.45594000000E+02  0.51100000000E-03 0.  1.
    9900012    2    1    2    0    0  0.15027364540E+02 -0.11234866941E+01 -0.42450320338E+02  0.46142316476E+02  0.99999882793E+01 0.  0.
         12    1    1    2    0    0 -0.15027364540E+02  0.11234866941E+01  0.42450320338E+02  0.45045683524E+02  0.00000000000E+00 0. -1.
         11    1    3    3    0    0 -0.87589241534E+00  0.74630699814E+00 -0.18197199430E+01  0.21530310241E+01  0.51100000000E-03 0. -1.
        -11    1    3    3    0    0  0.11950120594E+02 -0.28409749136E+01 -0.25250531148E+02  0.28079633975E+02  0.51100000000E-03 0.  1.
        -12    1    3    3    0    0  0.39531363611E+01  0.97118122145E+00 -0.15380069247E+02  0.15909651476E+02  0.00000000000E+00 0.  1.
</event>
<event>
 7    1  0.4452647E-009  0.4614232E+02  0.7816164E-02  0.1320468E+00
        -11   -1    0    0    0    0  0.00000000000E+00  0.00000000000E+00  0.45593999997E+02  0.45594000000E+02  0.51100000000E-03 0. -1.
         11   -1    0    0    0    0 -0.00000000000E+00 -0.00000000000E+00 -0.45593999997E+02  0.45594000000E+02  0.51100000000E-03 0.  1.
    9900012    2    1    2    0    0 -0.10466020753E+02  0.24065370880E+02  0.36611931964E+02  0.46142320649E+02  0.10000026338E+02 0.  0.
        -12    1    1    2    0    0  0.10466020753E+02 -0.24065370880E+02 -0.36611931964E+02  0.45045679351E+02  0.00000000000E+00 0.  1.
         11    1    3    3    0    0 -0.24158010578E+01  0.19780535068E+01  0.27464404795E+01  0.41583321170E+01  0.51100000000E-03 0. -1.
        -11    1    3    3    0    0 -0.22135963634E+01  0.54371389856E+01  0.15225232490E+02  0.16317787651E+02  0.51100000000E-03 0.  1.
        -12    1    3    3    0    0 -0.58366233323E+01  0.16650178388E+02  0.18640258995E+02  0.25666200881E+02  0.00000000000E+00 0.  1.
</event>
<event>
 7    1  0.4452647E-009  0.4614232E+02  0.7816164E-02  0.1320468E+00
        -11   -1    0    0    0    0  0.00000000000E+00  0.00000000000E+00  0.45593999997E+02  0.45594000000E+02  0.51100000000E-03 0. -1.
         11   -1    0    0    0    0 -0.00000000000E+00 -0.00000000000E+00 -0.45593999997E+02  0.45594000000E+02  0.51100000000E-03 0.  1.
    9900012    2    1    2    0    0 -0.48187897275E+01 -0.32765105274E+02  0.30534252979E+02  0.46142318042E+02  0.10000002565E+02 0.  0.
        -12    1    1    2    0    0  0.48187897275E+01  0.32765105274E+02 -0.30534252979E+02  0.45045681958E+02  0.00000000000E+00 0.  1.
         11    1    3    3    0    0 -0.25419124251E+01 -0.10545534752E+02  0.63963636682E+01  0.12592977822E+02  0.51100000000E-03 0. -1.
        -11    1    3    3    0    0  0.16060182590E+01 -0.12083679339E+02  0.15231473614E+02  0.19508777248E+02  0.51100000000E-03 0.  1.
         12    1    3    3    0    0 -0.38828955614E+01 -0.10135891183E+02  0.89064156967E+01  0.14040562972E+02  0.00000000000E+00 0. -1.
</event>
<event>
 7    1  0.4452647E-009  0.4614232E+02  0.7816164E-02  0.1320468E+00
        -11   -1    0    0    0    0  0.00000000000E+00  0.00000000000E+00  0.45593999997E+02  0.45594000000E+02  0.51100000000E-03 0. -1.
         11   -1    0    0    0    0 -0.00000000000E+00 -0.00000000000E+00 -0.45593999997E+02  0.45594000000E+02  0.51100000000E-03 0.  1.
    9900012    2    1    2    0    0 -0.13182209313E+02  0.41633860660E+02 -0.11043752854E+02  0.46142317933E+02  0.10000001566E+02 0.  0.
         12    1    1    2    0    0  0.13182209313E+02 -0.41633860660E+02  0.11043752854E+02  0.45045682067E+02  0.00000000000E+00 0. -1.
         11    1    3    3    0    0  0.61534669153E+00  0.13693409766E+00  0.13717260852E+00  0.64515043480E+00  0.51100000000E-03 0. -1.
        -11    1    3    3    0    0 -0.78165312126E+01  0.15064979884E+02 -0.34959117787E+01  0.17328392266E+02  0.51100000000E-03 0.  1.
         12    1    3    3    0    0 -0.59810247916E+01  0.26431946678E+02 -0.76850136834E+01  0.28168775232E+02  0.00000000000E+00 0. -1.
</event>
<event>
 7    1  0.4452647E-009  0.4614232E+02  0.7816164E-02  0.1320468E+00
        -11   -1    0    0    0    0  0.00000000000E+00  0.00000000000E+00  0.45593999997E+02  0.45594000000E+02  0.51100000000E-03 0. -1.
         11   -1    0    0    0    0 -0.00000000000E+00 -0.00000000000E+00 -0.45593999997E+02  0.45594000000E+02  0.51100000000E-03 0.  1.
    9900012    2    1    2    0    0  0.52529748490E+01  0.46459789865E+01  0.44496455639E+02  0.46142318409E+02  0.10000005912E+02 0.  0.
        -12    1    1    2    0    0 -0.52529748490E+01 -0.46459789865E+01 -0.44496455639E+02  0.45045681591E+02  0.00000000000E+00 0.  1.
         11    1    3    3    0    0 -0.15881542644E+01  0.71678030623E+00  0.67793300735E+01  0.69996660264E+01  0.51100000000E-03 0. -1.
        -11    1    3    3    0    0  0.50757810599E+01  0.45933373941E+01  0.35817055357E+02  0.36465377504E+02  0.51100000000E-03 0.  1.
        -12    1    3    3    0    0  0.17653480534E+01 -0.66413871386E+00  0.19000702089E+01  0.26772748794E+01  0.00000000000E+00 0.  1.
</event>
<event>
 7    1  0.4452647E-009  0.4614232E+02  0.7816164E-02  0.1320468E+00
        -11   -1    0    0    0    0  0.00000000000E+00  0.00000000000E+00  0.45593999997E+02  0.45594000000E+02  0.51100000000E-03 0.  1.
         11   -1    0    0    0    0 -0.00000000000E+00 -0.00000000000E+00 -0.45593999997E+02  0.45594000000E+02  0.51100000000E-03 0. -1.
    9900012    2    1    2    0    0  0.33659459871E+02  0.26187250955E+01 -0.29821074070E+02  0.46142318535E+02  0.10000007059E+02 0.  0.
         12    1    1    2    0    0 -0.33659459871E+02 -0.26187250955E+01  0.29821074070E+02  0.45045681465E+02  0.00000000000E+00 0. -1.
         11    1    3    3    0    0  0.18842220548E+01 -0.17634912272E+01 -0.44793937879E+01  0.51696385781E+01  0.51100000000E-03 0. -1.
        -11    1    3    3    0    0  0.98221763426E+01  0.24391043267E+01 -0.70825064375E+01  0.12352581743E+02  0.51100000000E-03 0.  1.
         12    1    3    3    0    0  0.21953061474E+02  0.19431119959E+01 -0.18259173844E+02  0.28620098214E+02  0.00000000000E+00 0. -1.
</event>
<event>
 7    1  0.4452647E-009  0.4614232E+02  0.7816164E-02  0.1320468E+00
        -11   -1    0    0    0    0  0.00000000000E+00  0.00000000000E+00  0.45593999997E+02  0.45594000000E+02  0.51100000000E-03 0. -1.
         11   -1    0    0    0    0 -0.00000000000E+00 -0.00000000000E+00 -0.45593999997E+02  0.45594000000E+02  0.51100000000E-03 0.  1.
    9900012    2    1    2    0    0  0.18253900268E+02  0.66894043850E+01  0.40634474263E+02  0.46142317580E+02  0.99999983498E+01 0.  0.
        -12    1    1    2    0    0 -0.18253900268E+02 -0.66894043850E+01 -0.40634474263E+02  0.45045682420E+02  0.00000000000E+00 0.  1.
         11    1    3    3    0    0  0.36232500047E+01  0.30181214544E+00  0.74359181375E+01  0.82771921553E+01  0.51100000000E-03 0. -1.
        -11    1    3    3    0    0  0.39602487972E+01  0.90004086841E+00  0.18251226014E+02  0.18697617372E+02  0.51100000000E-03 0.  1.
        -12    1    3    3    0    0  0.10670401466E+02  0.54875513711E+01  0.14947330112E+02  0.19167508053E+02  0.00000000000E+00 0.  1.
</event>
<event>
 7    1  0.4452647E-009  0.4614232E+02  0.7816164E-02  0.1320468E+00
        -11   -1    0    0    0    0  0.00000000000E+00  0.00000000000E+00  0.45593999997E+02  0.45594000000E+02  0.51100000000E-03 0. -1.
         11   -1    0    0    0    0 -0.00000000000E+00 -0.00000000000E+00 -0.45593999997E+02  0.45594000000E+02  0.51100000000E-03 0.  1.
    9900012    2    1    2    0    0  0.36573934066E+02 -0.26155310780E+02 -0.27130426772E+01  0.46142317236E+02  0.99999952155E+01 0.  0.
         12    1    1    2    0    0 -0.36573934066E+02  0.26155310780E+02  0.27130426772E+01  0.45045682764E+02  0.00000000000E+00 0. -1.
         11    1    3    3    0    0  0.12523976641E+02 -0.13653386278E+02 -0.25536838837E+01  0.18702573337E+02  0.51100000000E-03 0. -1.
        -11    1    3    3    0    0  0.21410965385E+02 -0.96719011405E+01 -0.84780509242E+00  0.23509442446E+02  0.51100000000E-03 0.  1.
        -12    1    3    3    0    0  0.26389920405E+01 -0.28300233607E+01  0.68844629890E+00  0.39303014539E+01  0.00000000000E+00 0.  1.
</event>
<event>
 7    1  0.4452647E-009  0.4614232E+02  0.7816164E-02  0.1320468E+00
        -11   -1    0    0    0    0  0.00000000000E+00  0.00000000000E+00  0.45593999997E+02  0.45594000000E+02  0.51100000000E-03 0. -1.
         11   -1    0    0    0    0 -0.00000000000E+00 -0.00000000000E+00 -0.45593999997E+02  0.45594000000E+02  0.51100000000E-03 0.  1.
    9900012    2    1    2    0    0 -0.38211543487E+02 -0.55633157109E+01 -0.23195710925E+02  0.46142317158E+02  0.99999945032E+01 0.  0.
         12    1    1    2    0    0  0.38211543487E+02  0.55633157109E+01  0.23195710925E+02  0.45045682842E+02  0.00000000000E+00 0. -1.
         11    1    3    3    0    0 -0.35251573893E+02 -0.67731697157E+01 -0.20306443331E+02  0.41241980202E+02  0.51100000000E-03 0. -1.
        -11    1    3    3    0    0 -0.30720613466E+01  0.70251460113E+00 -0.30197505425E+01  0.43646284243E+01  0.51100000000E-03 0.  1.
         12    1    3    3    0    0  0.11209175264E+00  0.50733940366E+00  0.13048294892E+00  0.53570853220E+00  0.00000000000E+00 0. -1.
</event>
<event>
 7    1  0.4452647E-009  0.4614232E+02  0.7816164E-02  0.1320468E+00
        -11   -1    0    0    0    0  0.00000000000E+00  0.00000000000E+00  0.45593999997E+02  0.45594000000E+02  0.51100000000E-03 0. -1.
         11   -1    0    0    0    0 -0.00000000000E+00 -0.00000000000E+00 -0.45593999997E+02  0.45594000000E+02  0.51100000000E-03 0.  1.
    9900012    2    1    2    0    0  0.94824522692E+01 -0.23668727061E+02  0.37134729761E+02  0.46142315455E+02  0.99999789670E+01 0.  0.
        -12    1    1    2    0    0 -0.94824522692E+01  0.23668727061E+02 -0.37134729761E+02  0.45045684545E+02  0.00000000000E+00 0.  1.
         11    1    3    3    0    0 -0.10985872984E+01  0.12407281360E-01  0.17099179088E+01  0.20324535687E+01  0.51100000000E-03 0.  1.
        -11    1    3    3    0    0  0.66615545819E+01 -0.19087949477E+02  0.26413358249E+02  0.33262465618E+02  0.51100000000E-03 0. -1.
        -12    1    3    3    0    0  0.39194849857E+01 -0.45931848647E+01  0.90114536031E+01  0.10847396268E+02  0.00000000000E+00 0.  1.
</event>
<event>
 7    1  0.4452647E-009  0.4614232E+02  0.7816164E-02  0.1320468E+00
        -11   -1    0    0    0    0  0.00000000000E+00  0.00000000000E+00  0.45593999997E+02  0.45594000000E+02  0.51100000000E-03 0. -1.
         11   -1    0    0    0    0 -0.00000000000E+00 -0.00000000000E+00 -0.45593999997E+02  0.45594000000E+02  0.51100000000E-03 0.  1.
    9900012    2    1    2    0    0  0.15647116473E+02  0.92737947963E+01 -0.41210168659E+02  0.46142317357E+02  0.99999963179E+01 0.  0.
         12    1    1    2    0    0 -0.15647116473E+02 -0.92737947963E+01  0.41210168659E+02  0.45045682643E+02  0.00000000000E+00 0. -1.
         11    1    3    3    0    0 -0.14112199589E+01  0.48617009884E+00 -0.26408843605E+01  0.30335084645E+01  0.51100000000E-03 0. -1.
        -11    1    3    3    0    0  0.91832660106E+01  0.55463042895E+01 -0.22236212443E+02  0.24688924844E+02  0.51100000000E-03 0.  1.
         12    1    3    3    0    0  0.78750704216E+01  0.32413204080E+01 -0.16333071856E+02  0.18419884049E+02  0.00000000000E+00 0. -1.
</event>
<event>
 7    1  0.4452647E-009  0.4614231E+02  0.7816164E-02  0.1320468E+00
        -11   -1    0    0    0    0  0.00000000000E+00  0.00000000000E+00  0.45593999997E+02  0.45594000000E+02  0.51100000000E-03 0. -1.
         11   -1    0    0    0    0 -0.00000000000E+00 -0.00000000000E+00 -0.45593999997E+02  0.45594000000E+02  0.51100000000E-03 0.  1.
    9900012    2    1    2    0    0 -0.42240627981E+01 -0.15355963820E+01 -0.44820900677E+02  0.46142313189E+02  0.99999583042E+01 0.  0.
         12    1    1    2    0    0  0.42240627981E+01  0.15355963820E+01  0.44820900677E+02  0.45045686811E+02  0.00000000000E+00 0. -1.
         11    1    3    3    0    0 -0.37856204879E+00 -0.22760587697E+01 -0.25485369319E+01  0.34378472192E+01  0.51100000000E-03 0. -1.
        -11    1    3    3    0    0 -0.19246834679E+01  0.24705517117E+01 -0.29985337098E+02  0.30148440646E+02  0.51100000000E-03 0.  1.
        -12    1    3    3    0    0 -0.19208172814E+01 -0.17300893240E+01 -0.12287026647E+02  0.12556025323E+02  0.00000000000E+00 0.  1.
</event>
<event>
 7    1  0.4452647E-009  0.4614232E+02  0.7816164E-02  0.1320468E+00
        -11   -1    0    0    0    0  0.00000000000E+00  0.00000000000E+00  0.45593999997E+02  0.45594000000E+02  0.51100000000E-03 0. -1.
         11   -1    0    0    0    0 -0.00000000000E+00 -0.00000000000E+00 -0.45593999997E+02  0.45594000000E+02  0.51100000000E-03 0.  1.
    9900012    2    1    2    0    0  0.44159984248E+01 -0.25232808842E+02 -0.37052899478E+02  0.46142322695E+02  0.10000044994E+02 0.  0.
         12    1    1    2    0    0 -0.44159984248E+01  0.25232808842E+02  0.37052899478E+02  0.45045677305E+02  0.00000000000E+00 0. -1.
         11    1    3    3    0    0  0.47818538201E+00 -0.12471350684E+02 -0.24946555898E+02  0.27894334560E+02  0.51100000000E-03 0. -1.
        -11    1    3    3    0    0  0.22813515027E+01 -0.10878177891E+02 -0.93844028712E+01  0.14546695034E+02  0.51100000000E-03 0.  1.
        -12    1    3    3    0    0  0.16564615400E+01 -0.18832802669E+01 -0.27219407087E+01  0.37012931009E+01  0.00000000000E+00 0.  1.
</event>
<event>
 7    1  0.4452647E-009  0.4614232E+02  0.7816164E-02  0.1320468E+00
        -11   -1    0    0    0    0  0.00000000000E+00  0.00000000000E+00  0.45593999997E+02  0.45594000000E+02  0.51100000000E-03 0.  1.
         11   -1    0    0    0    0 -0.00000000000E+00 -0.00000000000E+00 -0.45593999997E+02  0.45594000000E+02  0.51100000000E-03 0. -1.
    9900012    2    1    2    0    0  0.16510736259E+02 -0.30500954236E+02  0.28743709247E+02  0.46142318271E+02  0.10000004652E+02 0.  0.
        -12    1    1    2    0    0 -0.16510736259E+02  0.30500954236E+02 -0.28743709247E+02  0.45045681729E+02  0.00000000000E+00 0.  1.
         11    1    3    3    0    0 -0.91304989455E+00 -0.20185103362E+01  0.13131903066E+01  0.25753666011E+01  0.51100000000E-03 0.  1.
        -11    1    3    3    0    0  0.24392187329E+01 -0.60824108275E+01  0.30616025744E+01  0.72331818784E+01  0.51100000000E-03 0. -1.
         12    1    3    3    0    0  0.14984567421E+02 -0.22400033072E+02  0.24368916366E+02  0.36333769792E+02  0.00000000000E+00 0. -1.
</event>
<event>
 7    1  0.4452647E-009  0.4614232E+02  0.7816164E-02  0.1320468E+00
        -11   -1    0    0    0    0  0.00000000000E+00  0.00000000000E+00  0.45593999997E+02  0.45594000000E+02  0.51100000000E-03 0. -1.
         11   -1    0    0    0    0 -0.00000000000E+00 -0.00000000000E+00 -0.45593999997E+02  0.45594000000E+02  0.51100000000E-03 0.  1.
    9900012    2    1    2    0    0  0.39687085314E+02 -0.19589449545E+02  0.83846388100E+01  0.46142318274E+02  0.10000004681E+02 0.  0.
        -12    1    1    2    0    0 -0.39687085314E+02  0.19589449545E+02 -0.83846388100E+01  0.45045681726E+02  0.00000000000E+00 0.  1.
         11    1    3    3    0    0  0.14404886402E+02 -0.52890401371E+01  0.62129943483E+01  0.16555240767E+02  0.51100000000E-03 0. -1.
        -11    1    3    3    0    0  0.42681249855E+01 -0.57222235362E+00  0.11868938082E+01  0.44668833079E+01  0.51100000000E-03 0.  1.
        -12    1    3    3    0    0  0.21014073926E+02 -0.13728187054E+02  0.98475065353E+00  0.25120194200E+02  0.00000000000E+00 0.  1.
</event>
<event>
 7    1  0.4452647E-009  0.4614232E+02  0.7816164E-02  0.1320468E+00
        -11   -1    0    0    0    0  0.00000000000E+00  0.00000000000E+00  0.45593999997E+02  0.45594000000E+02  0.51100000000E-03 0. -1.
         11   -1    0    0    0    0 -0.00000000000E+00 -0.00000000000E+00 -0.45593999997E+02  0.45594000000E+02  0.51100000000E-03 0.  1.
    9900012    2    1    2    0    0  0.57682579549E+01  0.39574744560E+02 -0.20728730696E+02  0.46142317820E+02  0.10000000533E+02 0.  0.
         12    1    1    2    0    0 -0.57682579549E+01 -0.39574744560E+02  0.20728730696E+02  0.45045682180E+02  0.00000000000E+00 0. -1.
         11    1    3    3    0    0  0.46694458204E+00 -0.53484005923E-01 -0.71223084330E+00  0.85332925466E+00  0.51100000000E-03 0. -1.
        -11    1    3    3    0    0 -0.82954568709E+00  0.15768358316E+02 -0.56475365704E+01  0.16769732842E+02  0.51100000000E-03 0.  1.
        -12    1    3    3    0    0  0.61308590600E+01  0.23859870251E+02 -0.14368963282E+02  0.28519255723E+02  0.00000000000E+00 0.  1.
</event>
<event>
 7    1  0.4452647E-009  0.4614232E+02  0.7816164E-02  0.1320468E+00
        -11   -1    0    0    0    0  0.00000000000E+00  0.00000000000E+00  0.45593999997E+02  0.45594000000E+02  0.51100000000E-03 0. -1.
         11   -1    0    0    0    0 -0.00000000000E+00 -0.00000000000E+00 -0.45593999997E+02  0.45594000000E+02  0.51100000000E-03 0.  1.
    9900012    2    1    2    0    0 -0.14874540017E+02 -0.27784322128E+02  0.32185295268E+02  0.46142315098E+02  0.99999757160E+01 0.  0.
        -12    1    1    2    0    0  0.14874540017E+02  0.27784322128E+02 -0.32185295268E+02  0.45045684902E+02  0.00000000000E+00 0.  1.
         11    1    3    3    0    0 -0.55283770720E+01 -0.87316182543E+01  0.74790777055E+01  0.12756986869E+02  0.51100000000E-03 0. -1.
        -11    1    3    3    0    0 -0.57659844654E+01 -0.10874462145E+02  0.87512257684E+01  0.15102465246E+02  0.51100000000E-03 0.  1.
        -12    1    3    3    0    0 -0.35801784793E+01 -0.81782417286E+01  0.15954991794E+02  0.18282862983E+02  0.00000000000E+00 0.  1.
</event>
<event>
 7    1  0.4452647E-009  0.4614231E+02  0.7816164E-02  0.1320468E+00
        -11   -1    0    0    0    0  0.00000000000E+00  0.00000000000E+00  0.45593999997E+02  0.45594000000E+02  0.51100000000E-03 0. -1.
         11   -1    0    0    0    0 -0.00000000000E+00 -0.00000000000E+00 -0.45593999997E+02  0.45594000000E+02  0.51100000000E-03 0.  1.
    9900012    2    1    2    0    0  0.35066898723E+02 -0.55715140237E+01  0.27719752365E+02  0.46142314016E+02  0.99999658483E+01 0.  0.
        -12    1    1    2    0    0 -0.35066898723E+02  0.55715140237E+01 -0.27719752365E+02  0.45045685984E+02  0.00000000000E+00 0.  1.
         11    1    3    3    0    0  0.21204640173E+02  0.16019279668E+01  0.16342851485E+02  0.26819614707E+02  0.51100000000E-03 0. -1.
        -11    1    3    3    0    0  0.83594059627E+01 -0.40662295673E+01  0.65884049890E+01  0.11393900627E+02  0.51100000000E-03 0.  1.
         12    1    3    3    0    0  0.55028525872E+01 -0.31072124231E+01  0.47884958912E+01  0.79287986820E+01  0.00000000000E+00 0. -1.
</event>
<event>
 7    1  0.4452647E-009  0.4614233E+02  0.7816164E-02  0.1320468E+00
        -11   -1    0    0    0    0  0.00000000000E+00  0.00000000000E+00  0.45593999997E+02  0.45594000000E+02  0.51100000000E-03 0. -1.
         11   -1    0    0    0    0 -0.00000000000E+00 -0.00000000000E+00 -0.45593999997E+02  0.45594000000E+02  0.51100000000E-03 0.  1.
    9900012    2    1    2    0    0  0.35954724157E+02 -0.99627665491E+01 -0.25241107414E+02  0.46142329731E+02  0.10000109151E+02 0.  0.
         12    1    1    2    0    0 -0.35954724157E+02  0.99627665491E+01  0.25241107414E+02  0.45045670269E+02  0.00000000000E+00 0. -1.
         11    1    3    3    0    0  0.14925124218E+02 -0.27584410870E+01 -0.94734140806E+01  0.17891727272E+02  0.51100000000E-03 0.  1.
        -11    1    3    3    0    0  0.18508843205E+02 -0.86842790420E+01 -0.14498121903E+02  0.25063709188E+02  0.51100000000E-03 0. -1.
         12    1    3    3    0    0  0.25207567335E+01  0.14799535799E+01 -0.12695714295E+01  0.31868932713E+01  0.00000000000E+00 0. -1.
</event>
<event>
 7    1  0.4452647E-009  0.4614232E+02  0.7816164E-02  0.1320468E+00
        -11   -1    0    0    0    0  0.00000000000E+00  0.00000000000E+00  0.45593999997E+02  0.45594000000E+02  0.51100000000E-03 0. -1.
         11   -1    0    0    0    0 -0.00000000000E+00 -0.00000000000E+00 -0.45593999997E+02  0.45594000000E+02  0.51100000000E-03 0.  1.
    9900012    2    1    2    0    0 -0.12453511452E+02  0.39117329124E+02  0.18543411057E+02  0.46142317867E+02  0.10000000962E+02 0.  0.
        -12    1    1    2    0    0  0.12453511452E+02 -0.39117329124E+02 -0.18543411057E+02  0.45045682133E+02  0.00000000000E+00 0.  1.
         11    1    3    3    0    0 -0.10921836541E+02  0.24038528135E+02  0.90578043527E+01  0.27913816799E+02  0.51100000000E-03 0. -1.
        -11    1    3    3    0    0  0.12794965829E+00  0.10565878911E+02  0.51534197179E+01  0.11756355869E+02  0.51100000000E-03 0.  1.
         12    1    3    3    0    0 -0.16596245687E+01  0.45129220784E+01  0.43321869861E+01  0.64721451990E+01  0.00000000000E+00 0. -1.
</event>
<event>
 7    1  0.4452647E-009  0.4614232E+02  0.7816164E-02  0.1320468E+00
        -11   -1    0    0    0    0  0.00000000000E+00  0.00000000000E+00  0.45593999997E+02  0.45594000000E+02  0.51100000000E-03 0. -1.
         11   -1    0    0    0    0 -0.00000000000E+00 -0.00000000000E+00 -0.45593999997E+02  0.45594000000E+02  0.51100000000E-03 0.  1.
    9900012    2    1    2    0    0 -0.16872785208E+02 -0.29029748423E+02 -0.30028257842E+02  0.46142318262E+02  0.10000004571E+02 0.  0.
         12    1    1    2    0    0  0.16872785208E+02  0.29029748423E+02  0.30028257842E+02  0.45045681738E+02  0.00000000000E+00 0. -1.
         11    1    3    3    0    0 -0.10381176019E+02 -0.14116326756E+02 -0.15049876548E+02  0.23098447588E+02  0.51100000000E-03 0. -1.
        -11    1    3    3    0    0 -0.65969471119E+01 -0.14381382073E+02 -0.11591764284E+02  0.19614098527E+02  0.51100000000E-03 0.  1.
         12    1    3    3    0    0  0.10533792292E+00 -0.53203959326E+00 -0.33866170106E+01  0.34297721475E+01  0.00000000000E+00 0. -1.
</event>
<event>
 7    1  0.4452647E-009  0.4614232E+02  0.7816164E-02  0.1320468E+00
        -11   -1    0    0    0    0  0.00000000000E+00  0.00000000000E+00  0.45593999997E+02  0.45594000000E+02  0.51100000000E-03 0. -1.
         11   -1    0    0    0    0 -0.00000000000E+00 -0.00000000000E+00 -0.45593999997E+02  0.45594000000E+02  0.51100000000E-03 0.  1.
    9900012    2    1    2    0    0 -0.18213735365E+02  0.11117826198E+02 -0.39670735521E+02  0.46142317941E+02  0.10000001644E+02 0.  0.
         12    1    1    2    0    0  0.18213735365E+02 -0.11117826198E+02  0.39670735521E+02  0.45045682059E+02  0.00000000000E+00 0. -1.
         11    1    3    3    0    0 -0.15369630471E+01  0.36831097799E+01 -0.39700357059E+01  0.56292749823E+01  0.51100000000E-03 0. -1.
        -11    1    3    3    0    0 -0.10387812760E+02  0.75818178689E+01 -0.23932353878E+02  0.27168882541E+02  0.51100000000E-03 0.  1.
        -12    1    3    3    0    0 -0.62889595582E+01 -0.14710145034E+00 -0.11768345937E+02  0.13344160418E+02  0.00000000000E+00 0.  1.
</event>
<event>
 7    1  0.4452647E-009  0.4614232E+02  0.7816164E-02  0.1320468E+00
        -11   -1    0    0    0    0  0.00000000000E+00  0.00000000000E+00  0.45593999997E+02  0.45594000000E+02  0.51100000000E-03 0. -1.
         11   -1    0    0    0    0 -0.00000000000E+00 -0.00000000000E+00 -0.45593999997E+02  0.45594000000E+02  0.51100000000E-03 0.  1.
    9900012    2    1    2    0    0  0.29208415526E+02 -0.18011550124E+02 -0.29181604954E+02  0.46142317154E+02  0.99999944632E+01 0.  0.
         12    1    1    2    0    0 -0.29208415526E+02  0.18011550124E+02  0.29181604954E+02  0.45045682846E+02  0.00000000000E+00 0. -1.
         11    1    3    3    0    0  0.84719870466E+01 -0.81156368992E+01 -0.14680963446E+02  0.18792786243E+02  0.51100000000E-03 0. -1.
        -11    1    3    3    0    0  0.18507341666E+02 -0.91904214628E+01 -0.13996545654E+02  0.24957740938E+02  0.51100000000E-03 0.  1.
         12    1    3    3    0    0  0.22290868134E+01 -0.70549176194E+00 -0.50409585325E+00  0.23917899734E+01  0.00000000000E+00 0. -1.
</event>
<event>
 7    1  0.4452647E-009  0.4614232E+02  0.7816164E-02  0.1320468E+00
        -11   -1    0    0    0    0  0.00000000000E+00  0.00000000000E+00  0.45593999997E+02  0.45594000000E+02  0.51100000000E-03 0.  1.
         11   -1    0    0    0    0 -0.00000000000E+00 -0.00000000000E+00 -0.45593999997E+02  0.45594000000E+02  0.51100000000E-03 0. -1.
    9900012    2    1    2    0    0 -0.43691968843E-01 -0.44432643421E+02  0.74061986958E+01  0.46142317749E+02  0.99999998882E+01 0.  0.
        -12    1    1    2    0    0  0.43691968843E-01  0.44432643421E+02 -0.74061986958E+01  0.45045682251E+02  0.00000000000E+00 0.  1.
         11    1    3    3    0    0 -0.36833803330E+01 -0.28622885970E+02  0.29765616815E+01  0.29012011506E+02  0.51100000000E-03 0. -1.
        -11    1    3    3    0    0  0.39677784448E+01 -0.12573773414E+02  0.43244958650E+01  0.13876033598E+02  0.51100000000E-03 0.  1.
        -12    1    3    3    0    0 -0.32809008063E+00 -0.32359840367E+01  0.10514114926E+00  0.32542726450E+01  0.00000000000E+00 0.  1.
</event>
<event>
 7    1  0.4452647E-009  0.4614232E+02  0.7816164E-02  0.1320468E+00
        -11   -1    0    0    0    0  0.00000000000E+00  0.00000000000E+00  0.45593999997E+02  0.45594000000E+02  0.51100000000E-03 0. -1.
         11   -1    0    0    0    0 -0.00000000000E+00 -0.00000000000E+00 -0.45593999997E+02  0.45594000000E+02  0.51100000000E-03 0.  1.
    9900012    2    1    2    0    0 -0.55745761267E+01  0.36779028663E+02  0.25403555428E+02  0.46142317890E+02  0.10000001174E+02 0.  0.
        -12    1    1    2    0    0  0.55745761267E+01 -0.36779028663E+02 -0.25403555428E+02  0.45045682110E+02  0.00000000000E+00 0.  1.
         11    1    3    3    0    0  0.11654608176E+00  0.38617188672E+01  0.58129392703E+00  0.39069628216E+01  0.51100000000E-03 0.  1.
        -11    1    3    3    0    0 -0.27105965273E+01  0.41839277829E+01  0.57961711013E+01  0.76451412625E+01  0.51100000000E-03 0. -1.
        -12    1    3    3    0    0 -0.29805256811E+01  0.28733382013E+02  0.19026090400E+02  0.34590213806E+02  0.00000000000E+00 0.  1.
</event>
<event>
 7    1  0.4452647E-009  0.4614232E+02  0.7816164E-02  0.1320468E+00
        -11   -1    0    0    0    0  0.00000000000E+00  0.00000000000E+00  0.45593999997E+02  0.45594000000E+02  0.51100000000E-03 0. -1.
         11   -1    0    0    0    0 -0.00000000000E+00 -0.00000000000E+00 -0.45593999997E+02  0.45594000000E+02  0.51100000000E-03 0.  1.
    9900012    2    1    2    0    0  0.35287720660E+02  0.45781106562E+01 -0.27621208970E+02  0.46142317504E+02  0.99999976591E+01 0.  0.
         12    1    1    2    0    0 -0.35287720660E+02 -0.45781106562E+01  0.27621208970E+02  0.45045682496E+02  0.00000000000E+00 0. -1.
         11    1    3    3    0    0  0.34592375606E+01  0.33775430998E+00  0.21559824246E+00  0.34823677775E+01  0.51100000000E-03 0. -1.
        -11    1    3    3    0    0  0.29192379471E+02  0.45355782279E+01 -0.24384571349E+02  0.38306315526E+02  0.51100000000E-03 0.  1.
         12    1    3    3    0    0  0.26361036275E+01 -0.29522188166E+00 -0.34522358640E+01  0.43536342009E+01  0.00000000000E+00 0. -1.
</event>
<event>
 7    1  0.4452647E-009  0.4614232E+02  0.7816164E-02  0.1320468E+00
        -11   -1    0    0    0    0  0.00000000000E+00  0.00000000000E+00  0.45593999997E+02  0.45594000000E+02  0.51100000000E-03 0. -1.
         11   -1    0    0    0    0 -0.00000000000E+00 -0.00000000000E+00 -0.45593999997E+02  0.45594000000E+02  0.51100000000E-03 0.  1.
    9900012    2    1    2    0    0  0.14741997964E+02  0.80455024053E+01 -0.41797808674E+02  0.46142318489E+02  0.10000006633E+02 0.  0.
         12    1    1    2    0    0 -0.14741997964E+02 -0.80455024053E+01  0.41797808674E+02  0.45045681511E+02  0.00000000000E+00 0. -1.
         11    1    3    3    0    0  0.14336745350E+01 -0.14627405161E+01 -0.27836393329E+01  0.34559630621E+01  0.51100000000E-03 0. -1.
        -11    1    3    3    0    0  0.68620607404E+01  0.15386089200E+01 -0.17284908454E+02  0.18660741023E+02  0.51100000000E-03 0.  1.
         12    1    3    3    0    0  0.64462626881E+01  0.79696340015E+01 -0.21729260887E+02  0.24025614403E+02  0.00000000000E+00 0. -1.
</event>
<event>
 7    1  0.4452647E-009  0.4614232E+02  0.7816164E-02  0.1320468E+00
        -11   -1    0    0    0    0  0.00000000000E+00  0.00000000000E+00  0.45593999997E+02  0.45594000000E+02  0.51100000000E-03 0. -1.
         11   -1    0    0    0    0 -0.00000000000E+00 -0.00000000000E+00 -0.45593999997E+02  0.45594000000E+02  0.51100000000E-03 0.  1.
    9900012    2    1    2    0    0  0.74605731980E+01 -0.98835455888E+01 -0.43310148677E+02  0.46142316475E+02  0.99999882722E+01 0.  0.
         12    1    1    2    0    0 -0.74605731980E+01  0.98835455888E+01  0.43310148677E+02  0.45045683525E+02  0.00000000000E+00 0. -1.
         11    1    3    3    0    0  0.36753935692E+01 -0.65895991681E+01 -0.19332345060E+02  0.20752611905E+02  0.51100000000E-03 0. -1.
        -11    1    3    3    0    0  0.14515961049E+00 -0.40370261669E+01 -0.17121235432E+02  0.17591343172E+02  0.51100000000E-03 0.  1.
        -12    1    3    3    0    0  0.36400200183E+01  0.74307974622E+00 -0.68565681840E+01  0.77983613987E+01  0.00000000000E+00 0.  1.
</event>
<event>
 7    1  0.4452647E-009  0.4614232E+02  0.7816164E-02  0.1320468E+00
        -11   -1    0    0    0    0  0.00000000000E+00  0.00000000000E+00  0.45593999997E+02  0.45594000000E+02  0.51100000000E-03 0.  1.
         11   -1    0    0    0    0 -0.00000000000E+00 -0.00000000000E+00 -0.45593999997E+02  0.45594000000E+02  0.51100000000E-03 0. -1.
    9900012    2    1    2    0    0 -0.35302170829E+01 -0.26639296726E+02  0.36152439280E+02  0.46142318424E+02  0.10000006047E+02 0.  0.
        -12    1    1    2    0    0  0.35302170829E+01  0.26639296726E+02 -0.36152439280E+02  0.45045681576E+02  0.00000000000E+00 0.  1.
         11    1    3    3    0    0 -0.34095082569E+01 -0.18794284447E+02  0.22590423333E+02  0.29583392318E+02  0.51100000000E-03 0. -1.
        -11    1    3    3    0    0 -0.26084773197E+01 -0.54670438108E+01  0.88156444376E+01  0.10696181986E+02  0.51100000000E-03 0.  1.
         12    1    3    3    0    0  0.24877684937E+01 -0.23779684686E+01  0.47463715096E+01  0.58627441206E+01  0.00000000000E+00 0. -1.
</event>
<event>
 7    1  0.4452647E-009  0.4614232E+02  0.7816164E-02  0.1320468E+00
        -11   -1    0    0    0    0  0.00000000000E+00  0.00000000000E+00  0.45593999997E+02  0.45594000000E+02  0.51100000000E-03 0. -1.
         11   -1    0    0    0    0 -0.00000000000E+00 -0.00000000000E+00 -0.45593999997E+02  0.45594000000E+02  0.51100000000E-03 0.  1.
    9900012    2    1    2    0    0  0.33479280961E+01 -0.11301281075E+02  0.43476268875E+02  0.46142317279E+02  0.99999956057E+01 0.  0.
        -12    1    1    2    0    0 -0.33479280961E+01  0.11301281075E+02 -0.43476268875E+02  0.45045682721E+02  0.00000000000E+00 0.  1.
         11    1    3    3    0    0  0.32440148792E+01 -0.90224074111E+01  0.37186319943E+02  0.38402472046E+02  0.51100000000E-03 0. -1.
        -11    1    3    3    0    0  0.23306543027E+00  0.25377186585E+00 -0.43366944941E+00  0.55388546393E+00  0.51100000000E-03 0.  1.
        -12    1    3    3    0    0 -0.12915221335E+00 -0.25326455299E+01  0.67236183813E+01  0.71859597697E+01  0.00000000000E+00 0.  1.
</event>
<event>
 7    1  0.4452647E-009  0.4614232E+02  0.7816164E-02  0.1320468E+00
        -11   -1    0    0    0    0  0.00000000000E+00  0.00000000000E+00  0.45593999997E+02  0.45594000000E+02  0.51100000000E-03 0. -1.
         11   -1    0    0    0    0 -0.00000000000E+00 -0.00000000000E+00 -0.45593999997E+02  0.45594000000E+02  0.51100000000E-03 0.  1.
    9900012    2    1    2    0    0 -0.76886243518E+01 -0.19711458479E+01  0.44340873921E+02  0.46142318071E+02  0.10000002829E+02 0.  0.
        -12    1    1    2    0    0  0.76886243518E+01  0.19711458479E+01 -0.44340873921E+02  0.45045681929E+02  0.00000000000E+00 0.  1.
         11    1    3    3    0    0 -0.30009952591E+01 -0.42602681376E+01  0.16282036405E+02  0.17095630053E+02  0.51100000000E-03 0. -1.
        -11    1    3    3    0    0 -0.22491824223E+01  0.17000057489E+01  0.24668912595E+02  0.24829500397E+02  0.51100000000E-03 0.  1.
        -12    1    3    3    0    0 -0.24384466704E+01  0.58911654077E+00  0.33899249211E+01  0.42171876214E+01  0.00000000000E+00 0.  1.
</event>
<event>
 7    1  0.4761171E-009  0.4614232E+02  0.7816164E-02  0.1320468E+00
        -11   -1    0    0    0    0  0.00000000000E+00  0.00000000000E+00  0.45593999997E+02  0.45594000000E+02  0.51100000000E-03 0. -1.
         11   -1    0    0    0    0 -0.00000000000E+00 -0.00000000000E+00 -0.45593999997E+02  0.45594000000E+02  0.51100000000E-03 0.  1.
    9900012    2    1    2    0    0 -0.23290915211E+02 -0.15881607492E+02  0.35134333843E+02  0.46142316495E+02  0.99999884525E+01 0.  0.
        -12    1    1    2    0    0  0.23290915211E+02  0.15881607492E+02 -0.35134333843E+02  0.45045683505E+02  0.00000000000E+00 0.  1.
         11    1    3    3    0    0 -0.16976999269E+02 -0.10136000360E+02  0.23861633302E+02  0.30989265102E+02  0.51100000000E-03 0. -1.
        -11    1    3    3    0    0 -0.16538404755E+01  0.79227275738E+00  0.91910446832E+00  0.20512527210E+01  0.51100000000E-03 0.  1.
         12    1    3    3    0    0 -0.46600754662E+01 -0.65378798896E+01  0.10353596073E+02  0.13101798672E+02  0.00000000000E+00 0. -1.
</event>
<event>
 7    1  0.4452647E-009  0.4614232E+02  0.7816164E-02  0.1320468E+00
        -11   -1    0    0    0    0  0.00000000000E+00  0.00000000000E+00  0.45593999997E+02  0.45594000000E+02  0.51100000000E-03 0. -1.
         11   -1    0    0    0    0 -0.00000000000E+00 -0.00000000000E+00 -0.45593999997E+02  0.45594000000E+02  0.51100000000E-03 0.  1.
    9900012    2    1    2    0    0 -0.34618137198E+01  0.15998583333E+02  0.41966350894E+02  0.46142318406E+02  0.10000005882E+02 0.  0.
        -12    1    1    2    0    0  0.34618137198E+01 -0.15998583333E+02 -0.41966350894E+02  0.45045681594E+02  0.00000000000E+00 0.  1.
         11    1    3    3    0    0 -0.65139844903E+00  0.33275848097E+01  0.52109666222E+01  0.62170180958E+01  0.51100000000E-03 0. -1.
        -11    1    3    3    0    0 -0.26724708332E+01  0.59975752888E+01  0.77298762705E+01  0.10142188971E+02  0.51100000000E-03 0.  1.
         12    1    3    3    0    0 -0.13794443764E+00  0.66734232350E+01  0.29025508001E+02  0.29783111340E+02  0.00000000000E+00 0. -1.
</event>
<event>
 7    1  0.4452647E-009  0.4614232E+02  0.7816164E-02  0.1320468E+00
        -11   -1    0    0    0    0  0.00000000000E+00  0.00000000000E+00  0.45593999997E+02  0.45594000000E+02  0.51100000000E-03 0. -1.
         11   -1    0    0    0    0 -0.00000000000E+00 -0.00000000000E+00 -0.45593999997E+02  0.45594000000E+02  0.51100000000E-03 0.  1.
    9900012    2    1    2    0    0 -0.18892936866E+02 -0.11856443050E+02  0.39135601088E+02  0.46142316769E+02  0.99999909508E+01 0.  0.
        -12    1    1    2    0    0  0.18892936866E+02  0.11856443050E+02 -0.39135601088E+02  0.45045683231E+02  0.00000000000E+00 0.  1.
         11    1    3    3    0    0 -0.10149021386E+02 -0.56328958709E+01  0.14433013869E+02  0.18521448124E+02  0.51100000000E-03 0. -1.
        -11    1    3    3    0    0  0.79235446224E-02 -0.22423460561E+01  0.84004592570E+01  0.86945899620E+01  0.51100000000E-03 0.  1.
        -12    1    3    3    0    0 -0.87518390247E+01 -0.39812011235E+01  0.16302127962E+02  0.18926278683E+02  0.00000000000E+00 0.  1.
</event>
<event>
 7    1  0.4452647E-009  0.4614232E+02  0.7816164E-02  0.1320468E+00
        -11   -1    0    0    0    0  0.00000000000E+00  0.00000000000E+00  0.45593999997E+02  0.45594000000E+02  0.51100000000E-03 0. -1.
         11   -1    0    0    0    0 -0.00000000000E+00 -0.00000000000E+00 -0.45593999997E+02  0.45594000000E+02  0.51100000000E-03 0.  1.
    9900012    2    1    2    0    0 -0.43456790017E+02  0.66964112996E+01 -0.97866720037E+01  0.46142317945E+02  0.10000001674E+02 0.  0.
         12    1    1    2    0    0  0.43456790017E+02 -0.66964112996E+01  0.97866720037E+01  0.45045682055E+02  0.00000000000E+00 0. -1.
         11    1    3    3    0    0 -0.44448917521E+01 -0.10831365738E+01  0.46388484799E+00  0.45984167861E+01  0.51100000000E-03 0. -1.
        -11    1    3    3    0    0 -0.12775495411E+02  0.55452784298E+01 -0.34074594098E+01  0.14337858130E+02  0.51100000000E-03 0.  1.
         12    1    3    3    0    0 -0.26236402854E+02  0.22342694437E+01 -0.68430974419E+01  0.27206043029E+02  0.00000000000E+00 0. -1.
</event>
<event>
 7    1  0.4452647E-009  0.4614232E+02  0.7816164E-02  0.1320468E+00
        -11   -1    0    0    0    0  0.00000000000E+00  0.00000000000E+00  0.45593999997E+02  0.45594000000E+02  0.51100000000E-03 0. -1.
         11   -1    0    0    0    0 -0.00000000000E+00 -0.00000000000E+00 -0.45593999997E+02  0.45594000000E+02  0.51100000000E-03 0.  1.
    9900012    2    1    2    0    0  0.96199495667E+01 -0.64864341956E+01  0.43525811246E+02  0.46142317601E+02  0.99999985362E+01 0.  0.
        -12    1    1    2    0    0 -0.96199495667E+01  0.64864341956E+01 -0.43525811246E+02  0.45045682399E+02  0.00000000000E+00 0.  1.
         11    1    3    3    0    0  0.29647343154E+01 -0.61395106175E+01  0.31311669159E+02  0.32045340784E+02  0.51100000000E-03 0. -1.
        -11    1    3    3    0    0  0.28638441940E+01  0.83697022836E+00  0.41919087965E+01  0.51453107146E+01  0.51100000000E-03 0.  1.
        -12    1    3    3    0    0  0.37913710574E+01 -0.11838938064E+01  0.80222332906E+01  0.89516661023E+01  0.00000000000E+00 0.  1.
</event>
<event>
 7    1  0.4452647E-009  0.4614232E+02  0.7816164E-02  0.1320468E+00
        -11   -1    0    0    0    0  0.00000000000E+00  0.00000000000E+00  0.45593999997E+02  0.45594000000E+02  0.51100000000E-03 0. -1.
         11   -1    0    0    0    0 -0.00000000000E+00 -0.00000000000E+00 -0.45593999997E+02  0.45594000000E+02  0.51100000000E-03 0.  1.
    9900012    2    1    2    0    0 -0.10426754779E+01 -0.44920112663E+02 -0.31952881999E+01  0.46142316960E+02  0.99999926981E+01 0.  0.
         12    1    1    2    0    0  0.10426754779E+01  0.44920112663E+02  0.31952881999E+01  0.45045683040E+02  0.00000000000E+00 0. -1.
         11    1    3    3    0    0 -0.52769835616E+00 -0.10119897675E+02 -0.36752146842E+01  0.10779517510E+02  0.51100000000E-03 0. -1.
        -11    1    3    3    0    0 -0.36431650270E+00 -0.17875800353E+02 -0.28727972969E+01  0.18108835670E+02  0.51100000000E-03 0.  1.
        -12    1    3    3    0    0 -0.15066061907E+00 -0.16924414635E+02  0.33527237813E+01  0.17253963780E+02  0.00000000000E+00 0.  1.
</event>
<event>
 7    1  0.4452647E-009  0.4614232E+02  0.7816164E-02  0.1320468E+00
        -11   -1    0    0    0    0  0.00000000000E+00  0.00000000000E+00  0.45593999997E+02  0.45594000000E+02  0.51100000000E-03 0. -1.
         11   -1    0    0    0    0 -0.00000000000E+00 -0.00000000000E+00 -0.45593999997E+02  0.45594000000E+02  0.51100000000E-03 0.  1.
    9900012    2    1    2    0    0  0.27749184799E+02 -0.99368670089E+00 -0.35469829595E+02  0.46142317834E+02  0.10000000668E+02 0.  0.
         12    1    1    2    0    0 -0.27749184799E+02  0.99368670089E+00  0.35469829595E+02  0.45045682166E+02  0.00000000000E+00 0. -1.
         11    1    3    3    0    0  0.84404380912E+01  0.12626584307E+01 -0.48610571399E+01  0.98216688125E+01  0.51100000000E-03 0. -1.
        -11    1    3    3    0    0  0.11872316209E+02 -0.78421833530E+00 -0.17138134248E+02  0.20863425805E+02  0.51100000000E-03 0.  1.
        -12    1    3    3    0    0  0.74364304995E+01 -0.14721267962E+01 -0.13470638207E+02  0.15457223217E+02  0.00000000000E+00 0.  1.
</event>
<event>
 7    1  0.4452647E-009  0.4614232E+02  0.7816164E-02  0.1320468E+00
        -11   -1    0    0    0    0  0.00000000000E+00  0.00000000000E+00  0.45593999997E+02  0.45594000000E+02  0.51100000000E-03 0.  1.
         11   -1    0    0    0    0 -0.00000000000E+00 -0.00000000000E+00 -0.45593999997E+02  0.45594000000E+02  0.51100000000E-03 0. -1.
    9900012    2    1    2    0    0 -0.11939070220E+02 -0.43373510980E+02  0.23044801717E+01  0.46142317839E+02  0.10000000714E+02 0.  0.
         12    1    1    2    0    0  0.11939070220E+02  0.43373510980E+02 -0.23044801717E+01  0.45045682161E+02  0.00000000000E+00 0. -1.
         11    1    3    3    0    0 -0.43839142915E+01 -0.51280581109E+01 -0.12731360572E+01  0.68656070515E+01  0.51100000000E-03 0. -1.
        -11    1    3    3    0    0 -0.33595060611E+01 -0.98796365224E+01  0.71267171406E+00  0.10459512418E+02  0.51100000000E-03 0.  1.
         12    1    3    3    0    0 -0.41956498675E+01 -0.28365816347E+02  0.28649445148E+01  0.28817198370E+02  0.00000000000E+00 0. -1.
</event>
<event>
 7    1  0.4452647E-009  0.4614232E+02  0.7816164E-02  0.1320468E+00
        -11   -1    0    0    0    0  0.00000000000E+00  0.00000000000E+00  0.45593999997E+02  0.45594000000E+02  0.51100000000E-03 0.  1.
         11   -1    0    0    0    0 -0.00000000000E+00 -0.00000000000E+00 -0.45593999997E+02  0.45594000000E+02  0.51100000000E-03 0. -1.
    9900012    2    1    2    0    0  0.16427111990E+02  0.38254292018E+02 -0.17200946440E+02  0.46142318469E+02  0.10000006455E+02 0.  0.
         12    1    1    2    0    0 -0.16427111990E+02 -0.38254292018E+02  0.17200946440E+02  0.45045681531E+02  0.00000000000E+00 0. -1.
         11    1    3    3    0    0  0.27034520232E+01  0.34177881398E+01  0.51066136160E+00  0.43875624095E+01  0.51100000000E-03 0. -1.
        -11    1    3    3    0    0  0.84641629647E+01  0.19095248542E+02 -0.12579703727E+02  0.24382770919E+02  0.51100000000E-03 0.  1.
         12    1    3    3    0    0  0.52594970022E+01  0.15741255337E+02 -0.51319040746E+01  0.17371985141E+02  0.00000000000E+00 0. -1.
</event>
<event>
 7    1  0.4452647E-009  0.4614232E+02  0.7816164E-02  0.1320468E+00
        -11   -1    0    0    0    0  0.00000000000E+00  0.00000000000E+00  0.45593999997E+02  0.45594000000E+02  0.51100000000E-03 0. -1.
         11   -1    0    0    0    0 -0.00000000000E+00 -0.00000000000E+00 -0.45593999997E+02  0.45594000000E+02  0.51100000000E-03 0.  1.
    9900012    2    1    2    0    0 -0.36131699333E+02 -0.20187333541E+02 -0.17778788231E+02  0.46142318263E+02  0.10000004578E+02 0.  0.
         12    1    1    2    0    0  0.36131699333E+02  0.20187333541E+02  0.17778788231E+02  0.45045681737E+02  0.00000000000E+00 0. -1.
         11    1    3    3    0    0 -0.12941306705E+02 -0.39097338823E+01 -0.27934434360E+01  0.13804592162E+02  0.51100000000E-03 0. -1.
        -11    1    3    3    0    0 -0.98446687636E+01 -0.46250502537E+01 -0.67412854775E+01  0.12796621549E+02  0.51100000000E-03 0.  1.
         12    1    3    3    0    0 -0.13345723864E+02 -0.11652549405E+02 -0.82440593177E+01  0.19541104552E+02  0.00000000000E+00 0. -1.
</event>
<event>
 7    1  0.4452647E-009  0.4614232E+02  0.7816164E-02  0.1320468E+00
        -11   -1    0    0    0    0  0.00000000000E+00  0.00000000000E+00  0.45593999997E+02  0.45594000000E+02  0.51100000000E-03 0. -1.
         11   -1    0    0    0    0 -0.00000000000E+00 -0.00000000000E+00 -0.45593999997E+02  0.45594000000E+02  0.51100000000E-03 0.  1.
    9900012    2    1    2    0    0  0.21744954732E+02  0.25452430087E+02  0.30140409435E+02  0.46142317248E+02  0.99999953254E+01 0.  0.
        -12    1    1    2    0    0 -0.21744954732E+02 -0.25452430087E+02 -0.30140409435E+02  0.45045682752E+02  0.00000000000E+00 0.  1.
         11    1    3    3    0    0  0.71950072861E+01  0.68789123954E+01  0.58024830836E+01  0.11521995304E+02  0.51100000000E-03 0. -1.
        -11    1    3    3    0    0  0.40344449099E+01  0.31878513493E+01  0.94869581819E+01  0.10790807095E+02  0.51100000000E-03 0.  1.
        -12    1    3    3    0    0  0.10515502536E+02  0.15385666342E+02  0.14850968170E+02  0.23829514849E+02  0.00000000000E+00 0.  1.
</event>
<event>
 7    1  0.4452647E-009  0.4614232E+02  0.7816164E-02  0.1320468E+00
        -11   -1    0    0    0    0  0.00000000000E+00  0.00000000000E+00  0.45593999997E+02  0.45594000000E+02  0.51100000000E-03 0. -1.
         11   -1    0    0    0    0 -0.00000000000E+00 -0.00000000000E+00 -0.45593999997E+02  0.45594000000E+02  0.51100000000E-03 0.  1.
    9900012    2    1    2    0    0 -0.54698096205E+01  0.24817604161E+02  0.37192490142E+02  0.46142316338E+02  0.99999870275E+01 0.  0.
        -12    1    1    2    0    0  0.54698096205E+01 -0.24817604161E+02 -0.37192490142E+02  0.45045683662E+02  0.00000000000E+00 0.  1.
         11    1    3    3    0    0 -0.34797531733E+01  0.13818765901E+02  0.22191362048E+02  0.26372779963E+02  0.51100000000E-03 0. -1.
        -11    1    3    3    0    0  0.13711317103E+01  0.60270807709E+01  0.10800561429E+02  0.12444188693E+02  0.51100000000E-03 0.  1.
         12    1    3    3    0    0 -0.33611881576E+01  0.49717574892E+01  0.42005666649E+01  0.73253476824E+01  0.00000000000E+00 0. -1.
</event>
<event>
 7    1  0.4452647E-009  0.4614232E+02  0.7816164E-02  0.1320468E+00
        -11   -1    0    0    0    0  0.00000000000E+00  0.00000000000E+00  0.45593999997E+02  0.45594000000E+02  0.51100000000E-03 0. -1.
         11   -1    0    0    0    0 -0.00000000000E+00 -0.00000000000E+00 -0.45593999997E+02  0.45594000000E+02  0.51100000000E-03 0.  1.
    9900012    2    1    2    0    0 -0.34723908114E+02  0.27649418112E+02  0.76728936356E+01  0.46142318593E+02  0.10000007587E+02 0.  0.
        -12    1    1    2    0    0  0.34723908114E+02 -0.27649418112E+02 -0.76728936356E+01  0.45045681407E+02  0.00000000000E+00 0.  1.
         11    1    3    3    0    0 -0.13100361475E+02  0.12846942284E+02  0.44811734521E+01  0.18887676210E+02  0.51100000000E-03 0. -1.
        -11    1    3    3    0    0 -0.21826935549E+02  0.13584006348E+02  0.35866016532E+01  0.25957735949E+02  0.51100000000E-03 0.  1.
        -12    1    3    3    0    0  0.20338891073E+00  0.12184694803E+01 -0.39488146965E+00  0.12969064340E+01  0.00000000000E+00 0.  1.
</event>
<event>
 7    1  0.4452647E-009  0.4614232E+02  0.7816164E-02  0.1320468E+00
        -11   -1    0    0    0    0  0.00000000000E+00  0.00000000000E+00  0.45593999997E+02  0.45594000000E+02  0.51100000000E-03 0.  1.
         11   -1    0    0    0    0 -0.00000000000E+00 -0.00000000000E+00 -0.45593999997E+02  0.45594000000E+02  0.51100000000E-03 0. -1.
    9900012    2    1    2    0    0  0.12650035825E+02  0.39639272318E+02 -0.17257408984E+02  0.46142317841E+02  0.10000000729E+02 0.  0.
         12    1    1    2    0    0 -0.12650035825E+02 -0.39639272318E+02  0.17257408984E+02  0.45045682159E+02  0.00000000000E+00 0. -1.
         11    1    3    3    0    0  0.45856219987E+01  0.80521961249E+01 -0.55085957005E+01  0.10780093618E+02  0.51100000000E-03 0. -1.
        -11    1    3    3    0    0  0.87392527335E+01  0.28141166532E+02 -0.12055191031E+02  0.31837515971E+02  0.51100000000E-03 0.  1.
        -12    1    3    3    0    0 -0.67483890725E+00  0.34459096610E+01  0.30637774662E+00  0.35247082527E+01  0.00000000000E+00 0.  1.
</event>
<event>
 7    1  0.4452647E-009  0.4614232E+02  0.7816164E-02  0.1320468E+00
        -11   -1    0    0    0    0  0.00000000000E+00  0.00000000000E+00  0.45593999997E+02  0.45594000000E+02  0.51100000000E-03 0.  1.
         11   -1    0    0    0    0 -0.00000000000E+00 -0.00000000000E+00 -0.45593999997E+02  0.45594000000E+02  0.51100000000E-03 0. -1.
    9900012    2    1    2    0    0  0.42047338092E+02  0.47464756934E+01  0.15446871526E+02  0.46142317498E+02  0.99999975989E+01 0.  0.
         12    1    1    2    0    0 -0.42047338092E+02 -0.47464756934E+01 -0.15446871526E+02  0.45045682502E+02  0.00000000000E+00 0. -1.
         11    1    3    3    0    0 -0.79176852162E-01  0.38262188217E+00 -0.20972934962E+00  0.44345816020E+00  0.51100000000E-03 0. -1.
        -11    1    3    3    0    0  0.19482860377E+02  0.28885584259E+01  0.36664278389E+01  0.20034178586E+02  0.51100000000E-03 0.  1.
        -12    1    3    3    0    0  0.22643654567E+02  0.14752953853E+01  0.11990173037E+02  0.25664680752E+02  0.00000000000E+00 0.  1.
</event>
<event>
 7    1  0.4452647E-009  0.4614232E+02  0.7816164E-02  0.1320468E+00
        -11   -1    0    0    0    0  0.00000000000E+00  0.00000000000E+00  0.45593999997E+02  0.45594000000E+02  0.51100000000E-03 0. -1.
         11   -1    0    0    0    0 -0.00000000000E+00 -0.00000000000E+00 -0.45593999997E+02  0.45594000000E+02  0.51100000000E-03 0.  1.
    9900012    2    1    2    0    0  0.16416454198E+02  0.24624532232E+02  0.33959475448E+02  0.46142317313E+02  0.99999959111E+01 0.  0.
        -12    1    1    2    0    0 -0.16416454198E+02 -0.24624532232E+02 -0.33959475448E+02  0.45045682687E+02  0.00000000000E+00 0.  1.
         11    1    3    3    0    0  0.12429959711E+02  0.13708009975E+02  0.21565734145E+02  0.28416444629E+02  0.51100000000E-03 0. -1.
        -11    1    3    3    0    0  0.28654032248E+01  0.90959851165E+01  0.67305246652E+01  0.11672508017E+02  0.51100000000E-03 0.  1.
        -12    1    3    3    0    0  0.11210912615E+01  0.18205371407E+01  0.56632166379E+01  0.60533646664E+01  0.00000000000E+00 0.  1.
</event>
<event>
 7    1  0.4452647E-009  0.4614232E+02  0.7816164E-02  0.1320468E+00
        -11   -1    0    0    0    0  0.00000000000E+00  0.00000000000E+00  0.45593999997E+02  0.45594000000E+02  0.51100000000E-03 0. -1.
         11   -1    0    0    0    0 -0.00000000000E+00 -0.00000000000E+00 -0.45593999997E+02  0.45594000000E+02  0.51100000000E-03 0.  1.
    9900012    2    1    2    0    0 -0.21485912665E+02  0.26663118148E+02  0.29266827703E+02  0.46142317452E+02  0.99999971844E+01 0.  0.
        -12    1    1    2    0    0  0.21485912665E+02 -0.26663118148E+02 -0.29266827703E+02  0.45045682548E+02  0.00000000000E+00 0.  1.
         11    1    3    3    0    0 -0.11644647036E+02  0.14629697876E+02  0.17347422074E+02  0.25506056484E+02  0.51100000000E-03 0. -1.
        -11    1    3    3    0    0 -0.35493826194E+01  0.40885868061E+00  0.32409829735E+01  0.48238214411E+01  0.51100000000E-03 0.  1.
        -12    1    3    3    0    0 -0.62918830097E+01  0.11624561592E+02  0.86784226553E+01  0.15812439527E+02  0.00000000000E+00 0.  1.
</event>
<event>
 7    1  0.4452647E-009  0.4614232E+02  0.7816164E-02  0.1320468E+00
        -11   -1    0    0    0    0  0.00000000000E+00  0.00000000000E+00  0.45593999997E+02  0.45594000000E+02  0.51100000000E-03 0. -1.
         11   -1    0    0    0    0 -0.00000000000E+00 -0.00000000000E+00 -0.45593999997E+02  0.45594000000E+02  0.51100000000E-03 0.  1.
    9900012    2    1    2    0    0 -0.20315854605E+02  0.32569325145E+02  0.23571559205E+02  0.46142319940E+02  0.10000019865E+02 0.  0.
        -12    1    1    2    0    0  0.20315854605E+02 -0.32569325145E+02 -0.23571559205E+02  0.45045680060E+02  0.00000000000E+00 0.  1.
         11    1    3    3    0    0 -0.98182678556E+01  0.12148543652E+02  0.63349562074E+01  0.16855775478E+02  0.51100000000E-03 0. -1.
        -11    1    3    3    0    0 -0.10642759569E-01 -0.36581505350E+00  0.46899005276E+00  0.59488305776E+00  0.51100000000E-03 0.  1.
         12    1    3    3    0    0 -0.10486943990E+02  0.20786596547E+02  0.16767612945E+02  0.28691661404E+02  0.00000000000E+00 0. -1.
</event>
<event>
 7    1  0.4452647E-009  0.4614232E+02  0.7816164E-02  0.1320468E+00
        -11   -1    0    0    0    0  0.00000000000E+00  0.00000000000E+00  0.45593999997E+02  0.45594000000E+02  0.51100000000E-03 0. -1.
         11   -1    0    0    0    0 -0.00000000000E+00 -0.00000000000E+00 -0.45593999997E+02  0.45594000000E+02  0.51100000000E-03 0.  1.
    9900012    2    1    2    0    0 -0.10063972758E+02  0.28580952247E+02 -0.33331053187E+02  0.46142317792E+02  0.10000000279E+02 0.  0.
         12    1    1    2    0    0  0.10063972758E+02 -0.28580952247E+02  0.33331053187E+02  0.45045682208E+02  0.00000000000E+00 0. -1.
         11    1    3    3    0    0  0.46623106631E+00  0.94530473684E+00 -0.46962029414E+00  0.11539133132E+01  0.51100000000E-03 0. -1.
        -11    1    3    3    0    0 -0.17509842588E+01  0.16084120370E+02 -0.16209914108E+02  0.22902536750E+02  0.51100000000E-03 0.  1.
        -12    1    3    3    0    0 -0.87792195652E+01  0.11551527140E+02 -0.16651518785E+02  0.22085867728E+02  0.00000000000E+00 0.  1.
</event>
<event>
 7    1  0.4452647E-009  0.4614231E+02  0.7816164E-02  0.1320468E+00
        -11   -1    0    0    0    0  0.00000000000E+00  0.00000000000E+00  0.45593999997E+02  0.45594000000E+02  0.51100000000E-03 0. -1.
         11   -1    0    0    0    0 -0.00000000000E+00 -0.00000000000E+00 -0.45593999997E+02  0.45594000000E+02  0.51100000000E-03 0.  1.
    9900012    2    1    2    0    0 -0.16750626188E+02  0.30840485033E+02  0.28238192523E+02  0.46142306402E+02  0.99998964139E+01 0.  0.
        -12    1    1    2    0    0  0.16750626188E+02 -0.30840485033E+02 -0.28238192523E+02  0.45045693598E+02  0.00000000000E+00 0.  1.
         11    1    3    3    0    0 -0.11045541424E+02  0.10526344000E+02  0.10341613275E+02  0.18432494914E+02  0.51100000000E-03 0. -1.
        -11    1    3    3    0    0 -0.15480762068E+01  0.39138556210E+01  0.41433268423E+01  0.59060954401E+01  0.51100000000E-03 0.  1.
         12    1    3    3    0    0 -0.41570085575E+01  0.16400285412E+02  0.13753252406E+02  0.21803716048E+02  0.00000000000E+00 0. -1.
</event>
<event>
 7    1  0.4452647E-009  0.4614232E+02  0.7816164E-02  0.1320468E+00
        -11   -1    0    0    0    0  0.00000000000E+00  0.00000000000E+00  0.45593999997E+02  0.45594000000E+02  0.51100000000E-03 0. -1.
         11   -1    0    0    0    0 -0.00000000000E+00 -0.00000000000E+00 -0.45593999997E+02  0.45594000000E+02  0.51100000000E-03 0.  1.
    9900012    2    1    2    0    0 -0.53064147054E+01 -0.30044960805E+02 -0.33139942976E+02  0.46142317330E+02  0.99999960657E+01 0.  0.
         12    1    1    2    0    0  0.53064147054E+01  0.30044960805E+02  0.33139942976E+02  0.45045682670E+02  0.00000000000E+00 0. -1.
         11    1    3    3    0    0 -0.56437853111E+00 -0.82012286072E+00 -0.11486468100E+01  0.15200376273E+01  0.51100000000E-03 0. -1.
        -11    1    3    3    0    0 -0.66918019704E+01 -0.26815026173E+02 -0.26351481920E+02  0.38186731228E+02  0.51100000000E-03 0.  1.
        -12    1    3    3    0    0  0.19497657961E+01 -0.24098117710E+01 -0.56398142460E+01  0.64355484739E+01  0.00000000000E+00 0.  1.
</event>
<event>
 7    1  0.4452647E-009  0.4614232E+02  0.7816164E-02  0.1320468E+00
        -11   -1    0    0    0    0  0.00000000000E+00  0.00000000000E+00  0.45593999997E+02  0.45594000000E+02  0.51100000000E-03 0. -1.
         11   -1    0    0    0    0 -0.00000000000E+00 -0.00000000000E+00 -0.45593999997E+02  0.45594000000E+02  0.51100000000E-03 0.  1.
    9900012    2    1    2    0    0 -0.29500977529E+02 -0.19151093038E+02  0.28143229922E+02  0.46142318407E+02  0.10000005891E+02 0.  0.
        -12    1    1    2    0    0  0.29500977529E+02  0.19151093038E+02 -0.28143229922E+02  0.45045681593E+02  0.00000000000E+00 0.  1.
         11    1    3    3    0    0 -0.19627106713E+02 -0.10125501247E+02  0.19573349403E+02  0.29510423591E+02  0.51100000000E-03 0. -1.
        -11    1    3    3    0    0 -0.69082027564E+01 -0.40166056417E+01  0.28863538124E+01  0.84963183083E+01  0.51100000000E-03 0.  1.
        -12    1    3    3    0    0 -0.29656680602E+01 -0.50089861499E+01  0.56835267068E+01  0.81355765082E+01  0.00000000000E+00 0.  1.
</event>
<event>
 7    1  0.4452647E-009  0.4614232E+02  0.7816164E-02  0.1320468E+00
        -11   -1    0    0    0    0  0.00000000000E+00  0.00000000000E+00  0.45593999997E+02  0.45594000000E+02  0.51100000000E-03 0. -1.
         11   -1    0    0    0    0 -0.00000000000E+00 -0.00000000000E+00 -0.45593999997E+02  0.45594000000E+02  0.51100000000E-03 0.  1.
    9900012    2    1    2    0    0 -0.10463317330E+02 -0.43737421805E+02  0.25827052086E+01  0.46142318276E+02  0.10000004700E+02 0.  0.
         12    1    1    2    0    0  0.10463317330E+02  0.43737421805E+02 -0.25827052086E+01  0.45045681724E+02  0.00000000000E+00 0. -1.
         11    1    3    3    0    0 -0.49530258634E+00  0.27286885046E-01  0.57989430379E+00  0.76311656437E+00  0.51100000000E-03 0. -1.
        -11    1    3    3    0    0 -0.75534744732E+01 -0.30340287306E+02  0.42552491208E+01  0.31554637627E+02  0.51100000000E-03 0.  1.
        -12    1    3    3    0    0 -0.24145402708E+01 -0.13424421384E+02 -0.22524382159E+01  0.13824564085E+02  0.00000000000E+00 0.  1.
</event>
<event>
 7    1  0.4452647E-009  0.4614232E+02  0.7816164E-02  0.1320468E+00
        -11   -1    0    0    0    0  0.00000000000E+00  0.00000000000E+00  0.45593999997E+02  0.45594000000E+02  0.51100000000E-03 0. -1.
         11   -1    0    0    0    0 -0.00000000000E+00 -0.00000000000E+00 -0.45593999997E+02  0.45594000000E+02  0.51100000000E-03 0.  1.
    9900012    2    1    2    0    0  0.94117033702E+01  0.16071405333E+02 -0.41015158954E+02  0.46142317702E+02  0.99999994580E+01 0.  0.
         12    1    1    2    0    0 -0.94117033702E+01 -0.16071405333E+02  0.41015158954E+02  0.45045682298E+02  0.00000000000E+00 0. -1.
         11    1    3    3    0    0  0.69645187925E+01  0.98661867515E+01 -0.16266630693E+02  0.20259551757E+02  0.51100000000E-03 0. -1.
        -11    1    3    3    0    0  0.13001987908E+01  0.34647675306E+01 -0.19533097618E+02  0.19880569251E+02  0.51100000000E-03 0.  1.
        -12    1    3    3    0    0  0.11469857868E+01  0.27404510505E+01 -0.52154306423E+01  0.60021966929E+01  0.00000000000E+00 0.  1.
</event>
<event>
 7    1  0.4452647E-009  0.4614232E+02  0.7816164E-02  0.1320468E+00
        -11   -1    0    0    0    0  0.00000000000E+00  0.00000000000E+00  0.45593999997E+02  0.45594000000E+02  0.51100000000E-03 0. -1.
         11   -1    0    0    0    0 -0.00000000000E+00 -0.00000000000E+00 -0.45593999997E+02  0.45594000000E+02  0.51100000000E-03 0.  1.
    9900012    2    1    2    0    0 -0.24579170654E+02  0.28101456847E+02 -0.25204878267E+02  0.46142318792E+02  0.10000009405E+02 0.  0.
         12    1    1    2    0    0  0.24579170654E+02 -0.28101456847E+02  0.25204878267E+02  0.45045681208E+02  0.00000000000E+00 0. -1.
         11    1    3    3    0    0 -0.33193011367E+00  0.44093224467E+00 -0.11611934541E+01  0.12856785538E+01  0.51100000000E-03 0. -1.
        -11    1    3    3    0    0 -0.82588189254E+01  0.52277017504E+01 -0.98141037517E+01  0.13851122277E+02  0.51100000000E-03 0.  1.
         12    1    3    3    0    0 -0.15988421615E+02  0.22432822852E+02 -0.14229581062E+02  0.31005517961E+02  0.00000000000E+00 0. -1.
</event>
<event>
 7    1  0.4452647E-009  0.4614232E+02  0.7816164E-02  0.1320468E+00
        -11   -1    0    0    0    0  0.00000000000E+00  0.00000000000E+00  0.45593999997E+02  0.45594000000E+02  0.51100000000E-03 0. -1.
         11   -1    0    0    0    0 -0.00000000000E+00 -0.00000000000E+00 -0.45593999997E+02  0.45594000000E+02  0.51100000000E-03 0.  1.
    9900012    2    1    2    0    0 -0.30352367740E+02  0.99922691868E+01  0.31749038434E+02  0.46142321934E+02  0.10000038051E+02 0.  0.
        -12    1    1    2    0    0  0.30352367740E+02 -0.99922691868E+01 -0.31749038434E+02  0.45045678066E+02  0.00000000000E+00 0.  1.
         11    1    3    3    0    0 -0.20656652373E+02  0.91834267620E+01  0.22263601851E+02  0.31728545223E+02  0.51100000000E-03 0. -1.
        -11    1    3    3    0    0 -0.20190098255E+01  0.25779205019E+00  0.52458451357E+01  0.56268773636E+01  0.51100000000E-03 0.  1.
         12    1    3    3    0    0 -0.76767055420E+01  0.55105037464E+00  0.42395914477E+01  0.87868993471E+01  0.00000000000E+00 0. -1.
</event>
<event>
 7    1  0.4452647E-009  0.4614232E+02  0.7816164E-02  0.1320468E+00
        -11   -1    0    0    0    0  0.00000000000E+00  0.00000000000E+00  0.45593999997E+02  0.45594000000E+02  0.51100000000E-03 0. -1.
         11   -1    0    0    0    0 -0.00000000000E+00 -0.00000000000E+00 -0.45593999997E+02  0.45594000000E+02  0.51100000000E-03 0.  1.
    9900012    2    1    2    0    0  0.14355168946E+02  0.41442651778E+02  0.10273710041E+02  0.46142318966E+02  0.10000010985E+02 0.  0.
        -12    1    1    2    0    0 -0.14355168946E+02 -0.41442651778E+02 -0.10273710041E+02  0.45045681034E+02  0.00000000000E+00 0.  1.
         11    1    3    3    0    0  0.20962983791E+01  0.19641923464E+02  0.51290122511E+01  0.20408488215E+02  0.51100000000E-03 0. -1.
        -11    1    3    3    0    0  0.64832486273E+01  0.87882562070E+01  0.13793400908E+01  0.11007658210E+02  0.51100000000E-03 0.  1.
        -12    1    3    3    0    0  0.57756219393E+01  0.13012472106E+02  0.37653576995E+01  0.14726172541E+02  0.00000000000E+00 0.  1.
</event>
<event>
 7    1  0.4452647E-009  0.4614232E+02  0.7816164E-02  0.1320468E+00
        -11   -1    0    0    0    0  0.00000000000E+00  0.00000000000E+00  0.45593999997E+02  0.45594000000E+02  0.51100000000E-03 0. -1.
         11   -1    0    0    0    0 -0.00000000000E+00 -0.00000000000E+00 -0.45593999997E+02  0.45594000000E+02  0.51100000000E-03 0.  1.
    9900012    2    1    2    0    0  0.15995710381E+02 -0.57470727419E+01  0.41715966824E+02  0.46142317812E+02  0.10000000465E+02 0.  0.
        -12    1    1    2    0    0 -0.15995710381E+02  0.57470727419E+01 -0.41715966824E+02  0.45045682188E+02  0.00000000000E+00 0.  1.
         11    1    3    3    0    0  0.25403201921E+01  0.47509234776E+00  0.89811931352E+01  0.93456283796E+01  0.51100000000E-03 0. -1.
        -11    1    3    3    0    0  0.67005054644E+01 -0.43992439011E+01  0.89990620458E+01  0.12051275382E+02  0.51100000000E-03 0.  1.
        -12    1    3    3    0    0  0.67548847249E+01 -0.18229211886E+01  0.23735711643E+02  0.24745414050E+02  0.00000000000E+00 0.  1.
</event>
<event>
 7    1  0.4452647E-009  0.4614232E+02  0.7816164E-02  0.1320468E+00
        -11   -1    0    0    0    0  0.00000000000E+00  0.00000000000E+00  0.45593999997E+02  0.45594000000E+02  0.51100000000E-03 0.  1.
         11   -1    0    0    0    0 -0.00000000000E+00 -0.00000000000E+00 -0.45593999997E+02  0.45594000000E+02  0.51100000000E-03 0. -1.
    9900012    2    1    2    0    0 -0.25026279071E+02  0.36938559493E+02 -0.61920532290E+01  0.46142319355E+02  0.10000014534E+02 0.  0.
         12    1    1    2    0    0  0.25026279071E+02 -0.36938559493E+02  0.61920532290E+01  0.45045680645E+02  0.00000000000E+00 0. -1.
         11    1    3    3    0    0 -0.11167271704E+01  0.15639771026E+01  0.15384103281E+01  0.24616682452E+01  0.51100000000E-03 0. -1.
        -11    1    3    3    0    0 -0.17507612702E+02  0.27012763164E+02 -0.79108763131E+01  0.33147968875E+02  0.51100000000E-03 0.  1.
        -12    1    3    3    0    0 -0.64019391984E+01  0.83618192271E+01  0.18041275606E+00  0.10532682234E+02  0.00000000000E+00 0.  1.
</event>
<event>
 7    1  0.4452647E-009  0.4614232E+02  0.7816164E-02  0.1320468E+00
        -11   -1    0    0    0    0  0.00000000000E+00  0.00000000000E+00  0.45593999997E+02  0.45594000000E+02  0.51100000000E-03 0. -1.
         11   -1    0    0    0    0 -0.00000000000E+00 -0.00000000000E+00 -0.45593999997E+02  0.45594000000E+02  0.51100000000E-03 0.  1.
    9900012    2    1    2    0    0  0.16564888828E+02 -0.64919085889E+01  0.41383246661E+02  0.46142317374E+02  0.99999964678E+01 0.  0.
        -12    1    1    2    0    0 -0.16564888828E+02  0.64919085889E+01 -0.41383246661E+02  0.45045682626E+02  0.00000000000E+00 0.  1.
         11    1    3    3    0    0 -0.80086444241E+00  0.76456576164E+00  0.94957819918E+00  0.14586444654E+01  0.51100000000E-03 0. -1.
        -11    1    3    3    0    0  0.13190194569E+02 -0.48007270034E+01  0.27557454282E+02  0.30926388397E+02  0.51100000000E-03 0.  1.
         12    1    3    3    0    0  0.41755587020E+01 -0.24557473471E+01  0.12876214181E+02  0.13757284512E+02  0.00000000000E+00 0. -1.
</event>
<event>
 7    1  0.4452647E-009  0.4614232E+02  0.7816164E-02  0.1320468E+00
        -11   -1    0    0    0    0  0.00000000000E+00  0.00000000000E+00  0.45593999997E+02  0.45594000000E+02  0.51100000000E-03 0. -1.
         11   -1    0    0    0    0 -0.00000000000E+00 -0.00000000000E+00 -0.45593999997E+02  0.45594000000E+02  0.51100000000E-03 0.  1.
    9900012    2    1    2    0    0 -0.18612656976E+02  0.30452448888E+02 -0.27483283914E+02  0.46142317214E+02  0.99999950114E+01 0.  0.
         12    1    1    2    0    0  0.18612656976E+02 -0.30452448888E+02  0.27483283914E+02  0.45045682786E+02  0.00000000000E+00 0. -1.
         11    1    3    3    0    0  0.57489679599E+00  0.92829780525E+00 -0.72880697784E-01  0.10943285606E+01  0.51100000000E-03 0. -1.
        -11    1    3    3    0    0 -0.16815208287E+02  0.27613999537E+02 -0.26675058043E+02  0.41914710091E+02  0.51100000000E-03 0.  1.
         12    1    3    3    0    0 -0.23723454850E+01  0.19101515455E+01 -0.73534517350E+00  0.31332785627E+01  0.00000000000E+00 0. -1.
</event>
<event>
 7    1  0.4452647E-009  0.4614232E+02  0.7816164E-02  0.1320468E+00
        -11   -1    0    0    0    0  0.00000000000E+00  0.00000000000E+00  0.45593999997E+02  0.45594000000E+02  0.51100000000E-03 0. -1.
         11   -1    0    0    0    0 -0.00000000000E+00 -0.00000000000E+00 -0.45593999997E+02  0.45594000000E+02  0.51100000000E-03 0.  1.
    9900012    2    1    2    0    0 -0.10779934854E+02  0.40691026550E+02 -0.16035803394E+02  0.46142316215E+02  0.99999859052E+01 0.  0.
         12    1    1    2    0    0  0.10779934854E+02 -0.40691026550E+02  0.16035803394E+02  0.45045683785E+02  0.00000000000E+00 0. -1.
         11    1    3    3    0    0 -0.84194885448E+01  0.22378395680E+02 -0.53798500449E+01  0.24507614476E+02  0.51100000000E-03 0.  1.
        -11    1    3    3    0    0 -0.15949341367E+01  0.10256565599E+02 -0.80418965324E+01  0.13130615099E+02  0.51100000000E-03 0. -1.
        -12    1    3    3    0    0 -0.76551217261E+00  0.80560652706E+01 -0.26140568170E+01  0.85040866396E+01  0.00000000000E+00 0.  1.
</event>
<event>
 7    1  0.4452647E-009  0.4614231E+02  0.7816164E-02  0.1320468E+00
        -11   -1    0    0    0    0  0.00000000000E+00  0.00000000000E+00  0.45593999997E+02  0.45594000000E+02  0.51100000000E-03 0. -1.
         11   -1    0    0    0    0 -0.00000000000E+00 -0.00000000000E+00 -0.45593999997E+02  0.45594000000E+02  0.51100000000E-03 0.  1.
    9900012    2    1    2    0    0 -0.35659213279E+02 -0.19140496632E+02 -0.19778164266E+02  0.46142313362E+02  0.99999598830E+01 0.  0.
         12    1    1    2    0    0  0.35659213279E+02  0.19140496632E+02  0.19778164266E+02  0.45045686638E+02  0.00000000000E+00 0. -1.
         11    1    3    3    0    0 -0.99501694215E+01 -0.85696275317E+01 -0.44750964499E+01  0.13873387331E+02  0.51100000000E-03 0. -1.
        -11    1    3    3    0    0 -0.21455934387E+02 -0.92506414443E+01 -0.10196015301E+02  0.25492944433E+02  0.51100000000E-03 0.  1.
         12    1    3    3    0    0 -0.42531094699E+01 -0.13202276563E+01 -0.51070525142E+01  0.67759815976E+01  0.00000000000E+00 0. -1.
</event>
<event>
 7    1  0.4452647E-009  0.4614232E+02  0.7816164E-02  0.1320468E+00
        -11   -1    0    0    0    0  0.00000000000E+00  0.00000000000E+00  0.45593999997E+02  0.45594000000E+02  0.51100000000E-03 0. -1.
         11   -1    0    0    0    0 -0.00000000000E+00 -0.00000000000E+00 -0.45593999997E+02  0.45594000000E+02  0.51100000000E-03 0.  1.
    9900012    2    1    2    0    0  0.37737187125E+02  0.20013820155E+02 -0.14299131840E+02  0.46142318068E+02  0.10000002799E+02 0.  0.
         12    1    1    2    0    0 -0.37737187125E+02 -0.20013820155E+02  0.14299131840E+02  0.45045681932E+02  0.00000000000E+00 0. -1.
         11    1    3    3    0    0  0.21927122062E+01  0.69964436998E+00 -0.33301694784E+01  0.40481499577E+01  0.51100000000E-03 0. -1.
        -11    1    3    3    0    0  0.97884565846E+01  0.52931059374E+01 -0.48424956552E+01  0.12135922594E+02  0.51100000000E-03 0.  1.
         12    1    3    3    0    0  0.25756018335E+02  0.14021069848E+02 -0.61264667061E+01  0.29958245517E+02  0.00000000000E+00 0. -1.
</event>
<event>
 7    1  0.4452647E-009  0.4614231E+02  0.7816164E-02  0.1320468E+00
        -11   -1    0    0    0    0  0.00000000000E+00  0.00000000000E+00  0.45593999997E+02  0.45594000000E+02  0.51100000000E-03 0. -1.
         11   -1    0    0    0    0 -0.00000000000E+00 -0.00000000000E+00 -0.45593999997E+02  0.45594000000E+02  0.51100000000E-03 0.  1.
    9900012    2    1    2    0    0 -0.24690207322E+02 -0.12800992772E+02  0.35435051429E+02  0.46142305164E+02  0.99998851254E+01 0.  0.
        -12    1    1    2    0    0  0.24690207322E+02  0.12800992772E+02 -0.35435051429E+02  0.45045694836E+02  0.00000000000E+00 0.  1.
         11    1    3    3    0    0 -0.18595872991E+02 -0.11214225204E+02  0.28880802005E+02  0.36134001493E+02  0.51100000000E-03 0. -1.
        -11    1    3    3    0    0 -0.22703191335E+01 -0.27414368100E+01  0.33402761453E+01  0.48813184428E+01  0.51100000000E-03 0.  1.
         12    1    3    3    0    0 -0.38240151978E+01  0.11546692417E+01  0.32139732781E+01  0.51269852275E+01  0.00000000000E+00 0. -1.
</event>
<event>
 7    1  0.4452647E-009  0.4614232E+02  0.7816164E-02  0.1320468E+00
        -11   -1    0    0    0    0  0.00000000000E+00  0.00000000000E+00  0.45593999997E+02  0.45594000000E+02  0.51100000000E-03 0. -1.
         11   -1    0    0    0    0 -0.00000000000E+00 -0.00000000000E+00 -0.45593999997E+02  0.45594000000E+02  0.51100000000E-03 0.  1.
    9900012    2    1    2    0    0 -0.12257972151E+02  0.37269562707E+02  0.22132221778E+02  0.46142318448E+02  0.10000006266E+02 0.  0.
        -12    1    1    2    0    0  0.12257972151E+02 -0.37269562707E+02 -0.22132221778E+02  0.45045681552E+02  0.00000000000E+00 0.  1.
         11    1    3    3    0    0 -0.45654568823E+00  0.46870096943E+01  0.27257510543E+01  0.54411591514E+01  0.51100000000E-03 0. -1.
        -11    1    3    3    0    0 -0.80899148834E+00  0.19727055636E+01 -0.94778247829E+00  0.23333080286E+01  0.51100000000E-03 0.  1.
        -12    1    3    3    0    0 -0.10992434975E+02  0.30609847449E+02  0.20354253202E+02  0.38367851268E+02  0.00000000000E+00 0.  1.
</event>
<event>
 7    1  0.4452647E-009  0.4614232E+02  0.7816164E-02  0.1320468E+00
        -11   -1    0    0    0    0  0.00000000000E+00  0.00000000000E+00  0.45593999997E+02  0.45594000000E+02  0.51100000000E-03 0. -1.
         11   -1    0    0    0    0 -0.00000000000E+00 -0.00000000000E+00 -0.45593999997E+02  0.45594000000E+02  0.51100000000E-03 0.  1.
    9900012    2    1    2    0    0  0.15829623745E+02  0.41396273102E+02 -0.80551236734E+01  0.46142318386E+02  0.10000005699E+02 0.  0.
         12    1    1    2    0    0 -0.15829623745E+02 -0.41396273102E+02  0.80551236734E+01  0.45045681614E+02  0.00000000000E+00 0. -1.
         11    1    3    3    0    0  0.57265300144E+01  0.16283524016E+02  0.44655125424E-01  0.17261178834E+02  0.51100000000E-03 0. -1.
        -11    1    3    3    0    0  0.95551774297E+01  0.19922515738E+02 -0.45218135801E+01  0.22553377738E+02  0.51100000000E-03 0.  1.
        -12    1    3    3    0    0  0.54791630042E+00  0.51902333481E+01 -0.35779652188E+01  0.63277618150E+01  0.00000000000E+00 0.  1.
</event>
<event>
 7    1  0.4452647E-009  0.4614232E+02  0.7816164E-02  0.1320468E+00
        -11   -1    0    0    0    0  0.00000000000E+00  0.00000000000E+00  0.45593999997E+02  0.45594000000E+02  0.51100000000E-03 0. -1.
         11   -1    0    0    0    0 -0.00000000000E+00 -0.00000000000E+00 -0.45593999997E+02  0.45594000000E+02  0.51100000000E-03 0.  1.
    9900012    2    1    2    0    0 -0.42606896639E+02 -0.12584817480E+02  0.74423265477E+01  0.46142317669E+02  0.99999991636E+01 0.  0.
        -12    1    1    2    0    0  0.42606896639E+02  0.12584817480E+02 -0.74423265477E+01  0.45045682331E+02  0.00000000000E+00 0.  1.
         11    1    3    3    0    0 -0.29359501179E+02 -0.85911875890E+01  0.45694226193E+01  0.30930057177E+02  0.51100000000E-03 0. -1.
        -11    1    3    3    0    0  0.45655504848E+00  0.14767605802E+00 -0.27663426986E+00  0.55387499563E+00  0.51100000000E-03 0.  1.
        -12    1    3    3    0    0 -0.13703950509E+02 -0.41413059489E+01  0.31495381982E+01  0.14658385497E+02  0.00000000000E+00 0.  1.
</event>
<event>
 7    1  0.4452647E-009  0.4614232E+02  0.7816164E-02  0.1320468E+00
        -11   -1    0    0    0    0  0.00000000000E+00  0.00000000000E+00  0.45593999997E+02  0.45594000000E+02  0.51100000000E-03 0. -1.
         11   -1    0    0    0    0 -0.00000000000E+00 -0.00000000000E+00 -0.45593999997E+02  0.45594000000E+02  0.51100000000E-03 0.  1.
    9900012    2    1    2    0    0  0.10993461146E+02 -0.29132085256E+01 -0.43586356268E+02  0.46142318469E+02  0.10000006453E+02 0.  0.
         12    1    1    2    0    0 -0.10993461146E+02  0.29132085256E+01  0.43586356268E+02  0.45045681531E+02  0.00000000000E+00 0. -1.
         11    1    3    3    0    0 -0.11148401551E+01  0.12975143300E+01 -0.46991701264E+01  0.50008611404E+01  0.51100000000E-03 0. -1.
        -11    1    3    3    0    0  0.52766403863E+01 -0.89962534364E-02 -0.12668570069E+02  0.13723544825E+02  0.51100000000E-03 0.  1.
         12    1    3    3    0    0  0.68316609144E+01 -0.42017266022E+01 -0.26218616072E+02  0.27417912503E+02  0.00000000000E+00 0. -1.
</event>
<event>
 7    1  0.4452647E-009  0.4614232E+02  0.7816164E-02  0.1320468E+00
        -11   -1    0    0    0    0  0.00000000000E+00  0.00000000000E+00  0.45593999997E+02  0.45594000000E+02  0.51100000000E-03 0. -1.
         11   -1    0    0    0    0 -0.00000000000E+00 -0.00000000000E+00 -0.45593999997E+02  0.45594000000E+02  0.51100000000E-03 0.  1.
    9900012    2    1    2    0    0 -0.30479613955E+02 -0.30414242442E+02 -0.13231800987E+02  0.46142316883E+02  0.99999919892E+01 0.  0.
         12    1    1    2    0    0  0.30479613955E+02  0.30414242442E+02  0.13231800987E+02  0.45045683117E+02  0.00000000000E+00 0. -1.
         11    1    3    3    0    0 -0.77593811109E+01 -0.60182488550E+01 -0.91946399724E+00  0.98626937906E+01  0.51100000000E-03 0. -1.
        -11    1    3    3    0    0 -0.81223134558E+01 -0.63549195847E+01 -0.70230362457E+01  0.12477179856E+02  0.51100000000E-03 0.  1.
        -12    1    3    3    0    0 -0.14597919388E+02 -0.18041074002E+02 -0.52893007442E+01  0.23802443235E+02  0.00000000000E+00 0.  1.
</event>
<event>
 7    1  0.4452647E-009  0.4614231E+02  0.7816164E-02  0.1320468E+00
        -11   -1    0    0    0    0  0.00000000000E+00  0.00000000000E+00  0.45593999997E+02  0.45594000000E+02  0.51100000000E-03 0. -1.
         11   -1    0    0    0    0 -0.00000000000E+00 -0.00000000000E+00 -0.45593999997E+02  0.45594000000E+02  0.51100000000E-03 0.  1.
    9900012    2    1    2    0    0 -0.13775698807E+02 -0.31035428686E+02  0.29599764757E+02  0.46142314469E+02  0.99999699754E+01 0.  0.
        -12    1    1    2    0    0  0.13775698807E+02  0.31035428686E+02 -0.29599764757E+02  0.45045685531E+02  0.00000000000E+00 0.  1.
         11    1    3    3    0    0 -0.97927022671E+01 -0.14089202496E+02  0.14903840647E+02  0.22727232804E+02  0.51100000000E-03 0. -1.
        -11    1    3    3    0    0 -0.18734773064E+01 -0.75175144363E+01  0.10063119221E+02  0.12699972804E+02  0.51100000000E-03 0.  1.
         12    1    3    3    0    0 -0.21095192339E+01 -0.94287117540E+01  0.46328048891E+01  0.10715108860E+02  0.00000000000E+00 0. -1.
</event>
<event>
 7    1  0.4452647E-009  0.4614232E+02  0.7816164E-02  0.1320468E+00
        -11   -1    0    0    0    0  0.00000000000E+00  0.00000000000E+00  0.45593999997E+02  0.45594000000E+02  0.51100000000E-03 0. -1.
         11   -1    0    0    0    0 -0.00000000000E+00 -0.00000000000E+00 -0.45593999997E+02  0.45594000000E+02  0.51100000000E-03 0.  1.
    9900012    2    1    2    0    0 -0.26288116677E+02 -0.24351736987E+02  0.27295444503E+02  0.46142318039E+02  0.10000002537E+02 0.  0.
        -12    1    1    2    0    0  0.26288116677E+02  0.24351736987E+02 -0.27295444503E+02  0.45045681961E+02  0.00000000000E+00 0.  1.
         11    1    3    3    0    0 -0.90046453222E+00 -0.38471942264E+01  0.54626958471E+01  0.67418681364E+01  0.51100000000E-03 0. -1.
        -11    1    3    3    0    0 -0.63325753323E+01 -0.42714860247E+01  0.36778824931E+01  0.84778489662E+01  0.51100000000E-03 0.  1.
         12    1    3    3    0    0 -0.19055076812E+02 -0.16233056736E+02  0.18154866163E+02  0.30922600937E+02  0.00000000000E+00 0. -1.
</event>
<event>
 7    1  0.4452647E-009  0.4614233E+02  0.7816164E-02  0.1320468E+00
        -11   -1    0    0    0    0  0.00000000000E+00  0.00000000000E+00  0.45593999997E+02  0.45594000000E+02  0.51100000000E-03 0. -1.
         11   -1    0    0    0    0 -0.00000000000E+00 -0.00000000000E+00 -0.45593999997E+02  0.45594000000E+02  0.51100000000E-03 0.  1.
    9900012    2    1    2    0    0  0.13696456535E+02  0.10603219116E+02  0.41582345899E+02  0.46142326870E+02  0.10000083065E+02 0.  0.
        -12    1    1    2    0    0 -0.13696456535E+02 -0.10603219116E+02 -0.41582345899E+02  0.45045673130E+02  0.00000000000E+00 0.  1.
         11    1    3    3    0    0  0.13289982155E+01  0.60160442550E+01  0.14393605435E+02  0.15656784549E+02  0.51100000000E-03 0. -1.
        -11    1    3    3    0    0  0.70783661839E+01  0.11944598787E+01  0.11162645453E+02  0.13271573230E+02  0.51100000000E-03 0.  1.
         12    1    3    3    0    0  0.52890921358E+01  0.33927149826E+01  0.16026095011E+02  0.17213969091E+02  0.00000000000E+00 0. -1.
</event>
<event>
 7    1  0.4452647E-009  0.4614232E+02  0.7816164E-02  0.1320468E+00
        -11   -1    0    0    0    0  0.00000000000E+00  0.00000000000E+00  0.45593999997E+02  0.45594000000E+02  0.51100000000E-03 0. -1.
         11   -1    0    0    0    0 -0.00000000000E+00 -0.00000000000E+00 -0.45593999997E+02  0.45594000000E+02  0.51100000000E-03 0.  1.
    9900012    2    1    2    0    0 -0.20537311889E+02 -0.53942027031E+01 -0.39727004899E+02  0.46142317402E+02  0.99999967268E+01 0.  0.
         12    1    1    2    0    0  0.20537311889E+02  0.53942027031E+01  0.39727004899E+02  0.45045682598E+02  0.00000000000E+00 0. -1.
         11    1    3    3    0    0 -0.12318341856E+02  0.39786580527E+00 -0.15595872897E+02  0.19877904693E+02  0.51100000000E-03 0. -1.
        -11    1    3    3    0    0 -0.74455543890E+01 -0.42427988778E+01 -0.18846919356E+02  0.20703719279E+02  0.51100000000E-03 0.  1.
         12    1    3    3    0    0 -0.77341564386E+00 -0.15492696306E+01 -0.52842126457E+01  0.55606934308E+01  0.00000000000E+00 0. -1.
</event>
<event>
 7    1  0.4452647E-009  0.4614232E+02  0.7816164E-02  0.1320468E+00
        -11   -1    0    0    0    0  0.00000000000E+00  0.00000000000E+00  0.45593999997E+02  0.45594000000E+02  0.51100000000E-03 0. -1.
         11   -1    0    0    0    0 -0.00000000000E+00 -0.00000000000E+00 -0.45593999997E+02  0.45594000000E+02  0.51100000000E-03 0.  1.
    9900012    2    1    2    0    0 -0.70495368999E+01  0.27957298869E+02 -0.34609348820E+02  0.46142317007E+02  0.99999931246E+01 0.  0.
         12    1    1    2    0    0  0.70495368999E+01 -0.27957298869E+02  0.34609348820E+02  0.45045682993E+02  0.00000000000E+00 0. -1.
         11    1    3    3    0    0  0.13158203653E+01  0.77674626728E+00 -0.30236402792E+01  0.33877896624E+01  0.51100000000E-03 0. -1.
        -11    1    3    3    0    0 -0.51778987636E+01  0.10013453697E+02 -0.10843645288E+02  0.15641756102E+02  0.51100000000E-03 0.  1.
        -12    1    3    3    0    0 -0.31874585015E+01  0.17167098905E+02 -0.20742063253E+02  0.27112771243E+02  0.00000000000E+00 0.  1.
</event>
<event>
 7    1  0.4452647E-009  0.4614232E+02  0.7816164E-02  0.1320468E+00
        -11   -1    0    0    0    0  0.00000000000E+00  0.00000000000E+00  0.45593999997E+02  0.45594000000E+02  0.51100000000E-03 0. -1.
         11   -1    0    0    0    0 -0.00000000000E+00 -0.00000000000E+00 -0.45593999997E+02  0.45594000000E+02  0.51100000000E-03 0.  1.
    9900012    2    1    2    0    0  0.14420338354E+02  0.65477390946E+01  0.42169827871E+02  0.46142318429E+02  0.10000006091E+02 0.  0.
        -12    1    1    2    0    0 -0.14420338354E+02 -0.65477390946E+01 -0.42169827871E+02  0.45045681571E+02  0.00000000000E+00 0.  1.
         11    1    3    3    0    0  0.81357255550E+01  0.58130307738E+01  0.20726536342E+02  0.23012402441E+02  0.51100000000E-03 0. -1.
        -11    1    3    3    0    0  0.97675560028E+00  0.28034308692E+01  0.77257266360E+01  0.82764804390E+01  0.51100000000E-03 0.  1.
        -12    1    3    3    0    0  0.53078571984E+01 -0.20687225485E+01  0.13717564893E+02  0.14853435549E+02  0.00000000000E+00 0.  1.
</event>
<event>
 7    1  0.4452647E-009  0.4614232E+02  0.7816164E-02  0.1320468E+00
        -11   -1    0    0    0    0  0.00000000000E+00  0.00000000000E+00  0.45593999997E+02  0.45594000000E+02  0.51100000000E-03 0. -1.
         11   -1    0    0    0    0 -0.00000000000E+00 -0.00000000000E+00 -0.45593999997E+02  0.45594000000E+02  0.51100000000E-03 0.  1.
    9900012    2    1    2    0    0 -0.34198447369E+01 -0.42335996450E+02  0.15002718196E+02  0.46142317780E+02  0.10000000171E+02 0.  0.
        -12    1    1    2    0    0  0.34198447369E+01  0.42335996450E+02 -0.15002718196E+02  0.45045682220E+02  0.00000000000E+00 0.  1.
         11    1    3    3    0    0 -0.24888348884E+01 -0.43932713880E+01  0.37996727549E+01  0.63192282674E+01  0.51100000000E-03 0.  1.
        -11    1    3    3    0    0 -0.20094361189E+01 -0.35258617436E+02  0.10161859992E+02  0.36748759650E+02  0.51100000000E-03 0. -1.
         12    1    3    3    0    0  0.10784262704E+01 -0.26841076253E+01  0.10411854489E+01  0.30743298626E+01  0.00000000000E+00 0. -1.
</event>
<event>
 7    1  0.4452647E-009  0.4614232E+02  0.7816164E-02  0.1320468E+00
        -11   -1    0    0    0    0  0.00000000000E+00  0.00000000000E+00  0.45593999997E+02  0.45594000000E+02  0.51100000000E-03 0. -1.
         11   -1    0    0    0    0 -0.00000000000E+00 -0.00000000000E+00 -0.45593999997E+02  0.45594000000E+02  0.51100000000E-03 0.  1.
    9900012    2    1    2    0    0  0.12895997460E+02  0.19972940248E+02  0.38260793497E+02  0.46142318612E+02  0.10000007761E+02 0.  0.
        -12    1    1    2    0    0 -0.12895997460E+02 -0.19972940248E+02 -0.38260793497E+02  0.45045681388E+02  0.00000000000E+00 0.  1.
         11    1    3    3    0    0  0.49343696435E+01  0.84609486572E+01  0.17597693165E+02  0.20139872417E+02  0.51100000000E-03 0. -1.
        -11    1    3    3    0    0  0.89472149413E+01  0.11170420415E+02  0.17147413235E+02  0.22335279904E+02  0.51100000000E-03 0.  1.
        -12    1    3    3    0    0 -0.98558712507E+00  0.34157117605E+00  0.35156870965E+01  0.36671662916E+01  0.00000000000E+00 0.  1.
</event>
<event>
 7    1  0.4452647E-009  0.4614232E+02  0.7816164E-02  0.1320468E+00
        -11   -1    0    0    0    0  0.00000000000E+00  0.00000000000E+00  0.45593999997E+02  0.45594000000E+02  0.51100000000E-03 0. -1.
         11   -1    0    0    0    0 -0.00000000000E+00 -0.00000000000E+00 -0.45593999997E+02  0.45594000000E+02  0.51100000000E-03 0.  1.
    9900012    2    1    2    0    0 -0.11900594667E+01 -0.38398212251E+02  0.23521788195E+02  0.46142318014E+02  0.10000002310E+02 0.  0.
        -12    1    1    2    0    0  0.11900594667E+01  0.38398212251E+02 -0.23521788195E+02  0.45045681986E+02  0.00000000000E+00 0.  1.
         11    1    3    3    0    0  0.28560439067E+01 -0.29112382129E+02  0.18807743997E+02  0.34776702181E+02  0.51100000000E-03 0. -1.
        -11    1    3    3    0    0 -0.21076944929E+01 -0.34972232572E+01  0.28617725138E+01  0.49862499705E+01  0.51100000000E-03 0.  1.
        -12    1    3    3    0    0 -0.19384088805E+01 -0.57886068651E+01  0.18522716843E+01  0.63793658634E+01  0.00000000000E+00 0.  1.
</event>
<event>
 7    1  0.4452647E-009  0.4614232E+02  0.7816164E-02  0.1320468E+00
        -11   -1    0    0    0    0  0.00000000000E+00  0.00000000000E+00  0.45593999997E+02  0.45594000000E+02  0.51100000000E-03 0. -1.
         11   -1    0    0    0    0 -0.00000000000E+00 -0.00000000000E+00 -0.45593999997E+02  0.45594000000E+02  0.51100000000E-03 0.  1.
    9900012    2    1    2    0    0  0.15269607399E+02 -0.34725435976E+02  0.24291901515E+02  0.46142319929E+02  0.10000019772E+02 0.  0.
        -12    1    1    2    0    0 -0.15269607399E+02  0.34725435976E+02 -0.24291901515E+02  0.45045680071E+02  0.00000000000E+00 0.  1.
         11    1    3    3    0    0  0.10144489157E+02 -0.19260898879E+02  0.96482842250E+01  0.23811389599E+02  0.51100000000E-03 0. -1.
        -11    1    3    3    0    0  0.41946640451E+01 -0.15147308913E+02  0.12917377202E+02  0.20344404827E+02  0.51100000000E-03 0.  1.
         12    1    3    3    0    0  0.93045419701E+00 -0.31722818424E+00  0.17262400884E+01  0.19865255036E+01  0.00000000000E+00 0. -1.
</event>
<event>
 7    1  0.4452647E-009  0.4614232E+02  0.7816164E-02  0.1320468E+00
        -11   -1    0    0    0    0  0.00000000000E+00  0.00000000000E+00  0.45593999997E+02  0.45594000000E+02  0.51100000000E-03 0.  1.
         11   -1    0    0    0    0 -0.00000000000E+00 -0.00000000000E+00 -0.45593999997E+02  0.45594000000E+02  0.51100000000E-03 0. -1.
    9900012    2    1    2    0    0  0.41508857494E+02 -0.62420353050E+01 -0.16345187049E+02  0.46142318799E+02  0.10000009461E+02 0.  0.
         12    1    1    2    0    0 -0.41508857494E+02  0.62420353050E+01  0.16345187049E+02  0.45045681201E+02  0.00000000000E+00 0. -1.
         11    1    3    3    0    0  0.31975169124E+01 -0.35390366769E+00 -0.35138258620E+01  0.47640670294E+01  0.51100000000E-03 0. -1.
        -11    1    3    3    0    0  0.14708359689E+02 -0.54612926107E+01 -0.60631887276E+01  0.16820339459E+02  0.51100000000E-03 0.  1.
        -12    1    3    3    0    0  0.23602980893E+02 -0.42683902657E+00 -0.67681724595E+01  0.24557912310E+02  0.00000000000E+00 0.  1.
</event>
<event>
 7    1  0.4452647E-009  0.4614231E+02  0.7816164E-02  0.1320468E+00
        -11   -1    0    0    0    0  0.00000000000E+00  0.00000000000E+00  0.45593999997E+02  0.45594000000E+02  0.51100000000E-03 0. -1.
         11   -1    0    0    0    0 -0.00000000000E+00 -0.00000000000E+00 -0.45593999997E+02  0.45594000000E+02  0.51100000000E-03 0.  1.
    9900012    2    1    2    0    0  0.16473826327E+02 -0.15196890001E+02  0.39074049362E+02  0.46142314823E+02  0.99999732050E+01 0.  0.
        -12    1    1    2    0    0 -0.16473826327E+02  0.15196890001E+02 -0.39074049362E+02  0.45045685177E+02  0.00000000000E+00 0.  1.
         11    1    3    3    0    0  0.10850648381E+02 -0.13265197113E+02  0.24477110466E+02  0.29880277137E+02  0.51100000000E-03 0. -1.
        -11    1    3    3    0    0  0.85491517637E+00 -0.18094251083E+01  0.21739263452E+01  0.29548020571E+01  0.51100000000E-03 0.  1.
         12    1    3    3    0    0  0.47682627696E+01 -0.12226777973E+00  0.12423012551E+02  0.13307235629E+02  0.00000000000E+00 0. -1.
</event>
<event>
 7    1  0.4452647E-009  0.4614233E+02  0.7816164E-02  0.1320468E+00
        -11   -1    0    0    0    0  0.00000000000E+00  0.00000000000E+00  0.45593999997E+02  0.45594000000E+02  0.51100000000E-03 0. -1.
         11   -1    0    0    0    0 -0.00000000000E+00 -0.00000000000E+00 -0.45593999997E+02  0.45594000000E+02  0.51100000000E-03 0.  1.
    9900012    2    1    2    0    0 -0.97052909814E+01 -0.43649577382E+02 -0.54437608628E+01  0.46142325280E+02  0.10000068562E+02 0.  0.
         12    1    1    2    0    0  0.97052909814E+01  0.43649577382E+02  0.54437608628E+01  0.45045674720E+02  0.00000000000E+00 0. -1.
         11    1    3    3    0    0 -0.40784773948E+00 -0.53723923684E+01 -0.24529228028E+01  0.59199467967E+01  0.51100000000E-03 0. -1.
        -11    1    3    3    0    0 -0.43087826961E+01 -0.65000800809E+01 -0.19530178909E+01  0.80393363236E+01  0.51100000000E-03 0.  1.
        -12    1    3    3    0    0 -0.49886605458E+01 -0.31777104933E+02 -0.10378201691E+01  0.32183042160E+02  0.00000000000E+00 0.  1.
</event>
<event>
 7    1  0.4452647E-009  0.4614232E+02  0.7816164E-02  0.1320468E+00
        -11   -1    0    0    0    0  0.00000000000E+00  0.00000000000E+00  0.45593999997E+02  0.45594000000E+02  0.51100000000E-03 0.  1.
         11   -1    0    0    0    0 -0.00000000000E+00 -0.00000000000E+00 -0.45593999997E+02  0.45594000000E+02  0.51100000000E-03 0. -1.
    9900012    2    1    2    0    0  0.25767925498E+02  0.33573678791E+02  0.15425156471E+02  0.46142319361E+02  0.10000014588E+02 0.  0.
        -12    1    1    2    0    0 -0.25767925498E+02 -0.33573678791E+02 -0.15425156471E+02  0.45045680639E+02  0.00000000000E+00 0.  1.
         11    1    3    3    0    0  0.11342880873E+02  0.19342821427E+02  0.84509612903E+01  0.23962980496E+02  0.51100000000E-03 0. -1.
        -11    1    3    3    0    0  0.74240077312E+00  0.34590448814E+01  0.37805338628E+00  0.35579593904E+01  0.51100000000E-03 0.  1.
        -12    1    3    3    0    0  0.13682643853E+02  0.10771812483E+02  0.65961417948E+01  0.18621379475E+02  0.00000000000E+00 0.  1.
</event>
<event>
 7    1  0.4452647E-009  0.4614232E+02  0.7816164E-02  0.1320468E+00
        -11   -1    0    0    0    0  0.00000000000E+00  0.00000000000E+00  0.45593999997E+02  0.45594000000E+02  0.51100000000E-03 0. -1.
         11   -1    0    0    0    0 -0.00000000000E+00 -0.00000000000E+00 -0.45593999997E+02  0.45594000000E+02  0.51100000000E-03 0.  1.
    9900012    2    1    2    0    0  0.32635262062E+02 -0.31046903421E+02  0.37827806089E+00  0.46142316121E+02  0.99999850428E+01 0.  0.
        -12    1    1    2    0    0 -0.32635262062E+02  0.31046903421E+02 -0.37827806089E+00  0.45045683879E+02  0.00000000000E+00 0.  1.
         11    1    3    3    0    0  0.15051535821E+02 -0.16488040151E+02  0.74152599842E+00  0.22337279594E+02  0.51100000000E-03 0. -1.
        -11    1    3    3    0    0  0.62262360267E+01 -0.16933691631E+01  0.12344549517E+01  0.65694287020E+01  0.51100000000E-03 0.  1.
        -12    1    3    3    0    0  0.11357490214E+02 -0.12865494107E+02 -0.15977028892E+01  0.17235607825E+02  0.00000000000E+00 0.  1.
</event>
<event>
 7    1  0.4452647E-009  0.4614232E+02  0.7816164E-02  0.1320468E+00
        -11   -1    0    0    0    0  0.00000000000E+00  0.00000000000E+00  0.45593999997E+02  0.45594000000E+02  0.51100000000E-03 0. -1.
         11   -1    0    0    0    0 -0.00000000000E+00 -0.00000000000E+00 -0.45593999997E+02  0.45594000000E+02  0.51100000000E-03 0.  1.
    9900012    2    1    2    0    0  0.92356035869E+01 -0.26666551550E+02 -0.35110001771E+02  0.46142316860E+02  0.99999917823E+01 0.  0.
         12    1    1    2    0    0 -0.92356035869E+01  0.26666551550E+02  0.35110001771E+02  0.45045683140E+02  0.00000000000E+00 0. -1.
         11    1    3    3    0    0  0.85513330220E+01 -0.15556565940E+02 -0.21511166919E+02  0.27890183627E+02  0.51100000000E-03 0. -1.
        -11    1    3    3    0    0  0.10400022913E+01 -0.55377638160E+01 -0.32805870773E+01  0.65200218313E+01  0.51100000000E-03 0.  1.
         12    1    3    3    0    0 -0.35573172638E+00 -0.55722217937E+01 -0.10318247775E+02  0.11732111401E+02  0.00000000000E+00 0. -1.
</event>
<event>
 7    1  0.4452647E-009  0.4614232E+02  0.7816164E-02  0.1320468E+00
        -11   -1    0    0    0    0  0.00000000000E+00  0.00000000000E+00  0.45593999997E+02  0.45594000000E+02  0.51100000000E-03 0. -1.
         11   -1    0    0    0    0 -0.00000000000E+00 -0.00000000000E+00 -0.45593999997E+02  0.45594000000E+02  0.51100000000E-03 0.  1.
    9900012    2    1    2    0    0  0.12880201019E+01 -0.39813288412E+02 -0.21032275692E+02  0.46142317069E+02  0.99999936875E+01 0.  0.
         12    1    1    2    0    0 -0.12880201019E+01  0.39813288412E+02  0.21032275692E+02  0.45045682931E+02  0.00000000000E+00 0. -1.
         11    1    3    3    0    0 -0.33646482982E+01 -0.16186297118E+02 -0.86751757341E+01  0.18670183364E+02  0.51100000000E-03 0. -1.
        -11    1    3    3    0    0  0.27959410084E+01 -0.56285969673E+01 -0.45856078891E+01  0.77798579625E+01  0.51100000000E-03 0.  1.
         12    1    3    3    0    0  0.18567273917E+01 -0.17998394327E+02 -0.77714920688E+01  0.19692275743E+02  0.00000000000E+00 0. -1.
</event>
<event>
 7    1  0.4452647E-009  0.4614232E+02  0.7816164E-02  0.1320468E+00
        -11   -1    0    0    0    0  0.00000000000E+00  0.00000000000E+00  0.45593999997E+02  0.45594000000E+02  0.51100000000E-03 0. -1.
         11   -1    0    0    0    0 -0.00000000000E+00 -0.00000000000E+00 -0.45593999997E+02  0.45594000000E+02  0.51100000000E-03 0.  1.
    9900012    2    1    2    0    0  0.31144583541E+02 -0.31196947377E+02  0.92670835928E+01  0.46142318210E+02  0.10000004093E+02 0.  0.
        -12    1    1    2    0    0 -0.31144583541E+02  0.31196947377E+02 -0.92670835928E+01  0.45045681790E+02  0.00000000000E+00 0.  1.
         11    1    3    3    0    0  0.50583983563E+01 -0.52128594095E+01  0.50488105598E+00  0.72812225825E+01  0.51100000000E-03 0. -1.
        -11    1    3    3    0    0  0.26551644902E+02 -0.24387378547E+02  0.76335463461E+01  0.36851120871E+02  0.51100000000E-03 0.  1.
        -12    1    3    3    0    0 -0.46545971735E+00 -0.15967094208E+01  0.11286561908E+01  0.20099747560E+01  0.00000000000E+00 0.  1.
</event>
<event>
 7    1  0.4452647E-009  0.4614231E+02  0.7816164E-02  0.1320468E+00
        -11   -1    0    0    0    0  0.00000000000E+00  0.00000000000E+00  0.45593999997E+02  0.45594000000E+02  0.51100000000E-03 0. -1.
         11   -1    0    0    0    0 -0.00000000000E+00 -0.00000000000E+00 -0.45593999997E+02  0.45594000000E+02  0.51100000000E-03 0.  1.
    9900012    2    1    2    0    0 -0.17025027732E+02  0.30181539779E+02 -0.28780842795E+02  0.46142314028E+02  0.99999659585E+01 0.  0.
         12    1    1    2    0    0  0.17025027732E+02 -0.30181539779E+02  0.28780842795E+02  0.45045685972E+02  0.00000000000E+00 0. -1.
         11    1    3    3    0    0 -0.12224042005E+02  0.14203610853E+02 -0.16007387826E+02  0.24645612784E+02  0.51100000000E-03 0. -1.
        -11    1    3    3    0    0 -0.25304993190E+01  0.12177649603E+02 -0.71731099984E+01  0.14357997213E+02  0.51100000000E-03 0.  1.
        -12    1    3    3    0    0 -0.22704864083E+01  0.38002793225E+01 -0.56003449699E+01  0.71387040309E+01  0.00000000000E+00 0.  1.
</event>
<event>
 7    1  0.4452647E-009  0.4614232E+02  0.7816164E-02  0.1320468E+00
        -11   -1    0    0    0    0  0.00000000000E+00  0.00000000000E+00  0.45593999997E+02  0.45594000000E+02  0.51100000000E-03 0.  1.
         11   -1    0    0    0    0 -0.00000000000E+00 -0.00000000000E+00 -0.45593999997E+02  0.45594000000E+02  0.51100000000E-03 0. -1.
    9900012    2    1    2    0    0 -0.11980153346E+02 -0.38823111334E+02 -0.19451362116E+02  0.46142317232E+02  0.99999951775E+01 0.  0.
         12    1    1    2    0    0  0.11980153346E+02  0.38823111334E+02  0.19451362116E+02  0.45045682768E+02  0.00000000000E+00 0. -1.
         11    1    3    3    0    0  0.57965610876E+00 -0.84799539868E+00 -0.14212143939E+01  0.17535529690E+01  0.51100000000E-03 0. -1.
        -11    1    3    3    0    0 -0.11376901058E+02 -0.24551380970E+02 -0.12794678287E+02  0.29931721934E+02  0.51100000000E-03 0.  1.
        -12    1    3    3    0    0 -0.11829083964E+01 -0.13423734965E+02 -0.52354694350E+01  0.14457042329E+02  0.00000000000E+00 0.  1.
</event>
<event>
 7    1  0.4452647E-009  0.4614232E+02  0.7816164E-02  0.1320468E+00
        -11   -1    0    0    0    0  0.00000000000E+00  0.00000000000E+00  0.45593999997E+02  0.45594000000E+02  0.51100000000E-03 0. -1.
         11   -1    0    0    0    0 -0.00000000000E+00 -0.00000000000E+00 -0.45593999997E+02  0.45594000000E+02  0.51100000000E-03 0.  1.
    9900012    2    1    2    0    0 -0.23182510618E+02  0.35306874742E+01 -0.38460615037E+02  0.46142318058E+02  0.10000002706E+02 0.  0.
         12    1    1    2    0    0  0.23182510618E+02 -0.35306874742E+01  0.38460615037E+02  0.45045681942E+02  0.00000000000E+00 0. -1.
         11    1    3    3    0    0  0.42944878312E+00 -0.71581298816E+00 -0.51332712083E+00  0.97995892028E+00  0.51100000000E-03 0. -1.
        -11    1    3    3    0    0 -0.13222834443E+02  0.47773534905E+01 -0.22823118135E+02  0.26805991471E+02  0.51100000000E-03 0.  1.
        -12    1    3    3    0    0 -0.10389124958E+02 -0.53085302814E+00 -0.15124169781E+02  0.18356367666E+02  0.00000000000E+00 0.  1.
</event>
<event>
 7    1  0.4452647E-009  0.4614231E+02  0.7816164E-02  0.1320468E+00
        -11   -1    0    0    0    0  0.00000000000E+00  0.00000000000E+00  0.45593999997E+02  0.45594000000E+02  0.51100000000E-03 0.  1.
         11   -1    0    0    0    0 -0.00000000000E+00 -0.00000000000E+00 -0.45593999997E+02  0.45594000000E+02  0.51100000000E-03 0. -1.
    9900012    2    1    2    0    0 -0.33870301468E+02 -0.22690373865E+02  0.19158904020E+02  0.46142312183E+02  0.99999491332E+01 0.  0.
        -12    1    1    2    0    0  0.33870301468E+02  0.22690373865E+02 -0.19158904020E+02  0.45045687817E+02  0.00000000000E+00 0.  1.
         11    1    3    3    0    0 -0.14381245838E+02 -0.12676833646E+02  0.47809155686E+01  0.19758023613E+02  0.51100000000E-03 0. -1.
        -11    1    3    3    0    0 -0.36260559026E+01 -0.18531630485E+01  0.41822955720E+01  0.58373017059E+01  0.51100000000E-03 0.  1.
        -12    1    3    3    0    0 -0.15862999727E+02 -0.81603771710E+01  0.10195692880E+02  0.20546986864E+02  0.00000000000E+00 0.  1.
</event>
<event>
 7    1  0.4452647E-009  0.4614232E+02  0.7816164E-02  0.1320468E+00
        -11   -1    0    0    0    0  0.00000000000E+00  0.00000000000E+00  0.45593999997E+02  0.45594000000E+02  0.51100000000E-03 0. -1.
         11   -1    0    0    0    0 -0.00000000000E+00 -0.00000000000E+00 -0.45593999997E+02  0.45594000000E+02  0.51100000000E-03 0.  1.
    9900012    2    1    2    0    0 -0.13297289939E+02 -0.25023544659E+02 -0.35015964596E+02  0.46142317814E+02  0.10000000485E+02 0.  0.
         12    1    1    2    0    0  0.13297289939E+02  0.25023544659E+02  0.35015964596E+02  0.45045682186E+02  0.00000000000E+00 0. -1.
         11    1    3    3    0    0 -0.20301517677E+01 -0.50680772859E+01 -0.44085522199E+01  0.70172827015E+01  0.51100000000E-03 0. -1.
        -11    1    3    3    0    0 -0.12195170534E+02 -0.15219278573E+02 -0.23582654948E+02  0.30602128019E+02  0.51100000000E-03 0.  1.
         12    1    3    3    0    0  0.92803236234E+00 -0.47361888003E+01 -0.70247574275E+01  0.85229070940E+01  0.00000000000E+00 0. -1.
</event>
<event>
 7    1  0.4452647E-009  0.4614232E+02  0.7816164E-02  0.1320468E+00
        -11   -1    0    0    0    0  0.00000000000E+00  0.00000000000E+00  0.45593999997E+02  0.45594000000E+02  0.51100000000E-03 0. -1.
         11   -1    0    0    0    0 -0.00000000000E+00 -0.00000000000E+00 -0.45593999997E+02  0.45594000000E+02  0.51100000000E-03 0.  1.
    9900012    2    1    2    0    0 -0.12420446114E+02 -0.37166925386E+02 -0.22214085519E+02  0.46142318523E+02  0.10000006945E+02 0.  0.
         12    1    1    2    0    0  0.12420446114E+02  0.37166925386E+02  0.22214085519E+02  0.45045681477E+02  0.00000000000E+00 0. -1.
         11    1    3    3    0    0  0.22675363517E+00  0.15841710724E+00 -0.66578327767E+00  0.72095826847E+00  0.51100000000E-03 0. -1.
        -11    1    3    3    0    0 -0.10450469090E+02 -0.20449899931E+02 -0.12563714899E+02  0.26177426224E+02  0.51100000000E-03 0.  1.
        -12    1    3    3    0    0 -0.21967306594E+01 -0.16875442562E+02 -0.89845873430E+01  0.19243934031E+02  0.00000000000E+00 0.  1.
</event>
<event>
 7    1  0.4452647E-009  0.4614232E+02  0.7816164E-02  0.1320468E+00
        -11   -1    0    0    0    0  0.00000000000E+00  0.00000000000E+00  0.45593999997E+02  0.45594000000E+02  0.51100000000E-03 0. -1.
         11   -1    0    0    0    0 -0.00000000000E+00 -0.00000000000E+00 -0.45593999997E+02  0.45594000000E+02  0.51100000000E-03 0.  1.
    9900012    2    1    2    0    0 -0.31248510598E+02 -0.25108724368E+02  0.20547411651E+02  0.46142316750E+02  0.99999907777E+01 0.  0.
        -12    1    1    2    0    0  0.31248510598E+02  0.25108724368E+02 -0.20547411651E+02  0.45045683250E+02  0.00000000000E+00 0.  1.
         11    1    3    3    0    0 -0.27953025873E+02 -0.18102694380E+02  0.16344287037E+02  0.37097370773E+02  0.51100000000E-03 0. -1.
        -11    1    3    3    0    0 -0.30678059984E+01 -0.47438550334E+01  0.35774125301E+01  0.66868135082E+01  0.51100000000E-03 0.  1.
         12    1    3    3    0    0 -0.22767872589E+00 -0.22621749544E+01  0.62571208403E+00  0.23581324685E+01  0.00000000000E+00 0. -1.
</event>
<event>
 7    1  0.4452647E-009  0.4614232E+02  0.7816164E-02  0.1320468E+00
        -11   -1    0    0    0    0  0.00000000000E+00  0.00000000000E+00  0.45593999997E+02  0.45594000000E+02  0.51100000000E-03 0. -1.
         11   -1    0    0    0    0 -0.00000000000E+00 -0.00000000000E+00 -0.45593999997E+02  0.45594000000E+02  0.51100000000E-03 0.  1.
    9900012    2    1    2    0    0  0.10760213082E+02 -0.31331984471E+01 -0.43629284447E+02  0.46142316750E+02  0.99999907844E+01 0.  0.
         12    1    1    2    0    0 -0.10760213082E+02  0.31331984471E+01  0.43629284447E+02  0.45045683250E+02  0.00000000000E+00 0. -1.
         11    1    3    3    0    0  0.14169931433E+01 -0.61682270133E+00 -0.77824652624E+00  0.17303201234E+01  0.51100000000E-03 0. -1.
        -11    1    3    3    0    0  0.11994177139E+01 -0.19223054707E+01 -0.31518093723E+01  0.38817217514E+01  0.51100000000E-03 0.  1.
        -12    1    3    3    0    0  0.81438022244E+01 -0.59407027509E+00 -0.39699228548E+02  0.40530274876E+02  0.00000000000E+00 0.  1.
</event>
<event>
 7    1  0.4452647E-009  0.4614232E+02  0.7816164E-02  0.1320468E+00
        -11   -1    0    0    0    0  0.00000000000E+00  0.00000000000E+00  0.45593999997E+02  0.45594000000E+02  0.51100000000E-03 0. -1.
         11   -1    0    0    0    0 -0.00000000000E+00 -0.00000000000E+00 -0.45593999997E+02  0.45594000000E+02  0.51100000000E-03 0.  1.
    9900012    2    1    2    0    0  0.43529455801E+02  0.11331516934E+02 -0.24283184913E+01  0.46142317309E+02  0.99999958809E+01 0.  0.
        -12    1    1    2    0    0 -0.43529455801E+02 -0.11331516934E+02  0.24283184913E+01  0.45045682691E+02  0.00000000000E+00 0.  1.
         11    1    3    3    0    0  0.22511779753E+02  0.10213344054E+02 -0.33534558936E+01  0.24946709023E+02  0.51100000000E-03 0. -1.
        -11    1    3    3    0    0  0.46765268439E+01  0.63920227892E+00 -0.68037468061E+00  0.47687936464E+01  0.51100000000E-03 0.  1.
         12    1    3    3    0    0  0.16341149205E+02  0.47897060113E+00  0.16055120829E+01  0.16426814640E+02  0.00000000000E+00 0. -1.
</event>
<event>
 7    1  0.4452647E-009  0.4614232E+02  0.7816164E-02  0.1320468E+00
        -11   -1    0    0    0    0  0.00000000000E+00  0.00000000000E+00  0.45593999997E+02  0.45594000000E+02  0.51100000000E-03 0. -1.
         11   -1    0    0    0    0 -0.00000000000E+00 -0.00000000000E+00 -0.45593999997E+02  0.45594000000E+02  0.51100000000E-03 0.  1.
    9900012    2    1    2    0    0  0.18148073718E+02 -0.57935676938E+01  0.40819060674E+02  0.46142315183E+02  0.99999764921E+01 0.  0.
        -12    1    1    2    0    0 -0.18148073718E+02  0.57935676938E+01 -0.40819060674E+02  0.45045684817E+02  0.00000000000E+00 0.  1.
         11    1    3    3    0    0  0.28771936855E+01 -0.17035355529E+01  0.16885464557E+02  0.17213343384E+02  0.51100000000E-03 0. -1.
        -11    1    3    3    0    0  0.14497629258E+02 -0.42802317602E+01  0.23679589873E+02  0.28093141775E+02  0.51100000000E-03 0.  1.
        -12    1    3    3    0    0  0.77325077528E+00  0.19019961930E+00  0.25400624424E+00  0.83583002385E+00  0.00000000000E+00 0.  1.
</event>
<event>
 7    1  0.4452647E-009  0.4614232E+02  0.7816164E-02  0.1320468E+00
        -11   -1    0    0    0    0  0.00000000000E+00  0.00000000000E+00  0.45593999997E+02  0.45594000000E+02  0.51100000000E-03 0. -1.
         11   -1    0    0    0    0 -0.00000000000E+00 -0.00000000000E+00 -0.45593999997E+02  0.45594000000E+02  0.51100000000E-03 0.  1.
    9900012    2    1    2    0    0 -0.99539755871E+01 -0.14712468000E+02 -0.41395350361E+02  0.46142319007E+02  0.10000011363E+02 0.  0.
         12    1    1    2    0    0  0.99539755871E+01  0.14712468000E+02  0.41395350361E+02  0.45045680993E+02  0.00000000000E+00 0. -1.
         11    1    3    3    0    0  0.55261558977E-01 -0.86166617102E+01 -0.17209256140E+02  0.19245997246E+02  0.51100000000E-03 0. -1.
        -11    1    3    3    0    0 -0.74964425149E+01 -0.49830512259E+01 -0.19115628573E+02  0.21129001536E+02  0.51100000000E-03 0.  1.
         12    1    3    3    0    0 -0.25127946312E+01 -0.11127550636E+01 -0.50704656476E+01  0.57673202247E+01  0.00000000000E+00 0. -1.
</event>
<event>
 7    1  0.4452647E-009  0.4614232E+02  0.7816164E-02  0.1320468E+00
        -11   -1    0    0    0    0  0.00000000000E+00  0.00000000000E+00  0.45593999997E+02  0.45594000000E+02  0.51100000000E-03 0. -1.
         11   -1    0    0    0    0 -0.00000000000E+00 -0.00000000000E+00 -0.45593999997E+02  0.45594000000E+02  0.51100000000E-03 0.  1.
    9900012    2    1    2    0    0  0.14335799626E+02  0.58981376815E+01 -0.42294329999E+02  0.46142317310E+02  0.99999958820E+01 0.  0.
         12    1    1    2    0    0 -0.14335799626E+02 -0.58981376815E+01  0.42294329999E+02  0.45045682690E+02  0.00000000000E+00 0. -1.
         11    1    3    3    0    0 -0.29542322191E+00  0.12878606025E-01  0.40350453076E+00  0.50025684004E+00  0.51100000000E-03 0. -1.
        -11    1    3    3    0    0  0.55779890169E+01  0.28477507809E+01 -0.21479884108E+02  0.22374294795E+02  0.51100000000E-03 0.  1.
         12    1    3    3    0    0  0.90532338309E+01  0.30375082945E+01 -0.21217950421E+02  0.23267765675E+02  0.00000000000E+00 0. -1.
</event>
<event>
 7    1  0.4452647E-009  0.4614232E+02  0.7816164E-02  0.1320468E+00
        -11   -1    0    0    0    0  0.00000000000E+00  0.00000000000E+00  0.45593999997E+02  0.45594000000E+02  0.51100000000E-03 0. -1.
         11   -1    0    0    0    0 -0.00000000000E+00 -0.00000000000E+00 -0.45593999997E+02  0.45594000000E+02  0.51100000000E-03 0.  1.
    9900012    2    1    2    0    0 -0.10569471254E+00 -0.16210438359E+02 -0.42027658110E+02  0.46142317306E+02  0.99999958495E+01 0.  0.
         12    1    1    2    0    0  0.10569471254E+00  0.16210438359E+02  0.42027658110E+02  0.45045682694E+02  0.00000000000E+00 0. -1.
         11    1    3    3    0    0  0.46275678439E+01 -0.83944565853E+01 -0.19594142362E+02  0.21813108460E+02  0.51100000000E-03 0. -1.
        -11    1    3    3    0    0 -0.41112927061E+01 -0.67261515399E+01 -0.16799262653E+02  0.18556914296E+02  0.51100000000E-03 0.  1.
         12    1    3    3    0    0 -0.62196985037E+00 -0.10898302337E+01 -0.56342530949E+01  0.57722945498E+01  0.00000000000E+00 0. -1.
</event>
<event>
 7    1  0.4452647E-009  0.4614232E+02  0.7816164E-02  0.1320468E+00
        -11   -1    0    0    0    0  0.00000000000E+00  0.00000000000E+00  0.45593999997E+02  0.45594000000E+02  0.51100000000E-03 0. -1.
         11   -1    0    0    0    0 -0.00000000000E+00 -0.00000000000E+00 -0.45593999997E+02  0.45594000000E+02  0.51100000000E-03 0.  1.
    9900012    2    1    2    0    0 -0.39273228165E+02 -0.77626555694E+00 -0.22048227437E+02  0.46142319054E+02  0.10000011793E+02 0.  0.
         12    1    1    2    0    0  0.39273228165E+02  0.77626555694E+00  0.22048227437E+02  0.45045680946E+02  0.00000000000E+00 0. -1.
         11    1    3    3    0    0 -0.17656588545E+02 -0.11380190714E+01 -0.13377205122E+02  0.22181069036E+02  0.51100000000E-03 0. -1.
        -11    1    3    3    0    0 -0.13198589164E+02  0.29582175284E+01 -0.50991878117E+01  0.14455293960E+02  0.51100000000E-03 0.  1.
        -12    1    3    3    0    0 -0.84180504561E+01 -0.25964640140E+01 -0.35718345033E+01  0.95059560580E+01  0.00000000000E+00 0.  1.
</event>
<event>
 7    1  0.4452647E-009  0.4614232E+02  0.7816164E-02  0.1320468E+00
        -11   -1    0    0    0    0  0.00000000000E+00  0.00000000000E+00  0.45593999997E+02  0.45594000000E+02  0.51100000000E-03 0. -1.
         11   -1    0    0    0    0 -0.00000000000E+00 -0.00000000000E+00 -0.45593999997E+02  0.45594000000E+02  0.51100000000E-03 0.  1.
    9900012    2    1    2    0    0 -0.24645472323E+02  0.24151494558E+02  0.28955474934E+02  0.46142317365E+02  0.99999963890E+01 0.  0.
        -12    1    1    2    0    0  0.24645472323E+02 -0.24151494558E+02 -0.28955474934E+02  0.45045682635E+02  0.00000000000E+00 0.  1.
         11    1    3    3    0    0 -0.99938117337E+01  0.60867859686E+01  0.82419313700E+01  0.14312744998E+02  0.51100000000E-03 0. -1.
        -11    1    3    3    0    0 -0.72264464976E+01  0.54764812230E+01  0.49380826965E+01  0.10324632514E+02  0.51100000000E-03 0.  1.
        -12    1    3    3    0    0 -0.74252140915E+01  0.12588227367E+02  0.15775460867E+02  0.21504939854E+02  0.00000000000E+00 0.  1.
</event>
<event>
 7    1  0.4452647E-009  0.4614232E+02  0.7816164E-02  0.1320468E+00
        -11   -1    0    0    0    0  0.00000000000E+00  0.00000000000E+00  0.45593999997E+02  0.45594000000E+02  0.51100000000E-03 0. -1.
         11   -1    0    0    0    0 -0.00000000000E+00 -0.00000000000E+00 -0.45593999997E+02  0.45594000000E+02  0.51100000000E-03 0.  1.
    9900012    2    1    2    0    0  0.18450494500E+02  0.40502207506E+02  0.69472260073E+01  0.46142317528E+02  0.99999978781E+01 0.  0.
        -12    1    1    2    0    0 -0.18450494500E+02 -0.40502207506E+02 -0.69472260073E+01  0.45045682472E+02  0.00000000000E+00 0.  1.
         11    1    3    3    0    0  0.21751040197E+01  0.18053899250E+01  0.20919234582E+01  0.35166254128E+01  0.51100000000E-03 0.  1.
        -11    1    3    3    0    0  0.13285880085E+02  0.31905640920E+02  0.61189458382E+01  0.35098803834E+02  0.51100000000E-03 0. -1.
        -12    1    3    3    0    0  0.29895103952E+01  0.67911766604E+01 -0.12636432891E+01  0.75268882812E+01  0.00000000000E+00 0.  1.
</event>
<event>
 7    1  0.4452647E-009  0.4614232E+02  0.7816164E-02  0.1320468E+00
        -11   -1    0    0    0    0  0.00000000000E+00  0.00000000000E+00  0.45593999997E+02  0.45594000000E+02  0.51100000000E-03 0. -1.
         11   -1    0    0    0    0 -0.00000000000E+00 -0.00000000000E+00 -0.45593999997E+02  0.45594000000E+02  0.51100000000E-03 0.  1.
    9900012    2    1    2    0    0  0.16182475449E+02 -0.41391658289E+02 -0.73465425127E+01  0.46142316806E+02  0.99999912863E+01 0.  0.
         12    1    1    2    0    0 -0.16182475449E+02  0.41391658289E+02  0.73465425127E+01  0.45045683194E+02  0.00000000000E+00 0. -1.
         11    1    3    3    0    0  0.75445803300E+00 -0.67761043142E+00 -0.16867524488E+01  0.19681201450E+01  0.51100000000E-03 0. -1.
        -11    1    3    3    0    0  0.83819941251E+01 -0.25357264261E+02 -0.13688530924E+01  0.26741773228E+02  0.51100000000E-03 0.  1.
         12    1    3    3    0    0  0.70460232909E+01 -0.15356783596E+02 -0.42909369715E+01  0.17432423432E+02  0.00000000000E+00 0. -1.
</event>
<event>
 7    1  0.4452647E-009  0.4614232E+02  0.7816164E-02  0.1320468E+00
        -11   -1    0    0    0    0  0.00000000000E+00  0.00000000000E+00  0.45593999997E+02  0.45594000000E+02  0.51100000000E-03 0. -1.
         11   -1    0    0    0    0 -0.00000000000E+00 -0.00000000000E+00 -0.45593999997E+02  0.45594000000E+02  0.51100000000E-03 0.  1.
    9900012    2    1    2    0    0 -0.13128634473E+02 -0.35240533527E+02 -0.24796314530E+02  0.46142318068E+02  0.10000002801E+02 0.  0.
         12    1    1    2    0    0  0.13128634473E+02  0.35240533527E+02  0.24796314530E+02  0.45045681932E+02  0.00000000000E+00 0. -1.
         11    1    3    3    0    0 -0.52623225547E+01 -0.82901787686E+01 -0.34089763631E+01  0.10394239885E+02  0.51100000000E-03 0. -1.
        -11    1    3    3    0    0 -0.17127207278E+01 -0.13620865815E+02 -0.12624409798E+02  0.18650391976E+02  0.51100000000E-03 0.  1.
        -12    1    3    3    0    0 -0.61535911903E+01 -0.13329488944E+02 -0.87629283685E+01  0.17097686207E+02  0.00000000000E+00 0.  1.
</event>
<event>
 7    1  0.4452647E-009  0.4614232E+02  0.7816164E-02  0.1320468E+00
        -11   -1    0    0    0    0  0.00000000000E+00  0.00000000000E+00  0.45593999997E+02  0.45594000000E+02  0.51100000000E-03 0.  1.
         11   -1    0    0    0    0 -0.00000000000E+00 -0.00000000000E+00 -0.45593999997E+02  0.45594000000E+02  0.51100000000E-03 0. -1.
    9900012    2    1    2    0    0 -0.29770002238E+02 -0.28617395535E+02 -0.17997362155E+02  0.46142318687E+02  0.10000008439E+02 0.  0.
        -12    1    1    2    0    0  0.29770002238E+02  0.28617395535E+02  0.17997362155E+02  0.45045681313E+02  0.00000000000E+00 0.  1.
         11    1    3    3    0    0 -0.14729717747E+02 -0.15539074409E+02 -0.11238570103E+02  0.24181250519E+02  0.51100000000E-03 0. -1.
        -11    1    3    3    0    0 -0.40789613132E+01 -0.34475488992E+00 -0.13382683078E+01  0.43067091443E+01  0.51100000000E-03 0.  1.
        -12    1    3    3    0    0 -0.10961323177E+02 -0.12733566236E+02 -0.54205237440E+01  0.17654359024E+02  0.00000000000E+00 0.  1.
</event>
<event>
 7    1  0.4452647E-009  0.4614232E+02  0.7816164E-02  0.1320468E+00
        -11   -1    0    0    0    0  0.00000000000E+00  0.00000000000E+00  0.45593999997E+02  0.45594000000E+02  0.51100000000E-03 0. -1.
         11   -1    0    0    0    0 -0.00000000000E+00 -0.00000000000E+00 -0.45593999997E+02  0.45594000000E+02  0.51100000000E-03 0.  1.
    9900012    2    1    2    0    0 -0.13398155070E+02  0.30367202688E-02  0.43007009049E+02  0.46142318789E+02  0.10000009369E+02 0.  0.
        -12    1    1    2    0    0  0.13398155070E+02 -0.30367202688E-02 -0.43007009049E+02  0.45045681211E+02  0.00000000000E+00 0.  1.
         11    1    3    3    0    0 -0.96901758282E+01  0.39385077349E+01  0.26125388653E+02  0.28141557940E+02  0.51100000000E-03 0. -1.
        -11    1    3    3    0    0 -0.79288832558E+00  0.49245094401E+00  0.29729520947E+01  0.31160269973E+01  0.51100000000E-03 0.  1.
        -12    1    3    3    0    0 -0.29150909160E+01 -0.44279219587E+01  0.13908668301E+02  0.14884733851E+02  0.00000000000E+00 0.  1.
</event>
<event>
 7    1  0.4452647E-009  0.4614232E+02  0.7816164E-02  0.1320468E+00
        -11   -1    0    0    0    0  0.00000000000E+00  0.00000000000E+00  0.45593999997E+02  0.45594000000E+02  0.51100000000E-03 0.  1.
         11   -1    0    0    0    0 -0.00000000000E+00 -0.00000000000E+00 -0.45593999997E+02  0.45594000000E+02  0.51100000000E-03 0. -1.
    9900012    2    1    2    0    0  0.41885216225E+02  0.85845301609E+01  0.14179133887E+02  0.46142319474E+02  0.10000015620E+02 0.  0.
         12    1    1    2    0    0 -0.41885216225E+02 -0.85845301609E+01 -0.14179133887E+02  0.45045680526E+02  0.00000000000E+00 0. -1.
         11    1    3    3    0    0  0.59691866669E+01  0.86422142989E+00  0.12045544473E+01  0.61505300440E+01  0.51100000000E-03 0. -1.
        -11    1    3    3    0    0  0.16189865825E+02  0.57194675488E+01  0.10199029224E+02  0.19971085645E+02  0.51100000000E-03 0.  1.
        -12    1    3    3    0    0  0.19726163733E+02  0.20008411822E+01  0.27755502158E+01  0.20020703785E+02  0.00000000000E+00 0.  1.
</event>
<event>
 7    1  0.4452647E-009  0.4614231E+02  0.7816164E-02  0.1320468E+00
        -11   -1    0    0    0    0  0.00000000000E+00  0.00000000000E+00  0.45593999997E+02  0.45594000000E+02  0.51100000000E-03 0.  1.
         11   -1    0    0    0    0 -0.00000000000E+00 -0.00000000000E+00 -0.45593999997E+02  0.45594000000E+02  0.51100000000E-03 0. -1.
    9900012    2    1    2    0    0  0.27149855130E+02  0.35029007335E+02  0.80602821791E+01  0.46142310558E+02  0.99999343189E+01 0.  0.
         12    1    1    2    0    0 -0.27149855130E+02 -0.35029007335E+02 -0.80602821791E+01  0.45045689442E+02  0.00000000000E+00 0. -1.
         11    1    3    3    0    0  0.13582259822E+02  0.22146631742E+02  0.13178128833E+01  0.26013221839E+02  0.51100000000E-03 0. -1.
        -11    1    3    3    0    0  0.11129584846E+02  0.10159337035E+02  0.40939354521E+01  0.15615380097E+02  0.51100000000E-03 0.  1.
        -12    1    3    3    0    0  0.24380104622E+01  0.27230385577E+01  0.26485338437E+01  0.45137086217E+01  0.00000000000E+00 0.  1.
</event>
<event>
 7    1  0.4452647E-009  0.4614232E+02  0.7816164E-02  0.1320468E+00
        -11   -1    0    0    0    0  0.00000000000E+00  0.00000000000E+00  0.45593999997E+02  0.45594000000E+02  0.51100000000E-03 0. -1.
         11   -1    0    0    0    0 -0.00000000000E+00 -0.00000000000E+00 -0.45593999997E+02  0.45594000000E+02  0.51100000000E-03 0.  1.
    9900012    2    1    2    0    0 -0.34639963169E+01  0.28690694422E+02  0.34553701137E+02  0.46142317864E+02  0.10000000934E+02 0.  0.
        -12    1    1    2    0    0  0.34639963169E+01 -0.28690694422E+02 -0.34553701137E+02  0.45045682136E+02  0.00000000000E+00 0.  1.
         11    1    3    3    0    0 -0.43613286982E+01  0.81184873613E+01  0.11133944062E+02  0.14453225788E+02  0.51100000000E-03 0. -1.
        -11    1    3    3    0    0  0.24707251365E+01  0.47659560757E+01  0.72648243810E+01  0.90330777459E+01  0.51100000000E-03 0.  1.
         12    1    3    3    0    0 -0.15733927552E+01  0.15806250985E+02  0.16154932694E+02  0.22656014330E+02  0.00000000000E+00 0. -1.
</event>
<event>
 7    1  0.4452647E-009  0.4614232E+02  0.7816164E-02  0.1320468E+00
        -11   -1    0    0    0    0  0.00000000000E+00  0.00000000000E+00  0.45593999997E+02  0.45594000000E+02  0.51100000000E-03 0.  1.
         11   -1    0    0    0    0 -0.00000000000E+00 -0.00000000000E+00 -0.45593999997E+02  0.45594000000E+02  0.51100000000E-03 0. -1.
    9900012    2    1    2    0    0  0.26120192261E+02  0.36488661729E+02  0.39276621957E+01  0.46142318644E+02  0.10000008049E+02 0.  0.
        -12    1    1    2    0    0 -0.26120192261E+02 -0.36488661729E+02 -0.39276621957E+01  0.45045681356E+02  0.00000000000E+00 0.  1.
         11    1    3    3    0    0  0.24088839127E+02  0.33843162594E+02  0.40931639871E+01  0.41741895220E+02  0.51100000000E-03 0. -1.
        -11    1    3    3    0    0  0.50719830808E+00  0.78440716529E+00 -0.14105171846E+01  0.16917753143E+01  0.51100000000E-03 0.  1.
         12    1    3    3    0    0  0.15241548257E+01  0.18610919697E+01  0.12450153932E+01  0.27086481096E+01  0.00000000000E+00 0. -1.
</event>
<event>
 7    1  0.4452647E-009  0.4614232E+02  0.7816164E-02  0.1320468E+00
        -11   -1    0    0    0    0  0.00000000000E+00  0.00000000000E+00  0.45593999997E+02  0.45594000000E+02  0.51100000000E-03 0. -1.
         11   -1    0    0    0    0 -0.00000000000E+00 -0.00000000000E+00 -0.45593999997E+02  0.45594000000E+02  0.51100000000E-03 0.  1.
    9900012    2    1    2    0    0  0.62483862958E+01  0.35752391194E+02 -0.26680285241E+02  0.46142318432E+02  0.10000006115E+02 0.  0.
         12    1    1    2    0    0 -0.62483862958E+01 -0.35752391194E+02  0.26680285241E+02  0.45045681568E+02  0.00000000000E+00 0. -1.
         11    1    3    3    0    0  0.25465229350E+01  0.15332451412E+02 -0.57357394000E+01  0.16567062264E+02  0.51100000000E-03 0. -1.
        -11    1    3    3    0    0  0.35968187810E+01  0.14784718108E+02 -0.14577902091E+02  0.21072261970E+02  0.51100000000E-03 0.  1.
         12    1    3    3    0    0  0.10504457978E+00  0.56352216746E+01 -0.63666437499E+01  0.85029941976E+01  0.00000000000E+00 0. -1.
</event>
<event>
 7    1  0.4452647E-009  0.4614232E+02  0.7816164E-02  0.1320468E+00
        -11   -1    0    0    0    0  0.00000000000E+00  0.00000000000E+00  0.45593999997E+02  0.45594000000E+02  0.51100000000E-03 0.  1.
         11   -1    0    0    0    0 -0.00000000000E+00 -0.00000000000E+00 -0.45593999997E+02  0.45594000000E+02  0.51100000000E-03 0. -1.
    9900012    2    1    2    0    0 -0.36057053620E+01 -0.44751869441E+02  0.36582202007E+01  0.46142317580E+02  0.99999983472E+01 0.  0.
        -12    1    1    2    0    0  0.36057053620E+01  0.44751869441E+02 -0.36582202007E+01  0.45045682420E+02  0.00000000000E+00 0.  1.
         11    1    3    3    0    0 -0.10697454389E+01 -0.13823260163E+02 -0.11663356205E+01  0.13913562300E+02  0.51100000000E-03 0. -1.
        -11    1    3    3    0    0  0.28380060277E-01 -0.27125618767E+02  0.52259032282E+01  0.27624446850E+02  0.51100000000E-03 0.  1.
         12    1    3    3    0    0 -0.25643399834E+01 -0.38029905110E+01 -0.40134740697E+00  0.46043084300E+01  0.00000000000E+00 0. -1.
</event>
<event>
 7    1  0.4452647E-009  0.4614232E+02  0.7816164E-02  0.1320468E+00
        -11   -1    0    0    0    0  0.00000000000E+00  0.00000000000E+00  0.45593999997E+02  0.45594000000E+02  0.51100000000E-03 0. -1.
         11   -1    0    0    0    0 -0.00000000000E+00 -0.00000000000E+00 -0.45593999997E+02  0.45594000000E+02  0.51100000000E-03 0.  1.
    9900012    2    1    2    0    0 -0.16473337881E+02  0.31875607876E+02  0.27233955034E+02  0.46142317130E+02  0.99999942430E+01 0.  0.
        -12    1    1    2    0    0  0.16473337881E+02 -0.31875607876E+02 -0.27233955034E+02  0.45045682870E+02  0.00000000000E+00 0.  1.
         11    1    3    3    0    0 -0.50521384019E+01  0.30717073964E+01  0.47571175459E+01  0.75887849072E+01  0.51100000000E-03 0. -1.
        -11    1    3    3    0    0 -0.11510769844E+02  0.25917246207E+02  0.19567598937E+02  0.34454207316E+02  0.51100000000E-03 0.  1.
         12    1    3    3    0    0  0.89570364456E-01  0.28866542732E+01  0.29092385509E+01  0.40993249065E+01  0.00000000000E+00 0. -1.
</event>
<event>
 7    1  0.4452647E-009  0.4614232E+02  0.7816164E-02  0.1320468E+00
        -11   -1    0    0    0    0  0.00000000000E+00  0.00000000000E+00  0.45593999997E+02  0.45594000000E+02  0.51100000000E-03 0.  1.
         11   -1    0    0    0    0 -0.00000000000E+00 -0.00000000000E+00 -0.45593999997E+02  0.45594000000E+02  0.51100000000E-03 0. -1.
    9900012    2    1    2    0    0  0.41169256480E+02  0.64251411378E+01 -0.17115003383E+02  0.46142318092E+02  0.10000003016E+02 0.  0.
        -12    1    1    2    0    0 -0.41169256480E+02 -0.64251411378E+01  0.17115003383E+02  0.45045681908E+02  0.00000000000E+00 0.  1.
         11    1    3    3    0    0  0.19778475926E+02  0.10612753377E+01 -0.70024733058E+01  0.21008309022E+02  0.51100000000E-03 0. -1.
        -11    1    3    3    0    0  0.16670567728E+02  0.52164171103E+01 -0.49892542215E+01  0.18166218478E+02  0.51100000000E-03 0.  1.
         12    1    3    3    0    0  0.47202128260E+01  0.14744868982E+00 -0.51232758558E+01  0.69677905920E+01  0.00000000000E+00 0. -1.
</event>
<event>
 7    1  0.4452647E-009  0.4614232E+02  0.7816164E-02  0.1320468E+00
        -11   -1    0    0    0    0  0.00000000000E+00  0.00000000000E+00  0.45593999997E+02  0.45594000000E+02  0.51100000000E-03 0. -1.
         11   -1    0    0    0    0 -0.00000000000E+00 -0.00000000000E+00 -0.45593999997E+02  0.45594000000E+02  0.51100000000E-03 0.  1.
    9900012    2    1    2    0    0  0.42994852764E+01  0.43991492463E+02 -0.86819617119E+01  0.46142318277E+02  0.10000004702E+02 0.  0.
         12    1    1    2    0    0 -0.42994852764E+01 -0.43991492463E+02  0.86819617119E+01  0.45045681723E+02  0.00000000000E+00 0. -1.
         11    1    3    3    0    0 -0.40705190436E+00  0.51323208644E+01  0.65900283735E+00  0.51904425350E+01  0.51100000000E-03 0. -1.
        -11    1    3    3    0    0 -0.29247223496E+00  0.24726327819E+02 -0.75465058944E+01  0.25853947066E+02  0.51100000000E-03 0.  1.
        -12    1    3    3    0    0  0.49990094157E+01  0.14132843779E+02 -0.17944586548E+01  0.15097928676E+02  0.00000000000E+00 0.  1.
</event>
<event>
 7    1  0.4452647E-009  0.4614232E+02  0.7816164E-02  0.1320468E+00
        -11   -1    0    0    0    0  0.00000000000E+00  0.00000000000E+00  0.45593999997E+02  0.45594000000E+02  0.51100000000E-03 0. -1.
         11   -1    0    0    0    0 -0.00000000000E+00 -0.00000000000E+00 -0.45593999997E+02  0.45594000000E+02  0.51100000000E-03 0.  1.
    9900012    2    1    2    0    0  0.97588560919E+01  0.22863503280E+02 -0.37565122678E+02  0.46142317674E+02  0.99999992028E+01 0.  0.
         12    1    1    2    0    0 -0.97588560919E+01 -0.22863503280E+02  0.37565122678E+02  0.45045682326E+02  0.00000000000E+00 0. -1.
         11    1    3    3    0    0  0.15910659012E+01  0.18982058690E+01 -0.91554022866E+01  0.94845172526E+01  0.51100000000E-03 0. -1.
        -11    1    3    3    0    0  0.26900278795E+01  0.12719033099E+02 -0.13338602784E+02  0.18626013462E+02  0.51100000000E-03 0.  1.
        -12    1    3    3    0    0  0.54777623112E+01  0.82462643115E+01 -0.15071117607E+02  0.18031786959E+02  0.00000000000E+00 0.  1.
</event>
<event>
 7    1  0.4452647E-009  0.4614232E+02  0.7816164E-02  0.1320468E+00
        -11   -1    0    0    0    0  0.00000000000E+00  0.00000000000E+00  0.45593999997E+02  0.45594000000E+02  0.51100000000E-03 0.  1.
         11   -1    0    0    0    0 -0.00000000000E+00 -0.00000000000E+00 -0.45593999997E+02  0.45594000000E+02  0.51100000000E-03 0. -1.
    9900012    2    1    2    0    0 -0.44897566201E+02  0.28297806220E+01 -0.23052318252E+01  0.46142320930E+02  0.10000028893E+02 0.  0.
         12    1    1    2    0    0  0.44897566201E+02 -0.28297806220E+01  0.23052318252E+01  0.45045679070E+02  0.00000000000E+00 0. -1.
         11    1    3    3    0    0 -0.35215281681E+02  0.11926282337E+00  0.10345856308E+01  0.35230677757E+02  0.51100000000E-03 0. -1.
        -11    1    3    3    0    0 -0.78081867913E+01  0.29949129677E+01 -0.20244104750E+01  0.86043897334E+01  0.51100000000E-03 0.  1.
         12    1    3    3    0    0 -0.18740977283E+01 -0.28439516904E+00 -0.13154069811E+01  0.23072534393E+01  0.00000000000E+00 0. -1.
</event>
<event>
 7    1  0.4452647E-009  0.4614232E+02  0.7816164E-02  0.1320468E+00
        -11   -1    0    0    0    0  0.00000000000E+00  0.00000000000E+00  0.45593999997E+02  0.45594000000E+02  0.51100000000E-03 0. -1.
         11   -1    0    0    0    0 -0.00000000000E+00 -0.00000000000E+00 -0.45593999997E+02  0.45594000000E+02  0.51100000000E-03 0.  1.
    9900012    2    1    2    0    0  0.11361494014E+02 -0.23800118852E+02 -0.36518273316E+02  0.46142317748E+02  0.99999998812E+01 0.  0.
         12    1    1    2    0    0 -0.11361494014E+02  0.23800118852E+02  0.36518273316E+02  0.45045682252E+02  0.00000000000E+00 0. -1.
         11    1    3    3    0    0  0.11033166863E+01  0.14081953407E+00 -0.13082232003E+01  0.17171447389E+01  0.51100000000E-03 0. -1.
        -11    1    3    3    0    0  0.66123341929E+01 -0.12597552285E+02 -0.13254026820E+02  0.19444549732E+02  0.51100000000E-03 0.  1.
        -12    1    3    3    0    0  0.36458431350E+01 -0.11343386100E+02 -0.21956023295E+02  0.24980623277E+02  0.00000000000E+00 0.  1.
</event>
<event>
 7    1  0.4452647E-009  0.4614232E+02  0.7816164E-02  0.1320468E+00
        -11   -1    0    0    0    0  0.00000000000E+00  0.00000000000E+00  0.45593999997E+02  0.45594000000E+02  0.51100000000E-03 0. -1.
         11   -1    0    0    0    0 -0.00000000000E+00 -0.00000000000E+00 -0.45593999997E+02  0.45594000000E+02  0.51100000000E-03 0.  1.
    9900012    2    1    2    0    0  0.22739871778E+02 -0.18005344195E+02  0.34464751281E+02  0.46142320197E+02  0.10000022214E+02 0.  0.
        -12    1    1    2    0    0 -0.22739871778E+02  0.18005344195E+02 -0.34464751281E+02  0.45045679803E+02  0.00000000000E+00 0.  1.
         11    1    3    3    0    0  0.19789713529E+02 -0.12361246498E+02  0.28519471577E+02  0.36848248749E+02  0.51100000000E-03 0. -1.
        -11    1    3    3    0    0  0.63420626584E+00 -0.27237565160E+01  0.44964112170E+01  0.52951658368E+01  0.51100000000E-03 0.  1.
         12    1    3    3    0    0  0.23159519836E+01 -0.29203411804E+01  0.14488684867E+01  0.39989056118E+01  0.00000000000E+00 0. -1.
</event>
<event>
 7    1  0.4452647E-009  0.4614233E+02  0.7816164E-02  0.1320468E+00
        -11   -1    0    0    0    0  0.00000000000E+00  0.00000000000E+00  0.45593999997E+02  0.45594000000E+02  0.51100000000E-03 0. -1.
         11   -1    0    0    0    0 -0.00000000000E+00 -0.00000000000E+00 -0.45593999997E+02  0.45594000000E+02  0.51100000000E-03 0.  1.
    9900012    2    1    2    0    0  0.20862568058E+02 -0.15264675481E+02 -0.36889777430E+02  0.46142326042E+02  0.10000075508E+02 0.  0.
         12    1    1    2    0    0 -0.20862568058E+02  0.15264675481E+02  0.36889777430E+02  0.45045673958E+02  0.00000000000E+00 0. -1.
         11    1    3    3    0    0  0.27722611324E+01  0.11013453962E+01 -0.34269719333E+01  0.45434051504E+01  0.51100000000E-03 0. -1.
        -11    1    3    3    0    0  0.18108590498E+02 -0.15548243422E+02 -0.32669581597E+02  0.40459491907E+02  0.51100000000E-03 0.  1.
        -12    1    3    3    0    0 -0.18283573096E-01 -0.81777745572E+00 -0.79322389968E+00  0.11394289847E+01  0.00000000000E+00 0.  1.
</event>
<event>
 7    1  0.4452647E-009  0.4614232E+02  0.7816164E-02  0.1320468E+00
        -11   -1    0    0    0    0  0.00000000000E+00  0.00000000000E+00  0.45593999997E+02  0.45594000000E+02  0.51100000000E-03 0. -1.
         11   -1    0    0    0    0 -0.00000000000E+00 -0.00000000000E+00 -0.45593999997E+02  0.45594000000E+02  0.51100000000E-03 0.  1.
    9900012    2    1    2    0    0 -0.37328499596E+01  0.44332993704E+02  0.70544370303E+01  0.46142316728E+02  0.99999905796E+01 0.  0.
        -12    1    1    2    0    0  0.37328499596E+01 -0.44332993704E+02 -0.70544370303E+01  0.45045683272E+02  0.00000000000E+00 0.  1.
         11    1    3    3    0    0 -0.21072447949E+01  0.30096106746E+02  0.41547177751E+01  0.30454520222E+02  0.51100000000E-03 0. -1.
        -11    1    3    3    0    0 -0.35037286809E+01  0.85308402594E+01  0.29427590166E+01  0.96804535581E+01  0.51100000000E-03 0.  1.
         12    1    3    3    0    0  0.18781235161E+01  0.57060466991E+01 -0.43039761400E-01  0.60073429480E+01  0.00000000000E+00 0. -1.
</event>
<event>
 7    1  0.4452647E-009  0.4614232E+02  0.7816164E-02  0.1320468E+00
        -11   -1    0    0    0    0  0.00000000000E+00  0.00000000000E+00  0.45593999997E+02  0.45594000000E+02  0.51100000000E-03 0. -1.
         11   -1    0    0    0    0 -0.00000000000E+00 -0.00000000000E+00 -0.45593999997E+02  0.45594000000E+02  0.51100000000E-03 0.  1.
    9900012    2    1    2    0    0 -0.55475489686E+01  0.10204881009E+02  0.43522391916E+02  0.46142317698E+02  0.99999994261E+01 0.  0.
        -12    1    1    2    0    0  0.55475489686E+01 -0.10204881009E+02 -0.43522391916E+02  0.45045682302E+02  0.00000000000E+00 0.  1.
         11    1    3    3    0    0 -0.43460625797E+01  0.43614424090E+01  0.92679288616E+01  0.11126767072E+02  0.51100000000E-03 0. -1.
        -11    1    3    3    0    0  0.14036442002E+01  0.31819707558E+01  0.18773347347E+02  0.19092766321E+02  0.51100000000E-03 0.  1.
         12    1    3    3    0    0 -0.26051305890E+01  0.26614678441E+01  0.15481115708E+02  0.15922784305E+02  0.00000000000E+00 0. -1.
</event>
<event>
 7    1  0.4452647E-009  0.4614232E+02  0.7816164E-02  0.1320468E+00
        -11   -1    0    0    0    0  0.00000000000E+00  0.00000000000E+00  0.45593999997E+02  0.45594000000E+02  0.51100000000E-03 0. -1.
         11   -1    0    0    0    0 -0.00000000000E+00 -0.00000000000E+00 -0.45593999997E+02  0.45594000000E+02  0.51100000000E-03 0.  1.
    9900012    2    1    2    0    0  0.39451735298E+02 -0.93544768996E+01  0.19625695519E+02  0.46142316736E+02  0.99999906530E+01 0.  0.
        -12    1    1    2    0    0 -0.39451735298E+02  0.93544768996E+01 -0.19625695519E+02  0.45045683264E+02  0.00000000000E+00 0.  1.
         11    1    3    3    0    0  0.15478391136E+02 -0.63876407117E+01  0.12408083281E+02  0.20840899141E+02  0.51100000000E-03 0. -1.
        -11    1    3    3    0    0  0.10182314124E+02 -0.77201116440E+00  0.40275178512E+01  0.10977086246E+02  0.51100000000E-03 0.  1.
         12    1    3    3    0    0  0.13791030038E+02 -0.21948250235E+01  0.31900943865E+01  0.14324331349E+02  0.00000000000E+00 0. -1.
</event>
<event>
 7    1  0.4452647E-009  0.4614232E+02  0.7816164E-02  0.1320468E+00
        -11   -1    0    0    0    0  0.00000000000E+00  0.00000000000E+00  0.45593999997E+02  0.45594000000E+02  0.51100000000E-03 0. -1.
         11   -1    0    0    0    0 -0.00000000000E+00 -0.00000000000E+00 -0.45593999997E+02  0.45594000000E+02  0.51100000000E-03 0.  1.
    9900012    2    1    2    0    0  0.24451841707E+02 -0.41891805747E+01  0.37598824683E+02  0.46142318583E+02  0.10000007494E+02 0.  0.
        -12    1    1    2    0    0 -0.24451841707E+02  0.41891805747E+01 -0.37598824683E+02  0.45045681417E+02  0.00000000000E+00 0.  1.
         11    1    3    3    0    0  0.16076457762E+01 -0.28852205562E+01  0.35811299146E+01  0.48717054843E+01  0.51100000000E-03 0. -1.
        -11    1    3    3    0    0  0.21814306186E+02 -0.19920147019E+00  0.31146711582E+02  0.38026586465E+02  0.51100000000E-03 0.  1.
        -12    1    3    3    0    0  0.10298897450E+01 -0.11047585483E+01  0.28709831873E+01  0.32440266335E+01  0.00000000000E+00 0.  1.
</event>
<event>
 7    1  0.4452647E-009  0.4614232E+02  0.7816164E-02  0.1320468E+00
        -11   -1    0    0    0    0  0.00000000000E+00  0.00000000000E+00  0.45593999997E+02  0.45594000000E+02  0.51100000000E-03 0. -1.
         11   -1    0    0    0    0 -0.00000000000E+00 -0.00000000000E+00 -0.45593999997E+02  0.45594000000E+02  0.51100000000E-03 0.  1.
    9900012    2    1    2    0    0 -0.42312505605E+01 -0.44229431148E+02 -0.74140037371E+01  0.46142317495E+02  0.99999975697E+01 0.  0.
         12    1    1    2    0    0  0.42312505605E+01  0.44229431148E+02  0.74140037371E+01  0.45045682505E+02  0.00000000000E+00 0. -1.
         11    1    3    3    0    0 -0.76095624311E+00 -0.79880199881E+01  0.10964677504E+01  0.80987504915E+01  0.51100000000E-03 0. -1.
        -11    1    3    3    0    0 -0.74461644252E+00 -0.32176209477E+02 -0.74306434149E+01  0.33031460334E+02  0.51100000000E-03 0.  1.
        -12    1    3    3    0    0 -0.27256778749E+01 -0.40652016822E+01 -0.10798280727E+01  0.50121066690E+01  0.00000000000E+00 0.  1.
</event>
<event>
 7    1  0.5992098E-009  0.4614232E+02  0.7816164E-02  0.1320468E+00
        -11   -1    0    0    0    0  0.00000000000E+00  0.00000000000E+00  0.45593999997E+02  0.45594000000E+02  0.51100000000E-03 0. -1.
         11   -1    0    0    0    0 -0.00000000000E+00 -0.00000000000E+00 -0.45593999997E+02  0.45594000000E+02  0.51100000000E-03 0.  1.
    9900012    2    1    2    0    0 -0.23669333096E+02  0.14854655569E+02  0.35330092067E+02  0.46142317335E+02  0.99999961184E+01 0.  0.
        -12    1    1    2    0    0  0.23669333096E+02 -0.14854655569E+02 -0.35330092067E+02  0.45045682665E+02  0.00000000000E+00 0.  1.
         11    1    3    3    0    0 -0.16775631089E+02  0.54466524124E+01  0.19178501253E+02  0.26055761964E+02  0.51100000000E-03 0. -1.
        -11    1    3    3    0    0  0.12798841019E-01  0.12563690979E+01  0.16262219978E+01  0.20550487507E+01  0.51100000000E-03 0.  1.
         12    1    3    3    0    0 -0.69065008479E+01  0.81516340587E+01  0.14525368816E+02  0.18031506621E+02  0.00000000000E+00 0. -1.
</event>
<event>
 7    1  0.4452647E-009  0.4614232E+02  0.7816164E-02  0.1320468E+00
        -11   -1    0    0    0    0  0.00000000000E+00  0.00000000000E+00  0.45593999997E+02  0.45594000000E+02  0.51100000000E-03 0. -1.
         11   -1    0    0    0    0 -0.00000000000E+00 -0.00000000000E+00 -0.45593999997E+02  0.45594000000E+02  0.51100000000E-03 0.  1.
    9900012    2    1    2    0    0 -0.48994656445E+01 -0.26598414261E+02  0.36022674679E+02  0.46142317678E+02  0.99999992413E+01 0.  0.
        -12    1    1    2    0    0  0.48994656445E+01  0.26598414261E+02 -0.36022674679E+02  0.45045682322E+02  0.00000000000E+00 0.  1.
         11    1    3    3    0    0 -0.61737083083E+00 -0.12331518119E+02  0.22221365867E+02  0.25421183826E+02  0.51100000000E-03 0. -1.
        -11    1    3    3    0    0 -0.11181255858E+01 -0.60145258691E+01  0.31513342096E+01  0.68815429823E+01  0.51100000000E-03 0.  1.
         12    1    3    3    0    0 -0.31639692279E+01 -0.82523702730E+01  0.10649974603E+02  0.13839590870E+02  0.00000000000E+00 0. -1.
</event>
<event>
 7    1  0.4452647E-009  0.4614232E+02  0.7816164E-02  0.1320468E+00
        -11   -1    0    0    0    0  0.00000000000E+00  0.00000000000E+00  0.45593999997E+02  0.45594000000E+02  0.51100000000E-03 0.  1.
         11   -1    0    0    0    0 -0.00000000000E+00 -0.00000000000E+00 -0.45593999997E+02  0.45594000000E+02  0.51100000000E-03 0. -1.
    9900012    2    1    2    0    0  0.10734298709E+02 -0.43495687483E+02 -0.46918594270E+01  0.46142317152E+02  0.99999944417E+01 0.  0.
         12    1    1    2    0    0 -0.10734298709E+02  0.43495687483E+02  0.46918594270E+01  0.45045682848E+02  0.00000000000E+00 0. -1.
         11    1    3    3    0    0  0.65584636468E+00 -0.31248971325E+00 -0.44171119307E+00  0.85023132978E+00  0.51100000000E-03 0.  1.
        -11    1    3    3    0    0 -0.11055482683E+01 -0.10257823051E+02 -0.11515463977E+01  0.10381292313E+02  0.51100000000E-03 0. -1.
        -12    1    3    3    0    0  0.11184000612E+02 -0.32925374718E+02 -0.30986018363E+01  0.34910793508E+02  0.00000000000E+00 0.  1.
</event>
<event>
 7    1  0.4452647E-009  0.4614231E+02  0.7816164E-02  0.1320468E+00
        -11   -1    0    0    0    0  0.00000000000E+00  0.00000000000E+00  0.45593999997E+02  0.45594000000E+02  0.51100000000E-03 0. -1.
         11   -1    0    0    0    0 -0.00000000000E+00 -0.00000000000E+00 -0.45593999997E+02  0.45594000000E+02  0.51100000000E-03 0.  1.
    9900012    2    1    2    0    0  0.43964914723E+01  0.31083562603E+02 -0.32304754998E+02  0.46142309897E+02  0.99999282889E+01 0.  0.
         12    1    1    2    0    0 -0.43964914723E+01 -0.31083562603E+02  0.32304754998E+02  0.45045690103E+02  0.00000000000E+00 0. -1.
         11    1    3    3    0    0  0.15072170076E-01  0.27147967732E+01 -0.73435049054E+01  0.78292664565E+01  0.51100000000E-03 0. -1.
        -11    1    3    3    0    0 -0.95248218345E-02  0.13760791666E+02 -0.10702933798E+02  0.17433079767E+02  0.51100000000E-03 0.  1.
         12    1    3    3    0    0  0.43909441240E+01  0.14607974164E+02 -0.14258316294E+02  0.20879963674E+02  0.00000000000E+00 0. -1.
</event>
<event>
 7    1  0.4452647E-009  0.4614232E+02  0.7816164E-02  0.1320468E+00
        -11   -1    0    0    0    0  0.00000000000E+00  0.00000000000E+00  0.45593999997E+02  0.45594000000E+02  0.51100000000E-03 0. -1.
         11   -1    0    0    0    0 -0.00000000000E+00 -0.00000000000E+00 -0.45593999997E+02  0.45594000000E+02  0.51100000000E-03 0.  1.
    9900012    2    1    2    0    0  0.35001741643E+02 -0.78471815288E+01 -0.27247265850E+02  0.46142315719E+02  0.99999813819E+01 0.  0.
         12    1    1    2    0    0 -0.35001741643E+02  0.78471815288E+01  0.27247265850E+02  0.45045684281E+02  0.00000000000E+00 0. -1.
         11    1    3    3    0    0  0.18352377525E+02 -0.12715857650E+00 -0.98382162714E+01  0.20823458641E+02  0.51100000000E-03 0. -1.
        -11    1    3    3    0    0  0.15153332984E+02 -0.66866414239E+01 -0.15813546862E+02  0.22899845822E+02  0.51100000000E-03 0.  1.
         12    1    3    3    0    0  0.14960311338E+01 -0.10333815284E+01 -0.15955027171E+01  0.24190112560E+01  0.00000000000E+00 0. -1.
</event>
<event>
 7    1  0.4452647E-009  0.4614232E+02  0.7816164E-02  0.1320468E+00
        -11   -1    0    0    0    0  0.00000000000E+00  0.00000000000E+00  0.45593999997E+02  0.45594000000E+02  0.51100000000E-03 0. -1.
         11   -1    0    0    0    0 -0.00000000000E+00 -0.00000000000E+00 -0.45593999997E+02  0.45594000000E+02  0.51100000000E-03 0.  1.
    9900012    2    1    2    0    0 -0.85501641490E+01  0.37912913079E+02  0.22773212490E+02  0.46142317718E+02  0.99999996097E+01 0.  0.
        -12    1    1    2    0    0  0.85501641490E+01 -0.37912913079E+02 -0.22773212490E+02  0.45045682282E+02  0.00000000000E+00 0.  1.
         11    1    3    3    0    0 -0.39327819780E+01  0.27523207027E+02  0.11464929696E+02  0.30073880899E+02  0.51100000000E-03 0. -1.
        -11    1    3    3    0    0 -0.16962729053E+01  0.38201232293E+01  0.48653938661E+01  0.64142607516E+01  0.51100000000E-03 0.  1.
        -12    1    3    3    0    0 -0.29211092657E+01  0.65695828229E+01  0.64428889283E+01  0.96541760680E+01  0.00000000000E+00 0.  1.
</event>
<event>
 7    1  0.4452647E-009  0.4614231E+02  0.7816164E-02  0.1320468E+00
        -11   -1    0    0    0    0  0.00000000000E+00  0.00000000000E+00  0.45593999997E+02  0.45594000000E+02  0.51100000000E-03 0. -1.
         11   -1    0    0    0    0 -0.00000000000E+00 -0.00000000000E+00 -0.45593999997E+02  0.45594000000E+02  0.51100000000E-03 0.  1.
    9900012    2    1    2    0    0 -0.23807965249E+02  0.19967816789E+01  0.38187795046E+02  0.46142311673E+02  0.99999444858E+01 0.  0.
        -12    1    1    2    0    0  0.23807965249E+02 -0.19967816789E+01 -0.38187795046E+02  0.45045688327E+02  0.00000000000E+00 0.  1.
         11    1    3    3    0    0 -0.66132676292E+01 -0.31983831015E+01  0.11080862867E+02  0.13294754054E+02  0.51100000000E-03 0.  1.
        -11    1    3    3    0    0 -0.10055070406E+02  0.33077647781E+01  0.19838251516E+02  0.22485594771E+02  0.51100000000E-03 0. -1.
         12    1    3    3    0    0 -0.71396272137E+01  0.18874000022E+01  0.72686806621E+01  0.10361962849E+02  0.00000000000E+00 0. -1.
</event>
<event>
 7    1  0.4452647E-009  0.4614232E+02  0.7816164E-02  0.1320468E+00
        -11   -1    0    0    0    0  0.00000000000E+00  0.00000000000E+00  0.45593999997E+02  0.45594000000E+02  0.51100000000E-03 0. -1.
         11   -1    0    0    0    0 -0.00000000000E+00 -0.00000000000E+00 -0.45593999997E+02  0.45594000000E+02  0.51100000000E-03 0.  1.
    9900012    2    1    2    0    0 -0.19282817753E+02  0.14121711426E+02 -0.38181980535E+02  0.46142318391E+02  0.10000005742E+02 0.  0.
         12    1    1    2    0    0  0.19282817753E+02 -0.14121711426E+02  0.38181980535E+02  0.45045681609E+02  0.00000000000E+00 0. -1.
         11    1    3    3    0    0 -0.13330523693E+01  0.39901448628E+00 -0.24094844617E+01  0.27824192373E+01  0.51100000000E-03 0. -1.
        -11    1    3    3    0    0 -0.16408453782E+02  0.15178944579E+02 -0.32029258581E+02  0.39057792047E+02  0.51100000000E-03 0.  1.
        -12    1    3    3    0    0 -0.15413116011E+01 -0.14562476389E+01 -0.37432374921E+01  0.43021071069E+01  0.00000000000E+00 0.  1.
</event>
<event>
 7    1  0.4452647E-009  0.4614232E+02  0.7816164E-02  0.1320468E+00
        -11   -1    0    0    0    0  0.00000000000E+00  0.00000000000E+00  0.45593999997E+02  0.45594000000E+02  0.51100000000E-03 0. -1.
         11   -1    0    0    0    0 -0.00000000000E+00 -0.00000000000E+00 -0.45593999997E+02  0.45594000000E+02  0.51100000000E-03 0.  1.
    9900012    2    1    2    0    0  0.40077788966E+02 -0.76353977469E+01 -0.19094109997E+02  0.46142317590E+02  0.99999984425E+01 0.  0.
         12    1    1    2    0    0 -0.40077788966E+02  0.76353977469E+01  0.19094109997E+02  0.45045682410E+02  0.00000000000E+00 0. -1.
         11    1    3    3    0    0  0.35789850958E+02 -0.62213383889E+01 -0.13209176252E+02  0.38653600355E+02  0.51100000000E-03 0. -1.
        -11    1    3    3    0    0  0.22214317543E+01 -0.12660851143E+01 -0.31269511834E+01  0.40392517277E+01  0.51100000000E-03 0.  1.
         12    1    3    3    0    0  0.20665062546E+01 -0.14797424369E+00 -0.27579825613E+01  0.34494655072E+01  0.00000000000E+00 0. -1.
</event>
<event>
 7    1  0.4452647E-009  0.4614232E+02  0.7816164E-02  0.1320468E+00
        -11   -1    0    0    0    0  0.00000000000E+00  0.00000000000E+00  0.45593999997E+02  0.45594000000E+02  0.51100000000E-03 0. -1.
         11   -1    0    0    0    0 -0.00000000000E+00 -0.00000000000E+00 -0.45593999997E+02  0.45594000000E+02  0.51100000000E-03 0.  1.
    9900012    2    1    2    0    0 -0.24802913459E+02  0.11222525400E+02 -0.35888493550E+02  0.46142316947E+02  0.99999925745E+01 0.  0.
         12    1    1    2    0    0  0.24802913459E+02 -0.11222525400E+02  0.35888493550E+02  0.45045683053E+02  0.00000000000E+00 0. -1.
         11    1    3    3    0    0 -0.83376024703E+01  0.82056669368E+01 -0.14803346269E+02  0.18867634877E+02  0.51100000000E-03 0. -1.
        -11    1    3    3    0    0 -0.78133526602E+01  0.79661100915E+00 -0.66092448156E+01  0.10264754560E+02  0.51100000000E-03 0.  1.
        -12    1    3    3    0    0 -0.86519583285E+01  0.22202474545E+01 -0.14475902466E+02  0.17009927509E+02  0.00000000000E+00 0.  1.
</event>
<event>
 7    1  0.4452647E-009  0.4614232E+02  0.7816164E-02  0.1320468E+00
        -11   -1    0    0    0    0  0.00000000000E+00  0.00000000000E+00  0.45593999997E+02  0.45594000000E+02  0.51100000000E-03 0.  1.
         11   -1    0    0    0    0 -0.00000000000E+00 -0.00000000000E+00 -0.45593999997E+02  0.45594000000E+02  0.51100000000E-03 0. -1.
    9900012    2    1    2    0    0  0.19073282220E+02 -0.37307818524E+02 -0.16536326706E+02  0.46142317426E+02  0.99999969417E+01 0.  0.
         12    1    1    2    0    0 -0.19073282220E+02  0.37307818524E+02  0.16536326706E+02  0.45045682574E+02  0.00000000000E+00 0. -1.
         11    1    3    3    0    0  0.42882870870E+01 -0.33185696662E+01 -0.39611576744E+01  0.67151382080E+01  0.51100000000E-03 0. -1.
        -11    1    3    3    0    0  0.61190618130E+01 -0.16771171789E+02 -0.38228764081E+01  0.18257313738E+02  0.51100000000E-03 0.  1.
        -12    1    3    3    0    0  0.86659333199E+01 -0.17218077069E+02 -0.87522926231E+01  0.21169865480E+02  0.00000000000E+00 0.  1.
</event>
<event>
 7    1  0.4452647E-009  0.4614232E+02  0.7816164E-02  0.1320468E+00
        -11   -1    0    0    0    0  0.00000000000E+00  0.00000000000E+00  0.45593999997E+02  0.45594000000E+02  0.51100000000E-03 0. -1.
         11   -1    0    0    0    0 -0.00000000000E+00 -0.00000000000E+00 -0.45593999997E+02  0.45594000000E+02  0.51100000000E-03 0.  1.
    9900012    2    1    2    0    0  0.10786729232E+02  0.50355303678E+01 -0.43444256579E+02  0.46142317374E+02  0.99999964667E+01 0.  0.
         12    1    1    2    0    0 -0.10786729232E+02 -0.50355303678E+01  0.43444256579E+02  0.45045682626E+02  0.00000000000E+00 0. -1.
         11    1    3    3    0    0  0.86325235279E+01 -0.57447879119E+00 -0.24748056001E+02  0.26216726806E+02  0.51100000000E-03 0. -1.
        -11    1    3    3    0    0  0.25868145940E+01  0.58020501876E+01 -0.17959838034E+02  0.19050227783E+02  0.51100000000E-03 0.  1.
        -12    1    3    3    0    0 -0.43260889008E+00 -0.19204102866E+00 -0.73636254435E+00  0.87536278490E+00  0.00000000000E+00 0.  1.
</event>
<event>
 7    1  0.4452647E-009  0.4614232E+02  0.7816164E-02  0.1320468E+00
        -11   -1    0    0    0    0  0.00000000000E+00  0.00000000000E+00  0.45593999997E+02  0.45594000000E+02  0.51100000000E-03 0.  1.
         11   -1    0    0    0    0 -0.00000000000E+00 -0.00000000000E+00 -0.45593999997E+02  0.45594000000E+02  0.51100000000E-03 0. -1.
    9900012    2    1    2    0    0  0.22713226185E+02 -0.34022669409E+02  0.18859507935E+02  0.46142315223E+02  0.99999768557E+01 0.  0.
        -12    1    1    2    0    0 -0.22713226185E+02  0.34022669409E+02 -0.18859507935E+02  0.45045684777E+02  0.00000000000E+00 0.  1.
         11    1    3    3    0    0  0.12774853494E+02 -0.23217298000E+02  0.14844483524E+02  0.30374306570E+02  0.51100000000E-03 0. -1.
        -11    1    3    3    0    0  0.46348886193E+01 -0.50881195559E+01 -0.23514903857E+00  0.68866863193E+01  0.51100000000E-03 0.  1.
        -12    1    3    3    0    0  0.53034840715E+01 -0.57172518533E+01  0.42501734497E+01  0.88813223341E+01  0.00000000000E+00 0.  1.
</event>
<event>
 7    1  0.4452647E-009  0.4614232E+02  0.7816164E-02  0.1320468E+00
        -11   -1    0    0    0    0  0.00000000000E+00  0.00000000000E+00  0.45593999997E+02  0.45594000000E+02  0.51100000000E-03 0.  1.
         11   -1    0    0    0    0 -0.00000000000E+00 -0.00000000000E+00 -0.45593999997E+02  0.45594000000E+02  0.51100000000E-03 0. -1.
    9900012    2    1    2    0    0 -0.30575757273E+02 -0.23098754558E+02 -0.23678769905E+02  0.46142317197E+02  0.99999948577E+01 0.  0.
         12    1    1    2    0    0  0.30575757273E+02  0.23098754558E+02  0.23678769905E+02  0.45045682803E+02  0.00000000000E+00 0. -1.
         11    1    3    3    0    0 -0.19514627567E+02 -0.90966312881E+01 -0.14896611588E+02  0.26181642938E+02  0.51100000000E-03 0. -1.
        -11    1    3    3    0    0 -0.60366188165E+01 -0.64075163916E+01 -0.39031378804E+01  0.96297205888E+01  0.51100000000E-03 0.  1.
         12    1    3    3    0    0 -0.50245108896E+01 -0.75946068785E+01 -0.48790204367E+01  0.10330953670E+02  0.00000000000E+00 0. -1.
</event>
<event>
 7    1  0.6683555E-009  0.4614233E+02  0.7816164E-02  0.1320468E+00
        -11   -1    0    0    0    0  0.00000000000E+00  0.00000000000E+00  0.45593999997E+02  0.45594000000E+02  0.51100000000E-03 0. -1.
         11   -1    0    0    0    0 -0.00000000000E+00 -0.00000000000E+00 -0.45593999997E+02  0.45594000000E+02  0.51100000000E-03 0.  1.
    9900012    2    1    2    0    0  0.18664411856E+02 -0.19737660812E+02  0.35932955064E+02  0.46142325580E+02  0.10000071302E+02 0.  0.
        -12    1    1    2    0    0 -0.18664411856E+02  0.19737660812E+02 -0.35932955064E+02  0.45045674420E+02  0.00000000000E+00 0.  1.
         11    1    3    3    0    0  0.15164033618E+02 -0.18235669704E+02  0.33514596221E+02  0.41057468568E+02  0.51100000000E-03 0. -1.
        -11    1    3    3    0    0  0.34824535172E+01 -0.82681198986E+00  0.25525941334E+01  0.43962299345E+01  0.51100000000E-03 0.  1.
         12    1    3    3    0    0  0.17924721230E-01 -0.67517911911E+00 -0.13423529088E+00  0.68862707748E+00  0.00000000000E+00 0. -1.
</event>
<event>
 7    1  0.4452647E-009  0.4614232E+02  0.7816164E-02  0.1320468E+00
        -11   -1    0    0    0    0  0.00000000000E+00  0.00000000000E+00  0.45593999997E+02  0.45594000000E+02  0.51100000000E-03 0. -1.
         11   -1    0    0    0    0 -0.00000000000E+00 -0.00000000000E+00 -0.45593999997E+02  0.45594000000E+02  0.51100000000E-03 0.  1.
    9900012    2    1    2    0    0  0.20234648738E+02  0.31925858199E+01  0.40118325990E+02  0.46142315478E+02  0.99999791807E+01 0.  0.
        -12    1    1    2    0    0 -0.20234648738E+02 -0.31925858199E+01 -0.40118325990E+02  0.45045684522E+02  0.00000000000E+00 0.  1.
         11    1    3    3    0    0  0.12409434526E+02  0.34055633982E+01  0.23651072320E+02  0.26925176870E+02  0.51100000000E-03 0. -1.
        -11    1    3    3    0    0  0.15080800817E+00 -0.80916273654E-01 -0.53549630426E+00  0.56218062193E+00  0.51100000000E-03 0.  1.
         12    1    3    3    0    0  0.76744062044E+01 -0.13206130455E+00  0.17002749974E+02  0.18654957986E+02  0.00000000000E+00 0. -1.
</event>
<event>
 7    1  0.4452647E-009  0.4614232E+02  0.7816164E-02  0.1320468E+00
        -11   -1    0    0    0    0  0.00000000000E+00  0.00000000000E+00  0.45593999997E+02  0.45594000000E+02  0.51100000000E-03 0. -1.
         11   -1    0    0    0    0 -0.00000000000E+00 -0.00000000000E+00 -0.45593999997E+02  0.45594000000E+02  0.51100000000E-03 0.  1.
    9900012    2    1    2    0    0 -0.26729444626E+02 -0.14725225470E+02 -0.33133336832E+02  0.46142317801E+02  0.10000000364E+02 0.  0.
         12    1    1    2    0    0  0.26729444626E+02  0.14725225470E+02  0.33133336832E+02  0.45045682199E+02  0.00000000000E+00 0. -1.
         11    1    3    3    0    0 -0.50789021202E+01 -0.29504355535E+01 -0.31465297888E+01  0.66634050361E+01  0.51100000000E-03 0. -1.
        -11    1    3    3    0    0 -0.16289867264E+02 -0.84483121032E+01 -0.16882313760E+02  0.24934840506E+02  0.51100000000E-03 0.  1.
        -12    1    3    3    0    0 -0.53606752420E+01 -0.33264778133E+01 -0.13104493282E+02  0.14544072259E+02  0.00000000000E+00 0.  1.
</event>
<event>
 7    1  0.4452647E-009  0.4614232E+02  0.7816164E-02  0.1320468E+00
        -11   -1    0    0    0    0  0.00000000000E+00  0.00000000000E+00  0.45593999997E+02  0.45594000000E+02  0.51100000000E-03 0. -1.
         11   -1    0    0    0    0 -0.00000000000E+00 -0.00000000000E+00 -0.45593999997E+02  0.45594000000E+02  0.51100000000E-03 0.  1.
    9900012    2    1    2    0    0 -0.24057510833E+02 -0.37094095480E+02 -0.86242537266E+01  0.46142317639E+02  0.99999988898E+01 0.  0.
         12    1    1    2    0    0  0.24057510833E+02  0.37094095480E+02  0.86242537266E+01  0.45045682361E+02  0.00000000000E+00 0. -1.
         11    1    3    3    0    0 -0.97652890385E+01 -0.91770901739E+01 -0.14269940568E+01  0.13476504234E+02  0.51100000000E-03 0. -1.
        -11    1    3    3    0    0 -0.10547998975E+02 -0.14948146530E+02 -0.30731412952E+01  0.18551322452E+02  0.51100000000E-03 0.  1.
        -12    1    3    3    0    0 -0.37442228192E+01 -0.12968858777E+02 -0.41241183746E+01  0.14114490953E+02  0.00000000000E+00 0.  1.
</event>
<event>
 7    1  0.4452647E-009  0.4614232E+02  0.7816164E-02  0.1320468E+00
        -11   -1    0    0    0    0  0.00000000000E+00  0.00000000000E+00  0.45593999997E+02  0.45594000000E+02  0.51100000000E-03 0. -1.
         11   -1    0    0    0    0 -0.00000000000E+00 -0.00000000000E+00 -0.45593999997E+02  0.45594000000E+02  0.51100000000E-03 0.  1.
    9900012    2    1    2    0    0 -0.83146541256E+01 -0.33291222431E+02  0.29183463633E+02  0.46142317479E+02  0.99999974260E+01 0.  0.
        -12    1    1    2    0    0  0.83146541256E+01  0.33291222431E+02 -0.29183463633E+02  0.45045682521E+02  0.00000000000E+00 0.  1.
         11    1    3    3    0    0 -0.22365315619E+00 -0.44576372041E+00 -0.72577309148E+00  0.88060937433E+00  0.51100000000E-03 0. -1.
        -11    1    3    3    0    0 -0.50859191400E+01 -0.15977987391E+02  0.13337270020E+02  0.21425345421E+02  0.51100000000E-03 0.  1.
         12    1    3    3    0    0 -0.30050818294E+01 -0.16867471319E+02  0.16571966705E+02  0.23836362683E+02  0.00000000000E+00 0. -1.
</event>
<event>
 7    1  0.4452647E-009  0.4614232E+02  0.7816164E-02  0.1320468E+00
        -11   -1    0    0    0    0  0.00000000000E+00  0.00000000000E+00  0.45593999997E+02  0.45594000000E+02  0.51100000000E-03 0. -1.
         11   -1    0    0    0    0 -0.00000000000E+00 -0.00000000000E+00 -0.45593999997E+02  0.45594000000E+02  0.51100000000E-03 0.  1.
    9900012    2    1    2    0    0 -0.30202855525E+02 -0.71412180068E+01  0.32648187722E+02  0.46142316100E+02  0.99999848536E+01 0.  0.
        -12    1    1    2    0    0  0.30202855525E+02  0.71412180068E+01 -0.32648187722E+02  0.45045683900E+02  0.00000000000E+00 0.  1.
         11    1    3    3    0    0 -0.82965144517E+01 -0.43442670773E+00  0.70412376977E+01  0.10890358451E+02  0.51100000000E-03 0. -1.
        -11    1    3    3    0    0 -0.20222562527E+02 -0.65080270907E+01  0.19234628026E+02  0.28657937248E+02  0.51100000000E-03 0.  1.
        -12    1    3    3    0    0 -0.16837785469E+01 -0.19876420836E+00  0.63723219977E+01  0.65940204009E+01  0.00000000000E+00 0.  1.
</event>
<event>
 7    1  0.4452647E-009  0.4614232E+02  0.7816164E-02  0.1320468E+00
        -11   -1    0    0    0    0  0.00000000000E+00  0.00000000000E+00  0.45593999997E+02  0.45594000000E+02  0.51100000000E-03 0. -1.
         11   -1    0    0    0    0 -0.00000000000E+00 -0.00000000000E+00 -0.45593999997E+02  0.45594000000E+02  0.51100000000E-03 0.  1.
    9900012    2    1    2    0    0 -0.23678143680E+02 -0.20489276299E+02 -0.32382843679E+02  0.46142317674E+02  0.99999992083E+01 0.  0.
         12    1    1    2    0    0  0.23678143680E+02  0.20489276299E+02  0.32382843679E+02  0.45045682326E+02  0.00000000000E+00 0. -1.
         11    1    3    3    0    0 -0.16676541228E+02 -0.17764497647E+02 -0.24464979692E+02  0.34528533644E+02  0.51100000000E-03 0. -1.
        -11    1    3    3    0    0 -0.41172639884E+01 -0.35189463412E+01 -0.58779771860E+01  0.79928381795E+01  0.51100000000E-03 0.  1.
         12    1    3    3    0    0 -0.28843384639E+01  0.79416768944E+00 -0.20398868015E+01  0.36209458510E+01  0.00000000000E+00 0. -1.
</event>
<event>
 7    1  0.4452647E-009  0.4614232E+02  0.7816164E-02  0.1320468E+00
        -11   -1    0    0    0    0  0.00000000000E+00  0.00000000000E+00  0.45593999997E+02  0.45594000000E+02  0.51100000000E-03 0. -1.
         11   -1    0    0    0    0 -0.00000000000E+00 -0.00000000000E+00 -0.45593999997E+02  0.45594000000E+02  0.51100000000E-03 0.  1.
    9900012    2    1    2    0    0 -0.27318430888E+02  0.15175928827E+02  0.32442379999E+02  0.46142317611E+02  0.99999986278E+01 0.  0.
        -12    1    1    2    0    0  0.27318430888E+02 -0.15175928827E+02 -0.32442379999E+02  0.45045682389E+02  0.00000000000E+00 0.  1.
         11    1    3    3    0    0 -0.15356765335E+02  0.10617628169E+02  0.24359568182E+02  0.30691250085E+02  0.51100000000E-03 0. -1.
        -11    1    3    3    0    0 -0.85097509592E+01  0.46830497062E+01  0.58834240611E+01  0.11356121472E+02  0.51100000000E-03 0.  1.
         12    1    3    3    0    0 -0.34519145935E+01 -0.12474904774E+00  0.21993877553E+01  0.40949460539E+01  0.00000000000E+00 0. -1.
</event>
<event>
 7    1  0.4452647E-009  0.4614232E+02  0.7816164E-02  0.1320468E+00
        -11   -1    0    0    0    0  0.00000000000E+00  0.00000000000E+00  0.45593999997E+02  0.45594000000E+02  0.51100000000E-03 0.  1.
         11   -1    0    0    0    0 -0.00000000000E+00 -0.00000000000E+00 -0.45593999997E+02  0.45594000000E+02  0.51100000000E-03 0. -1.
    9900012    2    1    2    0    0 -0.35257754501E+02 -0.95156117396E+01 -0.26371525844E+02  0.46142317692E+02  0.99999993687E+01 0.  0.
         12    1    1    2    0    0  0.35257754501E+02  0.95156117396E+01  0.26371525844E+02  0.45045682308E+02  0.00000000000E+00 0. -1.
         11    1    3    3    0    0 -0.10586233662E+02 -0.66350860331E+01 -0.10827454557E+02  0.16532588493E+02  0.51100000000E-03 0. -1.
        -11    1    3    3    0    0 -0.74967414340E+01 -0.63940423155E+00 -0.70821602066E+01  0.10332810041E+02  0.51100000000E-03 0.  1.
         12    1    3    3    0    0 -0.17174779405E+02 -0.22411214750E+01 -0.84619110802E+01  0.19276919158E+02  0.00000000000E+00 0. -1.
</event>
<event>
 7    1  0.4452647E-009  0.4614232E+02  0.7816164E-02  0.1320468E+00
        -11   -1    0    0    0    0  0.00000000000E+00  0.00000000000E+00  0.45593999997E+02  0.45594000000E+02  0.51100000000E-03 0. -1.
         11   -1    0    0    0    0 -0.00000000000E+00 -0.00000000000E+00 -0.45593999997E+02  0.45594000000E+02  0.51100000000E-03 0.  1.
    9900012    2    1    2    0    0 -0.16880121093E+02 -0.23058185241E+02  0.34820900232E+02  0.46142317768E+02  0.10000000067E+02 0.  0.
        -12    1    1    2    0    0  0.16880121093E+02  0.23058185241E+02 -0.34820900232E+02  0.45045682232E+02  0.00000000000E+00 0.  1.
         11    1    3    3    0    0 -0.85187753583E+01 -0.14662002799E+02  0.20584572107E+02  0.26669616959E+02  0.51100000000E-03 0. -1.
        -11    1    3    3    0    0  0.92043262997E+00 -0.96845252366E+00  0.20611903544E+01  0.24563392386E+01  0.51100000000E-03 0.  1.
         12    1    3    3    0    0 -0.92817783651E+01 -0.74277299189E+01  0.12175137771E+02  0.17016361571E+02  0.00000000000E+00 0. -1.
</event>
<event>
 7    1  0.4452647E-009  0.4614232E+02  0.7816164E-02  0.1320468E+00
        -11   -1    0    0    0    0  0.00000000000E+00  0.00000000000E+00  0.45593999997E+02  0.45594000000E+02  0.51100000000E-03 0. -1.
         11   -1    0    0    0    0 -0.00000000000E+00 -0.00000000000E+00 -0.45593999997E+02  0.45594000000E+02  0.51100000000E-03 0.  1.
    9900012    2    1    2    0    0 -0.64541571169E+01 -0.14160522519E+02  0.42272176295E+02  0.46142318400E+02  0.10000005824E+02 0.  0.
        -12    1    1    2    0    0  0.64541571169E+01  0.14160522519E+02 -0.42272176295E+02  0.45045681600E+02  0.00000000000E+00 0.  1.
         11    1    3    3    0    0 -0.72795483917E+01 -0.14653424731E+02  0.33803552402E+02  0.37555223823E+02  0.51100000000E-03 0. -1.
        -11    1    3    3    0    0  0.97010916843E+00  0.66437505186E+00  0.64757908790E+01  0.65816695282E+01  0.51100000000E-03 0.  1.
         12    1    3    3    0    0 -0.14471789368E+00 -0.17147283977E+00  0.19928330142E+01  0.20054250488E+01  0.00000000000E+00 0. -1.
</event>
<event>
 7    1  0.4452647E-009  0.4614232E+02  0.7816164E-02  0.1320468E+00
        -11   -1    0    0    0    0  0.00000000000E+00  0.00000000000E+00  0.45593999997E+02  0.45594000000E+02  0.51100000000E-03 0. -1.
         11   -1    0    0    0    0 -0.00000000000E+00 -0.00000000000E+00 -0.45593999997E+02  0.45594000000E+02  0.51100000000E-03 0.  1.
    9900012    2    1    2    0    0  0.12264273871E+02 -0.31674341726E+02 -0.29587787064E+02  0.46142317846E+02  0.10000000777E+02 0.  0.
         12    1    1    2    0    0 -0.12264273871E+02  0.31674341726E+02  0.29587787064E+02  0.45045682154E+02  0.00000000000E+00 0. -1.
         11    1    3    3    0    0  0.76690264858E-01 -0.28768405166E+01  0.94574911779E-01  0.28794161613E+01  0.51100000000E-03 0. -1.
        -11    1    3    3    0    0  0.30050163818E+01 -0.47429036085E+01 -0.67827614541E+01  0.88051752566E+01  0.51100000000E-03 0.  1.
         12    1    3    3    0    0  0.91825672245E+01 -0.24054597601E+02 -0.22899600522E+02  0.34457726428E+02  0.00000000000E+00 0. -1.
</event>
<event>
 7    1  0.4452647E-009  0.4614232E+02  0.7816164E-02  0.1320468E+00
        -11   -1    0    0    0    0  0.00000000000E+00  0.00000000000E+00  0.45593999997E+02  0.45594000000E+02  0.51100000000E-03 0.  1.
         11   -1    0    0    0    0 -0.00000000000E+00 -0.00000000000E+00 -0.45593999997E+02  0.45594000000E+02  0.51100000000E-03 0. -1.
    9900012    2    1    2    0    0  0.34064712108E+02  0.28663446969E+02 -0.68640866524E+01  0.46142317758E+02  0.99999999689E+01 0.  0.
        -12    1    1    2    0    0 -0.34064712108E+02 -0.28663446969E+02  0.68640866524E+01  0.45045682242E+02  0.00000000000E+00 0.  1.
         11    1    3    3    0    0  0.25057377419E+02  0.17120306250E+02 -0.54844866074E+01  0.30839206261E+02  0.51100000000E-03 0. -1.
        -11    1    3    3    0    0 -0.66782304560E-01  0.54407322939E+00  0.70447376953E+00  0.89261363882E+00  0.51100000000E-03 0.  1.
         12    1    3    3    0    0  0.90741169933E+01  0.10999067490E+02 -0.20840738146E+01  0.14410497858E+02  0.00000000000E+00 0. -1.
</event>
<event>
 7    1  0.4452647E-009  0.4614232E+02  0.7816164E-02  0.1320468E+00
        -11   -1    0    0    0    0  0.00000000000E+00  0.00000000000E+00  0.45593999997E+02  0.45594000000E+02  0.51100000000E-03 0. -1.
         11   -1    0    0    0    0 -0.00000000000E+00 -0.00000000000E+00 -0.45593999997E+02  0.45594000000E+02  0.51100000000E-03 0.  1.
    9900012    2    1    2    0    0 -0.11365191836E+02 -0.10192896557E+02  0.42379840167E+02  0.46142316763E+02  0.99999909001E+01 0.  0.
        -12    1    1    2    0    0  0.11365191836E+02  0.10192896557E+02 -0.42379840167E+02  0.45045683237E+02  0.00000000000E+00 0.  1.
         11    1    3    3    0    0 -0.10065378097E+01 -0.13443191620E+01  0.40012819618E+01  0.43394204648E+01  0.51100000000E-03 0. -1.
        -11    1    3    3    0    0 -0.11463756554E+02 -0.77315446189E+01  0.37574210956E+02  0.40037680074E+02  0.51100000000E-03 0.  1.
        -12    1    3    3    0    0  0.11051025280E+01 -0.11170327757E+01  0.80434724943E+00  0.17652162239E+01  0.00000000000E+00 0.  1.
</event>
<event>
 7    1  0.4452647E-009  0.4614232E+02  0.7816164E-02  0.1320468E+00
        -11   -1    0    0    0    0  0.00000000000E+00  0.00000000000E+00  0.45593999997E+02  0.45594000000E+02  0.51100000000E-03 0. -1.
         11   -1    0    0    0    0 -0.00000000000E+00 -0.00000000000E+00 -0.45593999997E+02  0.45594000000E+02  0.51100000000E-03 0.  1.
    9900012    2    1    2    0    0 -0.44341793347E+01  0.21773173044E+02 -0.39183933157E+02  0.46142316206E+02  0.99999858225E+01 0.  0.
         12    1    1    2    0    0  0.44341793347E+01 -0.21773173044E+02  0.39183933157E+02  0.45045683794E+02  0.00000000000E+00 0. -1.
         11    1    3    3    0    0  0.20013199337E+01  0.35932626614E+01 -0.10732457424E+02  0.11493583455E+02  0.51100000000E-03 0. -1.
        -11    1    3    3    0    0 -0.35884150449E+01  0.74373764640E+01 -0.87670986446E+01  0.12043807957E+02  0.51100000000E-03 0.  1.
         12    1    3    3    0    0 -0.28470842235E+01  0.10742533918E+02 -0.19684377089E+02  0.22604924794E+02  0.00000000000E+00 0. -1.
</event>
<event>
 7    1  0.4452647E-009  0.4614232E+02  0.7816164E-02  0.1320468E+00
        -11   -1    0    0    0    0  0.00000000000E+00  0.00000000000E+00  0.45593999997E+02  0.45594000000E+02  0.51100000000E-03 0. -1.
         11   -1    0    0    0    0 -0.00000000000E+00 -0.00000000000E+00 -0.45593999997E+02  0.45594000000E+02  0.51100000000E-03 0.  1.
    9900012    2    1    2    0    0 -0.30393218498E+02 -0.52586973447E+01 -0.32828521368E+02  0.46142318258E+02  0.10000004528E+02 0.  0.
         12    1    1    2    0    0  0.30393218498E+02  0.52586973447E+01  0.32828521368E+02  0.45045681742E+02  0.00000000000E+00 0. -1.
         11    1    3    3    0    0 -0.62154692179E+01 -0.47156418681E+01 -0.10794877788E+02  0.13319111177E+02  0.51100000000E-03 0. -1.
        -11    1    3    3    0    0 -0.19859391108E+02  0.32561491336E+00 -0.17096648909E+02  0.26206809124E+02  0.51100000000E-03 0.  1.
        -12    1    3    3    0    0 -0.43183581717E+01 -0.86867039000E+00 -0.49369946700E+01  0.66163979564E+01  0.00000000000E+00 0.  1.
</event>
<event>
 7    1  0.4452647E-009  0.4614232E+02  0.7816164E-02  0.1320468E+00
        -11   -1    0    0    0    0  0.00000000000E+00  0.00000000000E+00  0.45593999997E+02  0.45594000000E+02  0.51100000000E-03 0. -1.
         11   -1    0    0    0    0 -0.00000000000E+00 -0.00000000000E+00 -0.45593999997E+02  0.45594000000E+02  0.51100000000E-03 0.  1.
    9900012    2    1    2    0    0 -0.36401680092E+02  0.17347472229E+02 -0.20077259581E+02  0.46142318092E+02  0.10000003020E+02 0.  0.
         12    1    1    2    0    0  0.36401680092E+02 -0.17347472229E+02  0.20077259581E+02  0.45045681908E+02  0.00000000000E+00 0. -1.
         11    1    3    3    0    0 -0.15161743769E+02  0.99796143544E+01 -0.11802926589E+02  0.21651333749E+02  0.51100000000E-03 0.  1.
        -11    1    3    3    0    0 -0.14097465653E+02  0.25737617005E+01 -0.39604137862E+01  0.14867671800E+02  0.51100000000E-03 0. -1.
        -12    1    3    3    0    0 -0.71424706699E+01  0.47940961738E+01 -0.43139192051E+01  0.96233125431E+01  0.00000000000E+00 0.  1.
</event>
<event>
 7    1  0.4452647E-009  0.4614232E+02  0.7816164E-02  0.1320468E+00
        -11   -1    0    0    0    0  0.00000000000E+00  0.00000000000E+00  0.45593999997E+02  0.45594000000E+02  0.51100000000E-03 0. -1.
         11   -1    0    0    0    0 -0.00000000000E+00 -0.00000000000E+00 -0.45593999997E+02  0.45594000000E+02  0.51100000000E-03 0.  1.
    9900012    2    1    2    0    0  0.30704049296E+02  0.96670446312E+01  0.31510682927E+02  0.46142317259E+02  0.99999954237E+01 0.  0.
        -12    1    1    2    0    0 -0.30704049296E+02 -0.96670446312E+01 -0.31510682927E+02  0.45045682741E+02  0.00000000000E+00 0.  1.
         11    1    3    3    0    0  0.12893376766E+02  0.11611039394E+01  0.13837888941E+02  0.18949261130E+02  0.51100000000E-03 0. -1.
        -11    1    3    3    0    0 -0.43224723293E+00 -0.16406202714E+00  0.50247450080E+00  0.68281396017E+00  0.51100000000E-03 0.  1.
         12    1    3    3    0    0  0.18242919763E+02  0.86700027189E+01  0.17170319485E+02  0.26510242169E+02  0.00000000000E+00 0. -1.
</event>
<event>
 7    1  0.4452647E-009  0.4614232E+02  0.7816164E-02  0.1320468E+00
        -11   -1    0    0    0    0  0.00000000000E+00  0.00000000000E+00  0.45593999997E+02  0.45594000000E+02  0.51100000000E-03 0. -1.
         11   -1    0    0    0    0 -0.00000000000E+00 -0.00000000000E+00 -0.45593999997E+02  0.45594000000E+02  0.51100000000E-03 0.  1.
    9900012    2    1    2    0    0 -0.27452862444E+01 -0.37563920978E+02  0.24708879253E+02  0.46142317968E+02  0.10000001882E+02 0.  0.
        -12    1    1    2    0    0  0.27452862444E+01  0.37563920978E+02 -0.24708879253E+02  0.45045682032E+02  0.00000000000E+00 0.  1.
         11    1    3    3    0    0 -0.47910647976E+01 -0.30229984715E+02  0.21733069712E+02  0.37538414953E+02  0.51100000000E-03 0. -1.
        -11    1    3    3    0    0 -0.14856008163E+00 -0.20460130590E+01 -0.19274343209E+00  0.20604343783E+01  0.51100000000E-03 0.  1.
        -12    1    3    3    0    0  0.21943386348E+01 -0.52879232040E+01  0.31685529725E+01  0.65434686364E+01  0.00000000000E+00 0.  1.
</event>
<event>
 7    1  0.4452647E-009  0.4614232E+02  0.7816164E-02  0.1320468E+00
        -11   -1    0    0    0    0  0.00000000000E+00  0.00000000000E+00  0.45593999997E+02  0.45594000000E+02  0.51100000000E-03 0. -1.
         11   -1    0    0    0    0 -0.00000000000E+00 -0.00000000000E+00 -0.45593999997E+02  0.45594000000E+02  0.51100000000E-03 0.  1.
    9900012    2    1    2    0    0  0.16932721215E+02 -0.36564464762E+02  0.20135450659E+02  0.46142317584E+02  0.99999983868E+01 0.  0.
        -12    1    1    2    0    0 -0.16932721215E+02  0.36564464762E+02 -0.20135450659E+02  0.45045682416E+02  0.00000000000E+00 0.  1.
         11    1    3    3    0    0  0.88777205158E+01 -0.11952005776E+02  0.84015039054E+01  0.17095310227E+02  0.51100000000E-03 0. -1.
        -11    1    3    3    0    0  0.12802087418E+01 -0.36604884557E+00  0.16761437021E+00  0.13420212435E+01  0.51100000000E-03 0.  1.
        -12    1    3    3    0    0  0.67747919575E+01 -0.24246410140E+02  0.11566332384E+02  0.27704986113E+02  0.00000000000E+00 0.  1.
</event>
<event>
 7    1  0.4452647E-009  0.4614232E+02  0.7816164E-02  0.1320468E+00
        -11   -1    0    0    0    0  0.00000000000E+00  0.00000000000E+00  0.45593999997E+02  0.45594000000E+02  0.51100000000E-03 0. -1.
         11   -1    0    0    0    0 -0.00000000000E+00 -0.00000000000E+00 -0.45593999997E+02  0.45594000000E+02  0.51100000000E-03 0.  1.
    9900012    2    1    2    0    0  0.28404751023E+02  0.34928923952E+02 -0.15012912475E+01  0.46142317804E+02  0.10000000391E+02 0.  0.
         12    1    1    2    0    0 -0.28404751023E+02 -0.34928923952E+02  0.15012912475E+01  0.45045682196E+02  0.00000000000E+00 0. -1.
         11    1    3    3    0    0  0.11263795938E+02  0.69965755419E+01  0.27093504488E+00  0.13262675986E+02  0.51100000000E-03 0. -1.
        -11    1    3    3    0    0  0.69309554776E+01  0.94916154585E+01 -0.54895278084E+00  0.11765638838E+02  0.51100000000E-03 0.  1.
         12    1    3    3    0    0  0.10209999607E+02  0.18440732952E+02 -0.12232735115E+01  0.21114002980E+02  0.00000000000E+00 0. -1.
</event>
<event>
 7    1  0.4452647E-009  0.4614232E+02  0.7816164E-02  0.1320468E+00
        -11   -1    0    0    0    0  0.00000000000E+00  0.00000000000E+00  0.45593999997E+02  0.45594000000E+02  0.51100000000E-03 0. -1.
         11   -1    0    0    0    0 -0.00000000000E+00 -0.00000000000E+00 -0.45593999997E+02  0.45594000000E+02  0.51100000000E-03 0.  1.
    9900012    2    1    2    0    0  0.40150436139E+01  0.32427757225E+02  0.31006990852E+02  0.46142317682E+02  0.99999992774E+01 0.  0.
        -12    1    1    2    0    0 -0.40150436139E+01 -0.32427757225E+02 -0.31006990852E+02  0.45045682318E+02  0.00000000000E+00 0.  1.
         11    1    3    3    0    0 -0.12862687613E+01  0.21969526790E+01  0.58913598998E+00  0.26130767069E+01  0.51100000000E-03 0. -1.
        -11    1    3    3    0    0  0.16955174537E+01  0.22683546735E+02  0.23022337267E+02  0.32364271742E+02  0.51100000000E-03 0.  1.
        -12    1    3    3    0    0  0.36057949214E+01  0.75472578109E+01  0.73955175941E+01  0.11164969233E+02  0.00000000000E+00 0.  1.
</event>
<event>
 7    1  0.4452647E-009  0.4614232E+02  0.7816164E-02  0.1320468E+00
        -11   -1    0    0    0    0  0.00000000000E+00  0.00000000000E+00  0.45593999997E+02  0.45594000000E+02  0.51100000000E-03 0.  1.
         11   -1    0    0    0    0 -0.00000000000E+00 -0.00000000000E+00 -0.45593999997E+02  0.45594000000E+02  0.51100000000E-03 0. -1.
    9900012    2    1    2    0    0  0.37476369905E+02  0.22780729174E+02 -0.10279763862E+02  0.46142317987E+02  0.10000002060E+02 0.  0.
         12    1    1    2    0    0 -0.37476369905E+02 -0.22780729174E+02  0.10279763862E+02  0.45045682013E+02  0.00000000000E+00 0. -1.
         11    1    3    3    0    0  0.44800881508E+01  0.44366655504E+01  0.95935651280E+00  0.63777391154E+01  0.51100000000E-03 0. -1.
        -11    1    3    3    0    0  0.20632557803E+02  0.13995891506E+02 -0.59520029517E+01  0.25632279648E+02  0.51100000000E-03 0.  1.
         12    1    3    3    0    0  0.12363723951E+02  0.43481721171E+01 -0.52871174227E+01  0.14132299224E+02  0.00000000000E+00 0. -1.
</event>
<event>
 7    1  0.4452647E-009  0.4614232E+02  0.7816164E-02  0.1320468E+00
        -11   -1    0    0    0    0  0.00000000000E+00  0.00000000000E+00  0.45593999997E+02  0.45594000000E+02  0.51100000000E-03 0. -1.
         11   -1    0    0    0    0 -0.00000000000E+00 -0.00000000000E+00 -0.45593999997E+02  0.45594000000E+02  0.51100000000E-03 0.  1.
    9900012    2    1    2    0    0 -0.34530163195E+02 -0.20070883083E+02 -0.20831250843E+02  0.46142317302E+02  0.99999958152E+01 0.  0.
         12    1    1    2    0    0  0.34530163195E+02  0.20070883083E+02  0.20831250843E+02  0.45045682698E+02  0.00000000000E+00 0. -1.
         11    1    3    3    0    0 -0.26499355329E+02 -0.18636317783E+02 -0.15175664259E+02  0.35774697195E+02  0.51100000000E-03 0. -1.
        -11    1    3    3    0    0 -0.11237867234E+01  0.85477280522E+00 -0.96856737657E+00  0.17122079816E+01  0.51100000000E-03 0.  1.
         12    1    3    3    0    0 -0.69070211424E+01 -0.22893381049E+01 -0.46870192073E+01  0.86554121259E+01  0.00000000000E+00 0. -1.
</event>
<event>
 7    1  0.5252579E-009  0.4614232E+02  0.7816164E-02  0.1320468E+00
        -11   -1    0    0    0    0  0.00000000000E+00  0.00000000000E+00  0.45593999997E+02  0.45594000000E+02  0.51100000000E-03 0. -1.
         11   -1    0    0    0    0 -0.00000000000E+00 -0.00000000000E+00 -0.45593999997E+02  0.45594000000E+02  0.51100000000E-03 0.  1.
    9900012    2    1    2    0    0 -0.25850291113E+02  0.22183029171E+01  0.36823293694E+02  0.46142318998E+02  0.10000011283E+02 0.  0.
        -12    1    1    2    0    0  0.25850291113E+02 -0.22183029171E+01 -0.36823293694E+02  0.45045681002E+02  0.00000000000E+00 0.  1.
         11    1    3    3    0    0 -0.60203625810E+01 -0.27330441494E+00  0.37339960439E+01  0.70895830362E+01  0.51100000000E-03 0. -1.
        -11    1    3    3    0    0 -0.37635179511E+01  0.24566143933E+01  0.52594131722E+01  0.69181246608E+01  0.51100000000E-03 0.  1.
         12    1    3    3    0    0 -0.16066410581E+02  0.34992938683E-01  0.27829884478E+02  0.32134611301E+02  0.00000000000E+00 0. -1.
</event>
<event>
 7    1  0.4452647E-009  0.4614232E+02  0.7816164E-02  0.1320468E+00
        -11   -1    0    0    0    0  0.00000000000E+00  0.00000000000E+00  0.45593999997E+02  0.45594000000E+02  0.51100000000E-03 0. -1.
         11   -1    0    0    0    0 -0.00000000000E+00 -0.00000000000E+00 -0.45593999997E+02  0.45594000000E+02  0.51100000000E-03 0.  1.
    9900012    2    1    2    0    0  0.24441285495E+02  0.29993896421E+02  0.23067362607E+02  0.46142317889E+02  0.10000001170E+02 0.  0.
        -12    1    1    2    0    0 -0.24441285495E+02 -0.29993896421E+02 -0.23067362607E+02  0.45045682111E+02  0.00000000000E+00 0.  1.
         11    1    3    3    0    0  0.93413323985E+01  0.84692390494E+01  0.49954443130E+01  0.13562557473E+02  0.51100000000E-03 0. -1.
        -11    1    3    3    0    0  0.15049762415E+02  0.20144954479E+02  0.18402235591E+02  0.31160179953E+02  0.51100000000E-03 0.  1.
        -12    1    3    3    0    0  0.50190681998E-01  0.13797028921E+01 -0.33031729706E+00  0.14195804633E+01  0.00000000000E+00 0.  1.
</event>
<event>
 7    1  0.4452647E-009  0.4614232E+02  0.7816164E-02  0.1320468E+00
        -11   -1    0    0    0    0  0.00000000000E+00  0.00000000000E+00  0.45593999997E+02  0.45594000000E+02  0.51100000000E-03 0. -1.
         11   -1    0    0    0    0 -0.00000000000E+00 -0.00000000000E+00 -0.45593999997E+02  0.45594000000E+02  0.51100000000E-03 0.  1.
    9900012    2    1    2    0    0  0.22537104512E+02 -0.11036462333E+01 -0.38986848103E+02  0.46142318300E+02  0.10000004917E+02 0.  0.
         12    1    1    2    0    0 -0.22537104512E+02  0.11036462333E+01  0.38986848103E+02  0.45045681700E+02  0.00000000000E+00 0. -1.
         11    1    3    3    0    0  0.32294058375E+01  0.33169217448E+00 -0.13987459373E+02  0.14359251434E+02  0.51100000000E-03 0. -1.
        -11    1    3    3    0    0  0.19348716967E+02 -0.14060632482E+01 -0.25068046853E+02  0.31697899542E+02  0.51100000000E-03 0.  1.
         12    1    3    3    0    0 -0.41018292520E-01 -0.29275159541E-01  0.68658122907E-01  0.85167324301E-01  0.00000000000E+00 0. -1.
</event>
<event>
 7    1  0.4452647E-009  0.4614232E+02  0.7816164E-02  0.1320468E+00
        -11   -1    0    0    0    0  0.00000000000E+00  0.00000000000E+00  0.45593999997E+02  0.45594000000E+02  0.51100000000E-03 0. -1.
         11   -1    0    0    0    0 -0.00000000000E+00 -0.00000000000E+00 -0.45593999997E+02  0.45594000000E+02  0.51100000000E-03 0.  1.
    9900012    2    1    2    0    0 -0.12324348096E+02 -0.11874561221E+01 -0.43310669452E+02  0.46142315452E+02  0.99999789445E+01 0.  0.
         12    1    1    2    0    0  0.12324348096E+02  0.11874561221E+01  0.43310669452E+02  0.45045684548E+02  0.00000000000E+00 0. -1.
         11    1    3    3    0    0 -0.35423270756E+01  0.33557833836E+00 -0.24251486047E+02  0.24511125427E+02  0.51100000000E-03 0. -1.
        -11    1    3    3    0    0 -0.79808241434E-02 -0.14557820685E+01 -0.26898449370E+01  0.30585341539E+01  0.51100000000E-03 0.  1.
        -12    1    3    3    0    0 -0.87740401961E+01 -0.67252391893E-01 -0.16369338467E+02  0.18572655871E+02  0.00000000000E+00 0.  1.
</event>
<event>
 7    1  0.4452647E-009  0.4614232E+02  0.7816164E-02  0.1320468E+00
        -11   -1    0    0    0    0  0.00000000000E+00  0.00000000000E+00  0.45593999997E+02  0.45594000000E+02  0.51100000000E-03 0. -1.
         11   -1    0    0    0    0 -0.00000000000E+00 -0.00000000000E+00 -0.45593999997E+02  0.45594000000E+02  0.51100000000E-03 0.  1.
    9900012    2    1    2    0    0  0.36339491529E+02 -0.60222726568E+01 -0.25928497056E+02  0.46142319052E+02  0.10000011768E+02 0.  0.
         12    1    1    2    0    0 -0.36339491529E+02  0.60222726568E+01  0.25928497056E+02  0.45045680948E+02  0.00000000000E+00 0. -1.
         11    1    3    3    0    0  0.64386378854E+01  0.12689506007E+01 -0.13361958315E+01  0.66971421523E+01  0.51100000000E-03 0. -1.
        -11    1    3    3    0    0  0.14349618541E+02 -0.38214088844E+01 -0.10664877497E+02  0.18282623729E+02  0.51100000000E-03 0.  1.
         12    1    3    3    0    0  0.15551235102E+02 -0.34698143731E+01 -0.13927423728E+02  0.21162553170E+02  0.00000000000E+00 0. -1.
</event>
<event>
 7    1  0.4452647E-009  0.4614232E+02  0.7816164E-02  0.1320468E+00
        -11   -1    0    0    0    0  0.00000000000E+00  0.00000000000E+00  0.45593999997E+02  0.45594000000E+02  0.51100000000E-03 0.  1.
         11   -1    0    0    0    0 -0.00000000000E+00 -0.00000000000E+00 -0.45593999997E+02  0.45594000000E+02  0.51100000000E-03 0. -1.
    9900012    2    1    2    0    0  0.26590179346E+02 -0.36246709961E+02 -0.28726040302E+01  0.46142317914E+02  0.10000001396E+02 0.  0.
        -12    1    1    2    0    0 -0.26590179346E+02  0.36246709961E+02  0.28726040302E+01  0.45045682086E+02  0.00000000000E+00 0.  1.
         11    1    3    3    0    0  0.28268380425E+00 -0.75929415852E+00  0.15056817255E+01  0.17098290768E+01  0.51100000000E-03 0. -1.
        -11    1    3    3    0    0  0.54526975210E+01 -0.61899067454E+01 -0.10822263050E+01  0.83197397680E+01  0.51100000000E-03 0.  1.
         12    1    3    3    0    0  0.20854798021E+02 -0.29297509057E+02 -0.32960594508E+01  0.36112749069E+02  0.00000000000E+00 0. -1.
</event>
<event>
 7    1  0.4452647E-009  0.4614232E+02  0.7816164E-02  0.1320468E+00
        -11   -1    0    0    0    0  0.00000000000E+00  0.00000000000E+00  0.45593999997E+02  0.45594000000E+02  0.51100000000E-03 0. -1.
         11   -1    0    0    0    0 -0.00000000000E+00 -0.00000000000E+00 -0.45593999997E+02  0.45594000000E+02  0.51100000000E-03 0.  1.
    9900012    2    1    2    0    0 -0.21487119460E+02 -0.58079241576E+01  0.39162293718E+02  0.46142317244E+02  0.99999952861E+01 0.  0.
        -12    1    1    2    0    0  0.21487119460E+02  0.58079241576E+01 -0.39162293718E+02  0.45045682756E+02  0.00000000000E+00 0.  1.
         11    1    3    3    0    0 -0.45721033859E+00  0.12189811779E+01  0.24644837669E+01  0.27872274583E+01  0.51100000000E-03 0. -1.
        -11    1    3    3    0    0 -0.66627072742E+01 -0.53942958956E+01  0.15101006511E+02  0.17364633435E+02  0.51100000000E-03 0.  1.
         12    1    3    3    0    0 -0.14367201847E+02 -0.16326094400E+01  0.21596803440E+02  0.25990456351E+02  0.00000000000E+00 0. -1.
</event>
<event>
 7    1  0.4452647E-009  0.4614232E+02  0.7816164E-02  0.1320468E+00
        -11   -1    0    0    0    0  0.00000000000E+00  0.00000000000E+00  0.45593999997E+02  0.45594000000E+02  0.51100000000E-03 0. -1.
         11   -1    0    0    0    0 -0.00000000000E+00 -0.00000000000E+00 -0.45593999997E+02  0.45594000000E+02  0.51100000000E-03 0.  1.
    9900012    2    1    2    0    0 -0.41168353801E+02 -0.75362707450E+01 -0.16657875678E+02  0.46142317038E+02  0.99999934028E+01 0.  0.
         12    1    1    2    0    0  0.41168353801E+02  0.75362707450E+01  0.16657875678E+02  0.45045682962E+02  0.00000000000E+00 0. -1.
         11    1    3    3    0    0 -0.18010988838E+02 -0.47114597403E+01 -0.89719148454E+01  0.20666127554E+02  0.51100000000E-03 0. -1.
        -11    1    3    3    0    0 -0.12939193838E+02 -0.48150680790E+00 -0.88158989654E+00  0.12978127252E+02  0.51100000000E-03 0.  1.
        -12    1    3    3    0    0 -0.10218171126E+02 -0.23433041968E+01 -0.68043709360E+01  0.12498062232E+02  0.00000000000E+00 0.  1.
</event>
<event>
 7    1  0.4452647E-009  0.4614232E+02  0.7816164E-02  0.1320468E+00
        -11   -1    0    0    0    0  0.00000000000E+00  0.00000000000E+00  0.45593999997E+02  0.45594000000E+02  0.51100000000E-03 0. -1.
         11   -1    0    0    0    0 -0.00000000000E+00 -0.00000000000E+00 -0.45593999997E+02  0.45594000000E+02  0.51100000000E-03 0.  1.
    9900012    2    1    2    0    0  0.96140475430E+01 -0.43561327010E+02 -0.62525544596E+01  0.46142316985E+02  0.99999929219E+01 0.  0.
         12    1    1    2    0    0 -0.96140475430E+01  0.43561327010E+02  0.62525544596E+01  0.45045683015E+02  0.00000000000E+00 0. -1.
         11    1    3    3    0    0  0.12497267096E+01 -0.93707666355E+00  0.11962980118E+01  0.19675006267E+01  0.51100000000E-03 0. -1.
        -11    1    3    3    0    0  0.30285257725E+01 -0.12097230695E+02 -0.33686283190E+01  0.12917531338E+02  0.51100000000E-03 0.  1.
         12    1    3    3    0    0  0.53357950609E+01 -0.30527019651E+02 -0.40802241524E+01  0.31257285020E+02  0.00000000000E+00 0. -1.
</event>
<event>
 7    1  0.4452647E-009  0.4614232E+02  0.7816164E-02  0.1320468E+00
        -11   -1    0    0    0    0  0.00000000000E+00  0.00000000000E+00  0.45593999997E+02  0.45594000000E+02  0.51100000000E-03 0. -1.
         11   -1    0    0    0    0 -0.00000000000E+00 -0.00000000000E+00 -0.45593999997E+02  0.45594000000E+02  0.51100000000E-03 0.  1.
    9900012    2    1    2    0    0  0.17018308945E+02  0.31444192582E+02  0.27399880396E+02  0.46142317275E+02  0.99999955674E+01 0.  0.
        -12    1    1    2    0    0 -0.17018308945E+02 -0.31444192582E+02 -0.27399880396E+02  0.45045682725E+02  0.00000000000E+00 0.  1.
         11    1    3    3    0    0  0.98965338785E+01  0.23992229654E+02  0.17857051429E+02  0.31503059416E+02  0.51100000000E-03 0. -1.
        -11    1    3    3    0    0  0.70797505155E+01  0.79038695364E+01  0.93621649878E+01  0.14150765157E+02  0.51100000000E-03 0.  1.
         12    1    3    3    0    0  0.42024550612E-01 -0.45190660911E+00  0.18066397976E+00  0.48849270188E+00  0.00000000000E+00 0. -1.
</event>
<event>
 7    1  0.4452647E-009  0.4614232E+02  0.7816164E-02  0.1320468E+00
        -11   -1    0    0    0    0  0.00000000000E+00  0.00000000000E+00  0.45593999997E+02  0.45594000000E+02  0.51100000000E-03 0. -1.
         11   -1    0    0    0    0 -0.00000000000E+00 -0.00000000000E+00 -0.45593999997E+02  0.45594000000E+02  0.51100000000E-03 0.  1.
    9900012    2    1    2    0    0  0.11713014098E+02  0.27527057995E+02 -0.33677587692E+02  0.46142317256E+02  0.99999953951E+01 0.  0.
         12    1    1    2    0    0 -0.11713014098E+02 -0.27527057995E+02  0.33677587692E+02  0.45045682744E+02  0.00000000000E+00 0. -1.
         11    1    3    3    0    0  0.36781716994E+01  0.30445513723E+01 -0.26740810373E+01  0.54725633632E+01  0.51100000000E-03 0. -1.
        -11    1    3    3    0    0  0.74669705456E+01  0.18049260191E+02 -0.20318491883E+02  0.28184615577E+02  0.51100000000E-03 0.  1.
        -12    1    3    3    0    0  0.56787185279E+00  0.64332464314E+01 -0.10685014772E+02  0.12485138316E+02  0.00000000000E+00 0.  1.
</event>
<event>
 7    1  0.4452647E-009  0.4614231E+02  0.7816164E-02  0.1320468E+00
        -11   -1    0    0    0    0  0.00000000000E+00  0.00000000000E+00  0.45593999997E+02  0.45594000000E+02  0.51100000000E-03 0. -1.
         11   -1    0    0    0    0 -0.00000000000E+00 -0.00000000000E+00 -0.45593999997E+02  0.45594000000E+02  0.51100000000E-03 0.  1.
    9900012    2    1    2    0    0  0.97502797014E+01  0.84379392170E+01  0.43160715950E+02  0.46142310153E+02  0.99999306254E+01 0.  0.
        -12    1    1    2    0    0 -0.97502797014E+01 -0.84379392170E+01 -0.43160715950E+02  0.45045689847E+02  0.00000000000E+00 0.  1.
         11    1    3    3    0    0 -0.39636838793E+00  0.22959910122E+01  0.11120838371E+02  0.11362294177E+02  0.51100000000E-03 0. -1.
        -11    1    3    3    0    0  0.11047938022E+02  0.58539234371E+01  0.30614051009E+02  0.33068799095E+02  0.51100000000E-03 0.  1.
        -12    1    3    3    0    0 -0.90128993227E+00  0.28802476776E+00  0.14258265693E+01  0.17112168812E+01  0.00000000000E+00 0.  1.
</event>
<event>
 7    1  0.4452647E-009  0.4614232E+02  0.7816164E-02  0.1320468E+00
        -11   -1    0    0    0    0  0.00000000000E+00  0.00000000000E+00  0.45593999997E+02  0.45594000000E+02  0.51100000000E-03 0.  1.
         11   -1    0    0    0    0 -0.00000000000E+00 -0.00000000000E+00 -0.45593999997E+02  0.45594000000E+02  0.51100000000E-03 0. -1.
    9900012    2    1    2    0    0  0.14841667615E+02  0.40825720456E+02 -0.11920526960E+02  0.46142317506E+02  0.99999976744E+01 0.  0.
         12    1    1    2    0    0 -0.14841667615E+02 -0.40825720456E+02  0.11920526960E+02  0.45045682494E+02  0.00000000000E+00 0. -1.
         11    1    3    3    0    0 -0.43448131190E+00  0.74505372816E+00  0.11947471339E+00  0.87072012524E+00  0.51100000000E-03 0. -1.
        -11    1    3    3    0    0  0.11807178824E+02  0.37231496107E+02 -0.98754456710E+01  0.40287941144E+02  0.51100000000E-03 0.  1.
        -12    1    3    3    0    0  0.34689701029E+01  0.28491706206E+01 -0.21645560021E+01  0.49836562368E+01  0.00000000000E+00 0.  1.
</event>
<event>
 7    1  0.4452647E-009  0.4614232E+02  0.7816164E-02  0.1320468E+00
        -11   -1    0    0    0    0  0.00000000000E+00  0.00000000000E+00  0.45593999997E+02  0.45594000000E+02  0.51100000000E-03 0. -1.
         11   -1    0    0    0    0 -0.00000000000E+00 -0.00000000000E+00 -0.45593999997E+02  0.45594000000E+02  0.51100000000E-03 0.  1.
    9900012    2    1    2    0    0 -0.33071709272E+02 -0.90759687740E+01 -0.29206204994E+02  0.46142316816E+02  0.99999913812E+01 0.  0.
         12    1    1    2    0    0  0.33071709272E+02  0.90759687740E+01  0.29206204994E+02  0.45045683184E+02  0.00000000000E+00 0. -1.
         11    1    3    3    0    0 -0.11207979461E+02 -0.58556512691E+01 -0.98843105659E+01  0.16050141775E+02  0.51100000000E-03 0. -1.
        -11    1    3    3    0    0 -0.19430655491E+02 -0.32197164287E+01 -0.19416664099E+02  0.27657255679E+02  0.51100000000E-03 0.  1.
        -12    1    3    3    0    0 -0.24330743203E+01 -0.60107622690E-03  0.94769670525E-01  0.24349193621E+01  0.00000000000E+00 0.  1.
</event>
<event>
 7    1  0.4452647E-009  0.4614232E+02  0.7816164E-02  0.1320468E+00
        -11   -1    0    0    0    0  0.00000000000E+00  0.00000000000E+00  0.45593999997E+02  0.45594000000E+02  0.51100000000E-03 0. -1.
         11   -1    0    0    0    0 -0.00000000000E+00 -0.00000000000E+00 -0.45593999997E+02  0.45594000000E+02  0.51100000000E-03 0.  1.
    9900012    2    1    2    0    0  0.16405263665E+02  0.21637310540E+02 -0.35941725224E+02  0.46142317683E+02  0.99999992850E+01 0.  0.
         12    1    1    2    0    0 -0.16405263665E+02 -0.21637310540E+02  0.35941725224E+02  0.45045682317E+02  0.00000000000E+00 0. -1.
         11    1    3    3    0    0  0.14255361129E+01  0.78613937768E+01 -0.12974763318E+02  0.15237393109E+02  0.51100000000E-03 0. -1.
        -11    1    3    3    0    0  0.53992717659E+01  0.44033562532E+01 -0.10494443434E+02  0.12596627531E+02  0.51100000000E-03 0.  1.
         12    1    3    3    0    0  0.95804557865E+01  0.93725605104E+01 -0.12472518472E+02  0.18308297043E+02  0.00000000000E+00 0. -1.
</event>
<event>
 7    1  0.4452647E-009  0.4614232E+02  0.7816164E-02  0.1320468E+00
        -11   -1    0    0    0    0  0.00000000000E+00  0.00000000000E+00  0.45593999997E+02  0.45594000000E+02  0.51100000000E-03 0. -1.
         11   -1    0    0    0    0 -0.00000000000E+00 -0.00000000000E+00 -0.45593999997E+02  0.45594000000E+02  0.51100000000E-03 0.  1.
    9900012    2    1    2    0    0 -0.22705225602E+02  0.27178791795E+02 -0.27837015514E+02  0.46142318455E+02  0.10000006331E+02 0.  0.
         12    1    1    2    0    0  0.22705225602E+02 -0.27178791795E+02  0.27837015514E+02  0.45045681545E+02  0.00000000000E+00 0. -1.
         11    1    3    3    0    0 -0.25867504267E+01  0.14474132368E+01 -0.39811292797E+01  0.49634336352E+01  0.51100000000E-03 0.  1.
        -11    1    3    3    0    0 -0.42033463658E+01  0.32574560089E+01 -0.73519791992E+01  0.90736287518E+01  0.51100000000E-03 0. -1.
        -12    1    3    3    0    0 -0.15915128810E+02  0.22473922550E+02 -0.16503907035E+02  0.32105256068E+02  0.00000000000E+00 0.  1.
</event>
<event>
 7    1  0.4452647E-009  0.4614232E+02  0.7816164E-02  0.1320468E+00
        -11   -1    0    0    0    0  0.00000000000E+00  0.00000000000E+00  0.45593999997E+02  0.45594000000E+02  0.51100000000E-03 0. -1.
         11   -1    0    0    0    0 -0.00000000000E+00 -0.00000000000E+00 -0.45593999997E+02  0.45594000000E+02  0.51100000000E-03 0.  1.
    9900012    2    1    2    0    0 -0.17057775438E+02 -0.10711671941E+02  0.40291511349E+02  0.46142317572E+02  0.99999982711E+01 0.  0.
        -12    1    1    2    0    0  0.17057775438E+02  0.10711671941E+02 -0.40291511349E+02  0.45045682428E+02  0.00000000000E+00 0.  1.
         11    1    3    3    0    0 -0.73049233940E+01 -0.71058188717E+01  0.22120075977E+02  0.24354718827E+02  0.51100000000E-03 0. -1.
        -11    1    3    3    0    0 -0.10343323242E+02 -0.34260766672E+01  0.18150683435E+02  0.21170017629E+02  0.51100000000E-03 0.  1.
        -12    1    3    3    0    0  0.59047119862E+00 -0.17977640228E+00  0.20751937193E-01  0.61758111541E+00  0.00000000000E+00 0.  1.
</event>
<event>
 7    1  0.4452647E-009  0.4614232E+02  0.7816164E-02  0.1320468E+00
        -11   -1    0    0    0    0  0.00000000000E+00  0.00000000000E+00  0.45593999997E+02  0.45594000000E+02  0.51100000000E-03 0. -1.
         11   -1    0    0    0    0 -0.00000000000E+00 -0.00000000000E+00 -0.45593999997E+02  0.45594000000E+02  0.51100000000E-03 0.  1.
    9900012    2    1    2    0    0  0.32510156135E+02 -0.27780880451E+02  0.14157184637E+02  0.46142318216E+02  0.10000004148E+02 0.  0.
        -12    1    1    2    0    0 -0.32510156135E+02  0.27780880451E+02 -0.14157184637E+02  0.45045681784E+02  0.00000000000E+00 0.  1.
         11    1    3    3    0    0  0.60927268377E+01 -0.87372502988E+01  0.62158470152E+01  0.12332786282E+02  0.51100000000E-03 0. -1.
        -11    1    3    3    0    0  0.17731206796E+02 -0.14104631247E+02  0.37114398236E+01  0.22958900297E+02  0.51100000000E-03 0.  1.
        -12    1    3    3    0    0  0.86862225014E+01 -0.49389989056E+01  0.42298977980E+01  0.10850631637E+02  0.00000000000E+00 0.  1.
</event>
<event>
 7    1  0.4463479E-009  0.4614232E+02  0.7816164E-02  0.1320468E+00
        -11   -1    0    0    0    0  0.00000000000E+00  0.00000000000E+00  0.45593999997E+02  0.45594000000E+02  0.51100000000E-03 0. -1.
         11   -1    0    0    0    0 -0.00000000000E+00 -0.00000000000E+00 -0.45593999997E+02  0.45594000000E+02  0.51100000000E-03 0.  1.
    9900012    2    1    2    0    0  0.11046394029E+02  0.20732101822E+01  0.43621009351E+02  0.46142317873E+02  0.10000001017E+02 0.  0.
        -12    1    1    2    0    0 -0.11046394029E+02 -0.20732101822E+01 -0.43621009351E+02  0.45045682127E+02  0.00000000000E+00 0.  1.
         11    1    3    3    0    0  0.15153630031E+01  0.28825750565E+01  0.40573940719E+01  0.52026926590E+01  0.51100000000E-03 0. -1.
        -11    1    3    3    0    0  0.52999969797E+01 -0.14299555340E+01  0.14315646947E+02  0.15332073852E+02  0.51100000000E-03 0.  1.
         12    1    3    3    0    0  0.42310340462E+01  0.62059065971E+00  0.25247968332E+02  0.25607551362E+02  0.00000000000E+00 0. -1.
</event>
<event>
 7    1  0.4452647E-009  0.4614232E+02  0.7816164E-02  0.1320468E+00
        -11   -1    0    0    0    0  0.00000000000E+00  0.00000000000E+00  0.45593999997E+02  0.45594000000E+02  0.51100000000E-03 0.  1.
         11   -1    0    0    0    0 -0.00000000000E+00 -0.00000000000E+00 -0.45593999997E+02  0.45594000000E+02  0.51100000000E-03 0. -1.
    9900012    2    1    2    0    0 -0.51729798381E+01 -0.44014506765E+02 -0.80670290764E+01  0.46142317807E+02  0.10000000414E+02 0.  0.
         12    1    1    2    0    0  0.51729798381E+01  0.44014506765E+02  0.80670290764E+01  0.45045682193E+02  0.00000000000E+00 0. -1.
         11    1    3    3    0    0 -0.31996169464E+01 -0.59313833159E+01 -0.33516633090E+01  0.75267857577E+01  0.51100000000E-03 0. -1.
        -11    1    3    3    0    0  0.94156039220E+00 -0.59543000421E+01 -0.12313056477E+00  0.60295427986E+01  0.51100000000E-03 0.  1.
         12    1    3    3    0    0 -0.29149232839E+01 -0.32128823407E+02 -0.45922352027E+01  0.32585989250E+02  0.00000000000E+00 0. -1.
</event>
<event>
 7    1  0.4452647E-009  0.4614232E+02  0.7816164E-02  0.1320468E+00
        -11   -1    0    0    0    0  0.00000000000E+00  0.00000000000E+00  0.45593999997E+02  0.45594000000E+02  0.51100000000E-03 0. -1.
         11   -1    0    0    0    0 -0.00000000000E+00 -0.00000000000E+00 -0.45593999997E+02  0.45594000000E+02  0.51100000000E-03 0.  1.
    9900012    2    1    2    0    0 -0.25091008320E+02 -0.60036471716E+01  0.36925750230E+02  0.46142317544E+02  0.99999980220E+01 0.  0.
        -12    1    1    2    0    0  0.25091008320E+02  0.60036471716E+01 -0.36925750230E+02  0.45045682456E+02  0.00000000000E+00 0.  1.
         11    1    3    3    0    0 -0.67093366142E+01 -0.46752811140E+01  0.14065234146E+02  0.16269734575E+02  0.51100000000E-03 0.  1.
        -11    1    3    3    0    0 -0.17002883502E+02 -0.23376101575E+01  0.22152211431E+02  0.28022900281E+02  0.51100000000E-03 0. -1.
         12    1    3    3    0    0 -0.13787882044E+01  0.10092440999E+01  0.70830465263E+00  0.18496826881E+01  0.00000000000E+00 0. -1.
</event>
<event>
 7    1  0.4452647E-009  0.4614232E+02  0.7816164E-02  0.1320468E+00
        -11   -1    0    0    0    0  0.00000000000E+00  0.00000000000E+00  0.45593999997E+02  0.45594000000E+02  0.51100000000E-03 0.  1.
         11   -1    0    0    0    0 -0.00000000000E+00 -0.00000000000E+00 -0.45593999997E+02  0.45594000000E+02  0.51100000000E-03 0. -1.
    9900012    2    1    2    0    0 -0.12080554500E+02  0.37733196484E+02  0.21433142645E+02  0.46142317437E+02  0.99999970448E+01 0.  0.
         12    1    1    2    0    0  0.12080554500E+02 -0.37733196484E+02 -0.21433142645E+02  0.45045682563E+02  0.00000000000E+00 0. -1.
         11    1    3    3    0    0 -0.45757882817E+01  0.59988077886E+01  0.11088171340E+01  0.76258120211E+01  0.51100000000E-03 0. -1.
        -11    1    3    3    0    0 -0.33436998112E+01  0.19752739848E+02  0.12371695955E+02  0.23545910919E+02  0.51100000000E-03 0.  1.
         12    1    3    3    0    0 -0.41610664067E+01  0.11981648848E+02  0.79526295555E+01  0.14970594497E+02  0.00000000000E+00 0. -1.
</event>
<event>
 7    1  0.4452647E-009  0.4614230E+02  0.7816164E-02  0.1320468E+00
        -11   -1    0    0    0    0  0.00000000000E+00  0.00000000000E+00  0.45593999997E+02  0.45594000000E+02  0.51100000000E-03 0. -1.
         11   -1    0    0    0    0 -0.00000000000E+00 -0.00000000000E+00 -0.45593999997E+02  0.45594000000E+02  0.51100000000E-03 0.  1.
    9900012    2    1    2    0    0  0.25198936910E+02  0.15287340217E+02 -0.34065020136E+02  0.46142303323E+02  0.99998683400E+01 0.  0.
         12    1    1    2    0    0 -0.25198936910E+02 -0.15287340217E+02  0.34065020136E+02  0.45045696677E+02  0.00000000000E+00 0. -1.
         11    1    3    3    0    0  0.90738867694E+01  0.42964422069E+01 -0.83146718650E+01  0.13035666658E+02  0.51100000000E-03 0. -1.
        -11    1    3    3    0    0  0.13559214085E+02  0.53112661482E+01 -0.17484974752E+02  0.22754915448E+02  0.51100000000E-03 0.  1.
        -12    1    3    3    0    0  0.25658360552E+01  0.56796318616E+01 -0.82653735189E+01  0.10351721217E+02  0.00000000000E+00 0.  1.
</event>
<event>
 7    1  0.4452647E-009  0.4614232E+02  0.7816164E-02  0.1320468E+00
        -11   -1    0    0    0    0  0.00000000000E+00  0.00000000000E+00  0.45593999997E+02  0.45594000000E+02  0.51100000000E-03 0. -1.
         11   -1    0    0    0    0 -0.00000000000E+00 -0.00000000000E+00 -0.45593999997E+02  0.45594000000E+02  0.51100000000E-03 0.  1.
    9900012    2    1    2    0    0  0.26999784991E+02  0.45461318122E+01 -0.35769510098E+02  0.46142317003E+02  0.99999930829E+01 0.  0.
         12    1    1    2    0    0 -0.26999784991E+02 -0.45461318122E+01  0.35769510098E+02  0.45045682997E+02  0.00000000000E+00 0. -1.
         11    1    3    3    0    0  0.11101765465E+02 -0.27065526581E+00 -0.90154631296E+01  0.14303881516E+02  0.51100000000E-03 0. -1.
        -11    1    3    3    0    0  0.12961785908E+02  0.26205258846E+01 -0.17898671328E+02  0.22253931909E+02  0.51100000000E-03 0.  1.
        -12    1    3    3    0    0  0.29362336177E+01  0.21962611934E+01 -0.88553756412E+01  0.95845035779E+01  0.00000000000E+00 0.  1.
</event>
<event>
 7    1  0.4452647E-009  0.4614232E+02  0.7816164E-02  0.1320468E+00
        -11   -1    0    0    0    0  0.00000000000E+00  0.00000000000E+00  0.45593999997E+02  0.45594000000E+02  0.51100000000E-03 0. -1.
         11   -1    0    0    0    0 -0.00000000000E+00 -0.00000000000E+00 -0.45593999997E+02  0.45594000000E+02  0.51100000000E-03 0.  1.
    9900012    2    1    2    0    0 -0.24346018004E+02  0.21159401387E+02 -0.31443038661E+02  0.46142317189E+02  0.99999947795E+01 0.  0.
         12    1    1    2    0    0  0.24346018004E+02 -0.21159401387E+02  0.31443038661E+02  0.45045682811E+02  0.00000000000E+00 0. -1.
         11    1    3    3    0    0 -0.87196528330E+00 -0.21227712243E+00 -0.76593126505E+00  0.11798457509E+01  0.51100000000E-03 0. -1.
        -11    1    3    3    0    0 -0.80582531858E+01  0.12810213486E+02 -0.12394682849E+02  0.19561829596E+02  0.51100000000E-03 0.  1.
        -12    1    3    3    0    0 -0.15415799535E+02  0.85614650237E+01 -0.18282424547E+02  0.25400641842E+02  0.00000000000E+00 0.  1.
</event>
<event>
 7    1  0.4452647E-009  0.4614232E+02  0.7816164E-02  0.1320468E+00
        -11   -1    0    0    0    0  0.00000000000E+00  0.00000000000E+00  0.45593999997E+02  0.45594000000E+02  0.51100000000E-03 0. -1.
         11   -1    0    0    0    0 -0.00000000000E+00 -0.00000000000E+00 -0.45593999997E+02  0.45594000000E+02  0.51100000000E-03 0.  1.
    9900012    2    1    2    0    0 -0.33784784594E+02 -0.24904359303E+02 -0.16354652945E+02  0.46142318128E+02  0.10000003344E+02 0.  0.
         12    1    1    2    0    0  0.33784784594E+02  0.24904359303E+02  0.16354652945E+02  0.45045681872E+02  0.00000000000E+00 0. -1.
         11    1    3    3    0    0 -0.18603123585E+01 -0.72655633806E+00 -0.22198905924E+01  0.29860610655E+01  0.51100000000E-03 0. -1.
        -11    1    3    3    0    0 -0.25818551766E+02 -0.18593163939E+02 -0.14293839669E+02  0.34880040329E+02  0.51100000000E-03 0.  1.
        -12    1    3    3    0    0 -0.61059204691E+01 -0.55846390264E+01  0.15907731674E+00  0.82762167337E+01  0.00000000000E+00 0.  1.
</event>
<event>
 7    1  0.4452647E-009  0.4614232E+02  0.7816164E-02  0.1320468E+00
        -11   -1    0    0    0    0  0.00000000000E+00  0.00000000000E+00  0.45593999997E+02  0.45594000000E+02  0.51100000000E-03 0. -1.
         11   -1    0    0    0    0 -0.00000000000E+00 -0.00000000000E+00 -0.45593999997E+02  0.45594000000E+02  0.51100000000E-03 0.  1.
    9900012    2    1    2    0    0  0.18026924943E+02 -0.23592006163E+02 -0.33875665835E+02  0.46142317482E+02  0.99999974588E+01 0.  0.
         12    1    1    2    0    0 -0.18026924943E+02  0.23592006163E+02  0.33875665835E+02  0.45045682518E+02  0.00000000000E+00 0. -1.
         11    1    3    3    0    0  0.58901646090E+01 -0.15125142525E+02 -0.15275122907E+02  0.22288861694E+02  0.51100000000E-03 0. -1.
        -11    1    3    3    0    0  0.82212126010E+01 -0.64590957881E+01 -0.14164668630E+02  0.17605285931E+02  0.51100000000E-03 0.  1.
        -12    1    3    3    0    0  0.39155477328E+01 -0.20077678500E+01 -0.44358742980E+01  0.62481698581E+01  0.00000000000E+00 0.  1.
</event>
<event>
 7    1  0.4452647E-009  0.4614232E+02  0.7816164E-02  0.1320468E+00
        -11   -1    0    0    0    0  0.00000000000E+00  0.00000000000E+00  0.45593999997E+02  0.45594000000E+02  0.51100000000E-03 0. -1.
         11   -1    0    0    0    0 -0.00000000000E+00 -0.00000000000E+00 -0.45593999997E+02  0.45594000000E+02  0.51100000000E-03 0.  1.
    9900012    2    1    2    0    0  0.40152403305E+02  0.57770377584E+01 -0.19583758605E+02  0.46142320323E+02  0.10000023363E+02 0.  0.
         12    1    1    2    0    0 -0.40152403305E+02 -0.57770377584E+01  0.19583758605E+02  0.45045679677E+02  0.00000000000E+00 0. -1.
         11    1    3    3    0    0  0.13302590685E+01  0.10150181558E+01  0.35182180281E+00  0.17098625349E+01  0.51100000000E-03 0. -1.
        -11    1    3    3    0    0  0.38131178893E+01 -0.15356020558E+01 -0.15718023720E+01  0.44009663336E+01  0.51100000000E-03 0.  1.
         12    1    3    3    0    0  0.35009026347E+02  0.62976216584E+01 -0.18363778036E+02  0.40031491455E+02  0.00000000000E+00 0. -1.
</event>
<event>
 7    1  0.4452647E-009  0.4614232E+02  0.7816164E-02  0.1320468E+00
        -11   -1    0    0    0    0  0.00000000000E+00  0.00000000000E+00  0.45593999997E+02  0.45594000000E+02  0.51100000000E-03 0. -1.
         11   -1    0    0    0    0 -0.00000000000E+00 -0.00000000000E+00 -0.45593999997E+02  0.45594000000E+02  0.51100000000E-03 0.  1.
    9900012    2    1    2    0    0 -0.99046651550E+01 -0.30114926601E+02  0.32001598410E+02  0.46142317668E+02  0.99999991474E+01 0.  0.
        -12    1    1    2    0    0  0.99046651550E+01  0.30114926601E+02 -0.32001598410E+02  0.45045682332E+02  0.00000000000E+00 0.  1.
         11    1    3    3    0    0 -0.56802371702E+01 -0.88531209626E+01  0.87580798878E+01  0.13687469038E+02  0.51100000000E-03 0. -1.
        -11    1    3    3    0    0 -0.54444045294E+00 -0.27223054378E+01  0.39895785606E+00  0.28047334874E+01  0.51100000000E-03 0.  1.
         12    1    3    3    0    0 -0.36799875319E+01 -0.18539500201E+02  0.22844560666E+02  0.29650115142E+02  0.00000000000E+00 0. -1.
</event>
<event>
 7    1  0.4452647E-009  0.4614232E+02  0.7816164E-02  0.1320468E+00
        -11   -1    0    0    0    0  0.00000000000E+00  0.00000000000E+00  0.45593999997E+02  0.45594000000E+02  0.51100000000E-03 0. -1.
         11   -1    0    0    0    0 -0.00000000000E+00 -0.00000000000E+00 -0.45593999997E+02  0.45594000000E+02  0.51100000000E-03 0.  1.
    9900012    2    1    2    0    0  0.16256095242E+02  0.24803932930E+02  0.33906013320E+02  0.46142318069E+02  0.10000002812E+02 0.  0.
        -12    1    1    2    0    0 -0.16256095242E+02 -0.24803932930E+02 -0.33906013320E+02  0.45045681931E+02  0.00000000000E+00 0.  1.
         11    1    3    3    0    0  0.84605400032E+01  0.13563684160E+02  0.12553290607E+02  0.20325830129E+02  0.51100000000E-03 0. -1.
        -11    1    3    3    0    0  0.63385749337E+01  0.10123232192E+02  0.20640715270E+02  0.23847358121E+02  0.51100000000E-03 0.  1.
        -12    1    3    3    0    0  0.14569803055E+01  0.11170165782E+01  0.71200744289E+00  0.19691298193E+01  0.00000000000E+00 0.  1.
</event>
<event>
 7    1  0.4452647E-009  0.4614232E+02  0.7816164E-02  0.1320468E+00
        -11   -1    0    0    0    0  0.00000000000E+00  0.00000000000E+00  0.45593999997E+02  0.45594000000E+02  0.51100000000E-03 0.  1.
         11   -1    0    0    0    0 -0.00000000000E+00 -0.00000000000E+00 -0.45593999997E+02  0.45594000000E+02  0.51100000000E-03 0. -1.
    9900012    2    1    2    0    0 -0.21920849145E+02 -0.38781563236E+02 -0.66768494708E+01  0.46142316599E+02  0.99999893988E+01 0.  0.
        -12    1    1    2    0    0  0.21920849145E+02  0.38781563236E+02  0.66768494708E+01  0.45045683401E+02  0.00000000000E+00 0.  1.
         11    1    3    3    0    0 -0.63658599747E+01 -0.13492497217E+02  0.89748665697E+00  0.14945806667E+02  0.51100000000E-03 0.  1.
        -11    1    3    3    0    0 -0.14753178306E+02 -0.24548589981E+02 -0.83782308171E+01  0.29840983431E+02  0.51100000000E-03 0. -1.
        -12    1    3    3    0    0 -0.80181086398E+00 -0.74047603751E+00  0.80389468933E+00  0.13555265011E+01  0.00000000000E+00 0.  1.
</event>
<event>
 7    1  0.4452647E-009  0.4614232E+02  0.7816164E-02  0.1320468E+00
        -11   -1    0    0    0    0  0.00000000000E+00  0.00000000000E+00  0.45593999997E+02  0.45594000000E+02  0.51100000000E-03 0.  1.
         11   -1    0    0    0    0 -0.00000000000E+00 -0.00000000000E+00 -0.45593999997E+02  0.45594000000E+02  0.51100000000E-03 0. -1.
    9900012    2    1    2    0    0  0.28226704847E+02 -0.34369234276E+02  0.71500016367E+01  0.46142315916E+02  0.99999831723E+01 0.  0.
        -12    1    1    2    0    0 -0.28226704847E+02  0.34369234276E+02 -0.71500016367E+01  0.45045684084E+02  0.00000000000E+00 0.  1.
         11    1    3    3    0    0  0.18542781871E+02 -0.20665038558E+02  0.52988202666E+01  0.28265811055E+02  0.51100000000E-03 0. -1.
        -11    1    3    3    0    0  0.40462496179E+01 -0.74925591613E+01  0.37035906608E+01  0.92858582156E+01  0.51100000000E-03 0.  1.
         12    1    3    3    0    0  0.56376733581E+01 -0.62116365568E+01 -0.18524092907E+01  0.85906466454E+01  0.00000000000E+00 0. -1.
</event>
<event>
 7    1  0.4452647E-009  0.4614232E+02  0.7816164E-02  0.1320468E+00
        -11   -1    0    0    0    0  0.00000000000E+00  0.00000000000E+00  0.45593999997E+02  0.45594000000E+02  0.51100000000E-03 0.  1.
         11   -1    0    0    0    0 -0.00000000000E+00 -0.00000000000E+00 -0.45593999997E+02  0.45594000000E+02  0.51100000000E-03 0. -1.
    9900012    2    1    2    0    0  0.34232608723E+02 -0.28515424644E+02 -0.66417300248E+01  0.46142317407E+02  0.99999967679E+01 0.  0.
         12    1    1    2    0    0 -0.34232608723E+02  0.28515424644E+02  0.66417300248E+01  0.45045682593E+02  0.00000000000E+00 0. -1.
         11    1    3    3    0    0  0.65544966434E+01 -0.65049580827E+01  0.15394097198E+01  0.93619276035E+01  0.51100000000E-03 0. -1.
        -11    1    3    3    0    0  0.14895630450E+02 -0.15561117286E+02 -0.48372676986E+01  0.22077756606E+02  0.51100000000E-03 0.  1.
        -12    1    3    3    0    0  0.12782481630E+02 -0.64493492747E+01 -0.33438720460E+01  0.14702633198E+02  0.00000000000E+00 0.  1.
</event>
<event>
 7    1  0.4452647E-009  0.4614232E+02  0.7816164E-02  0.1320468E+00
        -11   -1    0    0    0    0  0.00000000000E+00  0.00000000000E+00  0.45593999997E+02  0.45594000000E+02  0.51100000000E-03 0.  1.
         11   -1    0    0    0    0 -0.00000000000E+00 -0.00000000000E+00 -0.45593999997E+02  0.45594000000E+02  0.51100000000E-03 0. -1.
    9900012    2    1    2    0    0 -0.32457966647E+02 -0.28319265642E+02  0.13176232913E+02  0.46142317419E+02  0.99999968846E+01 0.  0.
        -12    1    1    2    0    0  0.32457966647E+02  0.28319265642E+02 -0.13176232913E+02  0.45045682581E+02  0.00000000000E+00 0.  1.
         11    1    3    3    0    0 -0.22191208425E+01 -0.13140585939E+01 -0.11339220910E+01  0.28172729494E+01  0.51100000000E-03 0. -1.
        -11    1    3    3    0    0 -0.64484755211E+01 -0.45414567654E+01  0.48734494609E+01  0.92713632227E+01  0.51100000000E-03 0.  1.
         12    1    3    3    0    0 -0.23790370284E+02 -0.22463750282E+02  0.94367055434E+01  0.34053681247E+02  0.00000000000E+00 0. -1.
</event>
<event>
 7    1  0.4452647E-009  0.4614232E+02  0.7816164E-02  0.1320468E+00
        -11   -1    0    0    0    0  0.00000000000E+00  0.00000000000E+00  0.45593999997E+02  0.45594000000E+02  0.51100000000E-03 0. -1.
         11   -1    0    0    0    0 -0.00000000000E+00 -0.00000000000E+00 -0.45593999997E+02  0.45594000000E+02  0.51100000000E-03 0.  1.
    9900012    2    1    2    0    0 -0.26241218299E+02  0.30507894961E+02  0.20243035211E+02  0.46142315775E+02  0.99999818892E+01 0.  0.
        -12    1    1    2    0    0  0.26241218299E+02 -0.30507894961E+02 -0.20243035211E+02  0.45045684225E+02  0.00000000000E+00 0.  1.
         11    1    3    3    0    0 -0.27125951621E+02  0.29799261263E+02  0.19874700913E+02  0.44931247031E+02  0.51100000000E-03 0. -1.
        -11    1    3    3    0    0  0.16586122430E+00  0.23662439807E+00  0.45698826687E-01  0.29255716599E+00  0.51100000000E-03 0.  1.
         12    1    3    3    0    0  0.71887209731E+00  0.47200930010E+00  0.32263547061E+00  0.91851157781E+00  0.00000000000E+00 0. -1.
</event>
<event>
 7    1  0.4452647E-009  0.4614232E+02  0.7816164E-02  0.1320468E+00
        -11   -1    0    0    0    0  0.00000000000E+00  0.00000000000E+00  0.45593999997E+02  0.45594000000E+02  0.51100000000E-03 0. -1.
         11   -1    0    0    0    0 -0.00000000000E+00 -0.00000000000E+00 -0.45593999997E+02  0.45594000000E+02  0.51100000000E-03 0.  1.
    9900012    2    1    2    0    0  0.20928660009E+02  0.73647834697E+01 -0.39202865100E+02  0.46142317883E+02  0.10000001107E+02 0.  0.
         12    1    1    2    0    0 -0.20928660009E+02 -0.73647834697E+01  0.39202865100E+02  0.45045682117E+02  0.00000000000E+00 0. -1.
         11    1    3    3    0    0  0.26742848229E+01 -0.15805059715E+01 -0.10375241786E+02  0.10830301972E+02  0.51100000000E-03 0. -1.
        -11    1    3    3    0    0  0.11461444229E+02  0.47714719730E+01 -0.17132253512E+02  0.21157640683E+02  0.51100000000E-03 0.  1.
         12    1    3    3    0    0  0.67929309575E+01  0.41738174681E+01 -0.11695369802E+02  0.14154375227E+02  0.00000000000E+00 0. -1.
</event>
<event>
 7    1  0.4452647E-009  0.4614232E+02  0.7816164E-02  0.1320468E+00
        -11   -1    0    0    0    0  0.00000000000E+00  0.00000000000E+00  0.45593999997E+02  0.45594000000E+02  0.51100000000E-03 0. -1.
         11   -1    0    0    0    0 -0.00000000000E+00 -0.00000000000E+00 -0.45593999997E+02  0.45594000000E+02  0.51100000000E-03 0.  1.
    9900012    2    1    2    0    0 -0.98264142674E+01  0.78201218580E+01  0.43259690121E+02  0.46142317493E+02  0.99999975517E+01 0.  0.
        -12    1    1    2    0    0  0.98264142674E+01 -0.78201218580E+01 -0.43259690121E+02  0.45045682507E+02  0.00000000000E+00 0.  1.
         11    1    3    3    0    0 -0.60159420332E+01  0.30175973129E+01  0.30379387790E+02  0.31115987126E+02  0.51100000000E-03 0. -1.
        -11    1    3    3    0    0  0.51463592566E+00  0.11769106693E+01  0.42659949800E+00  0.13534977844E+01  0.51100000000E-03 0.  1.
         12    1    3    3    0    0 -0.43251081599E+01  0.36256138758E+01  0.12453702833E+02  0.13672832582E+02  0.00000000000E+00 0. -1.
</event>
<event>
 7    1  0.4452647E-009  0.4614232E+02  0.7816164E-02  0.1320468E+00
        -11   -1    0    0    0    0  0.00000000000E+00  0.00000000000E+00  0.45593999997E+02  0.45594000000E+02  0.51100000000E-03 0. -1.
         11   -1    0    0    0    0 -0.00000000000E+00 -0.00000000000E+00 -0.45593999997E+02  0.45594000000E+02  0.51100000000E-03 0.  1.
    9900012    2    1    2    0    0  0.17404318543E+01 -0.17327822190E+02 -0.41543121980E+02  0.46142317535E+02  0.99999979400E+01 0.  0.
         12    1    1    2    0    0 -0.17404318543E+01  0.17327822190E+02  0.41543121980E+02  0.45045682465E+02  0.00000000000E+00 0. -1.
         11    1    3    3    0    0  0.20061665597E+01 -0.45200086537E+01 -0.40953438693E+01  0.64208273738E+01  0.51100000000E-03 0. -1.
        -11    1    3    3    0    0  0.56930694494E+00 -0.60112857814E+01 -0.22203188293E+02  0.23009590127E+02  0.51100000000E-03 0.  1.
         12    1    3    3    0    0 -0.83504165029E+00 -0.67965277546E+01 -0.15244589817E+02  0.16711900035E+02  0.00000000000E+00 0. -1.
</event>
<event>
 7    1  0.4452647E-009  0.4614232E+02  0.7816164E-02  0.1320468E+00
        -11   -1    0    0    0    0  0.00000000000E+00  0.00000000000E+00  0.45593999997E+02  0.45594000000E+02  0.51100000000E-03 0. -1.
         11   -1    0    0    0    0 -0.00000000000E+00 -0.00000000000E+00 -0.45593999997E+02  0.45594000000E+02  0.51100000000E-03 0.  1.
    9900012    2    1    2    0    0  0.19146123738E+02  0.80247257515E+01 -0.39976777932E+02  0.46142322611E+02  0.10000044229E+02 0.  0.
         12    1    1    2    0    0 -0.19146123738E+02 -0.80247257515E+01  0.39976777932E+02  0.45045677389E+02  0.00000000000E+00 0. -1.
         11    1    3    3    0    0  0.28258929854E+01  0.25995957225E+01 -0.76896056191E+01  0.85949755045E+01  0.51100000000E-03 0. -1.
        -11    1    3    3    0    0  0.72854466670E+01 -0.18527919769E+01 -0.11424371086E+02  0.13675775160E+02  0.51100000000E-03 0.  1.
        -12    1    3    3    0    0  0.90347840853E+01  0.72779220059E+01 -0.20862801227E+02  0.23871571947E+02  0.00000000000E+00 0.  1.
</event>
<event>
 7    1  0.4452647E-009  0.4614232E+02  0.7816164E-02  0.1320468E+00
        -11   -1    0    0    0    0  0.00000000000E+00  0.00000000000E+00  0.45593999997E+02  0.45594000000E+02  0.51100000000E-03 0. -1.
         11   -1    0    0    0    0 -0.00000000000E+00 -0.00000000000E+00 -0.45593999997E+02  0.45594000000E+02  0.51100000000E-03 0.  1.
    9900012    2    1    2    0    0  0.14618701818E+02 -0.17183321858E+02 -0.38988980116E+02  0.46142316929E+02  0.99999924087E+01 0.  0.
         12    1    1    2    0    0 -0.14618701818E+02  0.17183321858E+02  0.38988980116E+02  0.45045683071E+02  0.00000000000E+00 0. -1.
         11    1    3    3    0    0  0.53248002192E+01 -0.16442496888E+01 -0.65576203947E+01  0.86057794485E+01  0.51100000000E-03 0. -1.
        -11    1    3    3    0    0  0.10654478385E+01 -0.67914904550E+01 -0.11078504719E+02  0.13038128269E+02  0.51100000000E-03 0.  1.
         12    1    3    3    0    0  0.82284537605E+01 -0.87475817139E+01 -0.21352855002E+02  0.24498409211E+02  0.00000000000E+00 0. -1.
</event>
<event>
 7    1  0.4452647E-009  0.4614232E+02  0.7816164E-02  0.1320468E+00
        -11   -1    0    0    0    0  0.00000000000E+00  0.00000000000E+00  0.45593999997E+02  0.45594000000E+02  0.51100000000E-03 0.  1.
         11   -1    0    0    0    0 -0.00000000000E+00 -0.00000000000E+00 -0.45593999997E+02  0.45594000000E+02  0.51100000000E-03 0. -1.
    9900012    2    1    2    0    0  0.38741934446E+02 -0.22580748565E+02  0.42761894404E+01  0.46142317782E+02  0.10000000190E+02 0.  0.
        -12    1    1    2    0    0 -0.38741934446E+02  0.22580748565E+02 -0.42761894404E+01  0.45045682218E+02  0.00000000000E+00 0.  1.
         11    1    3    3    0    0  0.13894890624E+02 -0.81880323146E+01  0.40685020056E+01  0.16633236830E+02  0.51100000000E-03 0. -1.
        -11    1    3    3    0    0  0.23122867658E+02 -0.14638299359E+02 -0.10075428448E+01  0.27385433349E+02  0.51100000000E-03 0.  1.
        -12    1    3    3    0    0  0.17241761644E+01  0.24558310852E+00  0.12152302796E+01  0.21236476030E+01  0.00000000000E+00 0.  1.
</event>
<event>
 7    1  0.4452647E-009  0.4614231E+02  0.7816164E-02  0.1320468E+00
        -11   -1    0    0    0    0  0.00000000000E+00  0.00000000000E+00  0.45593999997E+02  0.45594000000E+02  0.51100000000E-03 0. -1.
         11   -1    0    0    0    0 -0.00000000000E+00 -0.00000000000E+00 -0.45593999997E+02  0.45594000000E+02  0.51100000000E-03 0.  1.
    9900012    2    1    2    0    0 -0.37956728461E+02  0.16423055209E+02 -0.17851717407E+02  0.46142314389E+02  0.99999692471E+01 0.  0.
         12    1    1    2    0    0  0.37956728461E+02 -0.16423055209E+02  0.17851717407E+02  0.45045685611E+02  0.00000000000E+00 0. -1.
         11    1    3    3    0    0 -0.14346554323E+02  0.54813124901E+01 -0.11164069423E+02  0.18986965368E+02  0.51100000000E-03 0. -1.
        -11    1    3    3    0    0 -0.15137951309E+02  0.78953756989E+01 -0.61099543470E+01  0.18133561968E+02  0.51100000000E-03 0.  1.
        -12    1    3    3    0    0 -0.84722228296E+01  0.30463670196E+01 -0.57769363664E+00  0.90217870530E+01  0.00000000000E+00 0.  1.
</event>
<event>
 7    1  0.4452647E-009  0.4614231E+02  0.7816164E-02  0.1320468E+00
        -11   -1    0    0    0    0  0.00000000000E+00  0.00000000000E+00  0.45593999997E+02  0.45594000000E+02  0.51100000000E-03 0. -1.
         11   -1    0    0    0    0 -0.00000000000E+00 -0.00000000000E+00 -0.45593999997E+02  0.45594000000E+02  0.51100000000E-03 0.  1.
    9900012    2    1    2    0    0  0.47301446097E+00  0.22015633431E+02 -0.39296335062E+02  0.46142314220E+02  0.99999677079E+01 0.  0.
         12    1    1    2    0    0 -0.47301446097E+00 -0.22015633431E+02  0.39296335062E+02  0.45045685780E+02  0.00000000000E+00 0. -1.
         11    1    3    3    0    0  0.50298253411E+00  0.13301245102E+02 -0.15984281163E+02  0.20800801842E+02  0.51100000000E-03 0. -1.
        -11    1    3    3    0    0 -0.20521849600E+01  0.69429909636E+01 -0.16523556443E+02  0.18040080499E+02  0.51100000000E-03 0.  1.
        -12    1    3    3    0    0  0.20222168869E+01  0.17713973652E+01 -0.67884974571E+01  0.73014318793E+01  0.00000000000E+00 0.  1.
</event>
<event>
 7    1  0.4452647E-009  0.4614232E+02  0.7816164E-02  0.1320468E+00
        -11   -1    0    0    0    0  0.00000000000E+00  0.00000000000E+00  0.45593999997E+02  0.45594000000E+02  0.51100000000E-03 0. -1.
         11   -1    0    0    0    0 -0.00000000000E+00 -0.00000000000E+00 -0.45593999997E+02  0.45594000000E+02  0.51100000000E-03 0.  1.
    9900012    2    1    2    0    0  0.83399915895E+01  0.19448595261E+02  0.39765691594E+02  0.46142317129E+02  0.99999942385E+01 0.  0.
        -12    1    1    2    0    0 -0.83399915895E+01 -0.19448595261E+02 -0.39765691594E+02  0.45045682871E+02  0.00000000000E+00 0.  1.
         11    1    3    3    0    0  0.77257408910E+01  0.91218763265E+01  0.14246238206E+02  0.18597069751E+02  0.51100000000E-03 0. -1.
        -11    1    3    3    0    0  0.89451341130E-01  0.13527719489E+01  0.40084583209E+01  0.42315164964E+01  0.51100000000E-03 0.  1.
         12    1    3    3    0    0  0.52479935734E+00  0.89739469857E+01  0.21510995067E+02  0.23313730882E+02  0.00000000000E+00 0. -1.
</event>
<event>
 7    1  0.4452647E-009  0.4614232E+02  0.7816164E-02  0.1320468E+00
        -11   -1    0    0    0    0  0.00000000000E+00  0.00000000000E+00  0.45593999997E+02  0.45594000000E+02  0.51100000000E-03 0. -1.
         11   -1    0    0    0    0 -0.00000000000E+00 -0.00000000000E+00 -0.45593999997E+02  0.45594000000E+02  0.51100000000E-03 0.  1.
    9900012    2    1    2    0    0  0.12964374463E+02 -0.29729899382E+02  0.31259743599E+02  0.46142317717E+02  0.99999995961E+01 0.  0.
        -12    1    1    2    0    0 -0.12964374463E+02  0.29729899382E+02 -0.31259743599E+02  0.45045682283E+02  0.00000000000E+00 0.  1.
         11    1    3    3    0    0  0.17845104886E+01 -0.96274398715E+01  0.66432099229E+01  0.11832341886E+02  0.51100000000E-03 0.  1.
        -11    1    3    3    0    0  0.90323923058E+01 -0.12524637060E+02  0.12541227806E+02  0.19893039974E+02  0.51100000000E-03 0. -1.
        -12    1    3    3    0    0  0.21474716691E+01 -0.75778224500E+01  0.12075305870E+02  0.14416935857E+02  0.00000000000E+00 0.  1.
</event>
<event>
 7    1  0.4452647E-009  0.4614232E+02  0.7816164E-02  0.1320468E+00
        -11   -1    0    0    0    0  0.00000000000E+00  0.00000000000E+00  0.45593999997E+02  0.45594000000E+02  0.51100000000E-03 0. -1.
         11   -1    0    0    0    0 -0.00000000000E+00 -0.00000000000E+00 -0.45593999997E+02  0.45594000000E+02  0.51100000000E-03 0.  1.
    9900012    2    1    2    0    0 -0.31925291566E+02  0.11561850593E+02  0.29600893570E+02  0.46142317289E+02  0.99999956937E+01 0.  0.
        -12    1    1    2    0    0  0.31925291566E+02 -0.11561850593E+02 -0.29600893570E+02  0.45045682711E+02  0.00000000000E+00 0.  1.
         11    1    3    3    0    0 -0.15180100194E+02  0.63578160925E+01  0.12080327012E+02  0.20415473748E+02  0.51100000000E-03 0. -1.
        -11    1    3    3    0    0 -0.75350277903E+01  0.49335905776E+01  0.11934876090E+02  0.14951863674E+02  0.51100000000E-03 0.  1.
         12    1    3    3    0    0 -0.92101635818E+01  0.27044392299E+00  0.55856904687E+01  0.10774979867E+02  0.00000000000E+00 0. -1.
</event>
<event>
 7    1  0.4452647E-009  0.4614232E+02  0.7816164E-02  0.1320468E+00
        -11   -1    0    0    0    0  0.00000000000E+00  0.00000000000E+00  0.45593999997E+02  0.45594000000E+02  0.51100000000E-03 0. -1.
         11   -1    0    0    0    0 -0.00000000000E+00 -0.00000000000E+00 -0.45593999997E+02  0.45594000000E+02  0.51100000000E-03 0.  1.
    9900012    2    1    2    0    0 -0.30303069347E+01 -0.35412074672E+02 -0.27675184519E+02  0.46142316180E+02  0.99999855815E+01 0.  0.
         12    1    1    2    0    0  0.30303069347E+01  0.35412074672E+02  0.27675184519E+02  0.45045683820E+02  0.00000000000E+00 0. -1.
         11    1    3    3    0    0 -0.55138166133E+01 -0.21713280487E+02 -0.13521299121E+02  0.26166663015E+02  0.51100000000E-03 0. -1.
        -11    1    3    3    0    0 -0.31925456724E+00 -0.16860509117E+01 -0.12407163990E+01  0.21175619470E+01  0.51100000000E-03 0.  1.
         12    1    3    3    0    0  0.28027642459E+01 -0.12012743273E+02 -0.12913168999E+02  0.17858091218E+02  0.00000000000E+00 0. -1.
</event>
<event>
 7    1  0.4452647E-009  0.4614232E+02  0.7816164E-02  0.1320468E+00
        -11   -1    0    0    0    0  0.00000000000E+00  0.00000000000E+00  0.45593999997E+02  0.45594000000E+02  0.51100000000E-03 0. -1.
         11   -1    0    0    0    0 -0.00000000000E+00 -0.00000000000E+00 -0.45593999997E+02  0.45594000000E+02  0.51100000000E-03 0.  1.
    9900012    2    1    2    0    0 -0.15531909245E+01  0.26913414527E+00  0.45018093086E+02  0.46142317184E+02  0.99999947374E+01 0.  0.
        -12    1    1    2    0    0  0.15531909245E+01 -0.26913414527E+00 -0.45018093086E+02  0.45045682816E+02  0.00000000000E+00 0.  1.
         11    1    3    3    0    0  0.69110946569E+00 -0.33836327021E+01  0.10842744063E+02  0.11379442061E+02  0.51100000000E-03 0. -1.
        -11    1    3    3    0    0 -0.28993356918E+01  0.39996264927E+00  0.19400081903E+02  0.19619615075E+02  0.51100000000E-03 0.  1.
         12    1    3    3    0    0  0.65503530165E+00  0.32528041981E+01  0.14775267120E+02  0.15143260048E+02  0.00000000000E+00 0. -1.
</event>
<event>
 7    1  0.4452647E-009  0.4614232E+02  0.7816164E-02  0.1320468E+00
        -11   -1    0    0    0    0  0.00000000000E+00  0.00000000000E+00  0.45593999997E+02  0.45594000000E+02  0.51100000000E-03 0.  1.
         11   -1    0    0    0    0 -0.00000000000E+00 -0.00000000000E+00 -0.45593999997E+02  0.45594000000E+02  0.51100000000E-03 0. -1.
    9900012    2    1    2    0    0 -0.43424415653E+02  0.32368725289E+01 -0.11530661823E+02  0.46142318957E+02  0.10000010906E+02 0.  0.
         12    1    1    2    0    0  0.43424415653E+02 -0.32368725289E+01  0.11530661823E+02  0.45045681043E+02  0.00000000000E+00 0. -1.
         11    1    3    3    0    0 -0.27150837312E+02  0.22404355059E+01 -0.10800279202E+02  0.29305862026E+02  0.51100000000E-03 0. -1.
        -11    1    3    3    0    0 -0.26114731198E+01 -0.87045855043E+00  0.10223450128E+01  0.29364399414E+01  0.51100000000E-03 0.  1.
         12    1    3    3    0    0 -0.13662105221E+02  0.18668955735E+01 -0.17527276338E+01  0.13900016989E+02  0.00000000000E+00 0. -1.
</event>
<event>
 7    1  0.4452647E-009  0.4614232E+02  0.7816164E-02  0.1320468E+00
        -11   -1    0    0    0    0  0.00000000000E+00  0.00000000000E+00  0.45593999997E+02  0.45594000000E+02  0.51100000000E-03 0. -1.
         11   -1    0    0    0    0 -0.00000000000E+00 -0.00000000000E+00 -0.45593999997E+02  0.45594000000E+02  0.51100000000E-03 0.  1.
    9900012    2    1    2    0    0 -0.67971289574E+01  0.18176354419E+02  0.40651354097E+02  0.46142318610E+02  0.10000007737E+02 0.  0.
        -12    1    1    2    0    0  0.67971289574E+01 -0.18176354419E+02 -0.40651354097E+02  0.45045681390E+02  0.00000000000E+00 0.  1.
         11    1    3    3    0    0 -0.75192421263E+01  0.11067538860E+02  0.24488971448E+02  0.27905897968E+02  0.51100000000E-03 0. -1.
        -11    1    3    3    0    0 -0.12382645708E+01  0.60178381698E+01  0.10831311754E+02  0.12452509384E+02  0.51100000000E-03 0.  1.
        -12    1    3    3    0    0  0.19603777397E+01  0.10909773891E+01  0.53310708955E+01  0.57839112578E+01  0.00000000000E+00 0.  1.
</event>
<event>
 7    1  0.4452647E-009  0.4614232E+02  0.7816164E-02  0.1320468E+00
        -11   -1    0    0    0    0  0.00000000000E+00  0.00000000000E+00  0.45593999997E+02  0.45594000000E+02  0.51100000000E-03 0. -1.
         11   -1    0    0    0    0 -0.00000000000E+00 -0.00000000000E+00 -0.45593999997E+02  0.45594000000E+02  0.51100000000E-03 0.  1.
    9900012    2    1    2    0    0 -0.37202990689E+02  0.21417275833E+01  0.25307390904E+02  0.46142317103E+02  0.99999940020E+01 0.  0.
        -12    1    1    2    0    0  0.37202990689E+02 -0.21417275833E+01 -0.25307390904E+02  0.45045682897E+02  0.00000000000E+00 0.  1.
         11    1    3    3    0    0 -0.14989956506E+02  0.31694880702E+01  0.10899643547E+02  0.18802837031E+02  0.51100000000E-03 0. -1.
        -11    1    3    3    0    0 -0.92449360712E+01 -0.33025003951E+00  0.10005630079E+02  0.13626831678E+02  0.51100000000E-03 0.  1.
         12    1    3    3    0    0 -0.12968098112E+02 -0.69751044739E+00  0.44021172778E+01  0.13712648395E+02  0.00000000000E+00 0. -1.
</event>
<event>
 7    1  0.4452647E-009  0.4614232E+02  0.7816164E-02  0.1320468E+00
        -11   -1    0    0    0    0  0.00000000000E+00  0.00000000000E+00  0.45593999997E+02  0.45594000000E+02  0.51100000000E-03 0. -1.
         11   -1    0    0    0    0 -0.00000000000E+00 -0.00000000000E+00 -0.45593999997E+02  0.45594000000E+02  0.51100000000E-03 0.  1.
    9900012    2    1    2    0    0  0.13176464104E+01 -0.94788752687E+01 -0.44017362577E+02  0.46142317891E+02  0.10000001185E+02 0.  0.
         12    1    1    2    0    0 -0.13176464104E+01  0.94788752687E+01  0.44017362577E+02  0.45045682109E+02  0.00000000000E+00 0. -1.
         11    1    3    3    0    0 -0.27739211236E+01 -0.51269818731E+01 -0.10519362874E+02  0.12026536370E+02  0.51100000000E-03 0. -1.
        -11    1    3    3    0    0  0.11146302690E+01 -0.17195155578E+00 -0.10033600194E+02  0.10096786671E+02  0.51100000000E-03 0.  1.
         12    1    3    3    0    0  0.29769372651E+01 -0.41799418399E+01 -0.23464399509E+02  0.24018994849E+02  0.00000000000E+00 0. -1.
</event>
<event>
 7    1  0.4452647E-009  0.4614231E+02  0.7816164E-02  0.1320468E+00
        -11   -1    0    0    0    0  0.00000000000E+00  0.00000000000E+00  0.45593999997E+02  0.45594000000E+02  0.51100000000E-03 0. -1.
         11   -1    0    0    0    0 -0.00000000000E+00 -0.00000000000E+00 -0.45593999997E+02  0.45594000000E+02  0.51100000000E-03 0.  1.
    9900012    2    1    2    0    0 -0.17550699056E+02  0.19250220442E+02  0.36749370376E+02  0.46142309335E+02  0.99999231655E+01 0.  0.
        -12    1    1    2    0    0  0.17550699056E+02 -0.19250220442E+02 -0.36749370376E+02  0.45045690665E+02  0.00000000000E+00 0.  1.
         11    1    3    3    0    0 -0.48206064678E+01  0.22950229340E+01  0.40932834405E+01  0.67275810341E+01  0.51100000000E-03 0. -1.
        -11    1    3    3    0    0 -0.67665505545E+01  0.11700547886E+02  0.24771692262E+02  0.28219244586E+02  0.51100000000E-03 0.  1.
         12    1    3    3    0    0 -0.59635420339E+01  0.52546496220E+01  0.78843946742E+01  0.11195483715E+02  0.00000000000E+00 0. -1.
</event>
<event>
 7    1  0.4452647E-009  0.4614232E+02  0.7816164E-02  0.1320468E+00
        -11   -1    0    0    0    0  0.00000000000E+00  0.00000000000E+00  0.45593999997E+02  0.45594000000E+02  0.51100000000E-03 0. -1.
         11   -1    0    0    0    0 -0.00000000000E+00 -0.00000000000E+00 -0.45593999997E+02  0.45594000000E+02  0.51100000000E-03 0.  1.
    9900012    2    1    2    0    0  0.30240541507E+02  0.18091600424E+02 -0.28059173664E+02  0.46142316708E+02  0.99999903951E+01 0.  0.
         12    1    1    2    0    0 -0.30240541507E+02 -0.18091600424E+02  0.28059173664E+02  0.45045683292E+02  0.00000000000E+00 0. -1.
         11    1    3    3    0    0  0.13634825007E+01  0.30285217818E+01 -0.14041212877E+01  0.36059098109E+01  0.51100000000E-03 0. -1.
        -11    1    3    3    0    0  0.25548377337E+02  0.10852681272E+02 -0.22917552717E+02  0.35996034478E+02  0.51100000000E-03 0.  1.
        -12    1    3    3    0    0  0.33286816691E+01  0.42103973706E+01 -0.37374996591E+01  0.65403724186E+01  0.00000000000E+00 0.  1.
</event>
