<event>
 7    1  0.2873608E-013  0.7246162E+02  0.7816164E-02  0.1226708E+00
        -11   -1    0    0    0    0  0.00000000000E+00  0.00000000000E+00  0.45593999997E+02  0.45594000000E+02  0.51100000000E-03 0.  1.
         11   -1    0    0    0    0 -0.00000000000E+00 -0.00000000000E+00 -0.45593999997E+02  0.45594000000E+02  0.51100000000E-03 0. -1.
    9900012    2    1    2    0    0 -0.16908441366E+02  0.78509347590E+01  0.17733818627E+01  0.72461616226E+02  0.70000059834E+02 0.  0.
         12    1    1    2    0    0  0.16908441366E+02 -0.78509347590E+01 -0.17733818627E+01  0.18726383774E+02  0.00000000000E+00 0. -1.
         11    1    3    3    0    0 -0.25027359801E+02  0.73873109365E+01  0.62566183312E+01  0.26834425179E+02  0.51100000000E-03 0.  1.
        -11    1    3    3    0    0  0.16013092058E+02  0.41559139410E+01  0.16217502626E+02  0.23166746203E+02  0.51100000000E-03 0. -1.
         12    1    3    3    0    0 -0.78941736231E+01 -0.36922901185E+01 -0.20700739095E+02  0.22460444844E+02  0.00000000000E+00 0. -1.
</event>
<event>
 7    1  0.2873608E-013  0.7246134E+02  0.7816164E-02  0.1226709E+00
        -11   -1    0    0    0    0  0.00000000000E+00  0.00000000000E+00  0.45593999997E+02  0.45594000000E+02  0.51100000000E-03 0.  1.
         11   -1    0    0    0    0 -0.00000000000E+00 -0.00000000000E+00 -0.45593999997E+02  0.45594000000E+02  0.51100000000E-03 0. -1.
    9900012    2    1    2    0    0  0.16548349088E+02 -0.15769320559E+01  0.86228409440E+01  0.72461335637E+02  0.69999694314E+02 0.  0.
         12    1    1    2    0    0 -0.16548349088E+02  0.15769320559E+01 -0.86228409440E+01  0.18726664363E+02  0.00000000000E+00 0. -1.
         11    1    3    3    0    0 -0.66939098955E+01 -0.96892441502E+01  0.58848591001E+00  0.11791361152E+02  0.51100000000E-03 0. -1.
        -11    1    3    3    0    0  0.12934581419E+02 -0.23024651731E+02  0.88750325098E+01  0.27860441241E+02  0.51100000000E-03 0.  1.
        -12    1    3    3    0    0  0.10307677564E+02  0.31136963826E+02 -0.84067747589E+00  0.32809533243E+02  0.00000000000E+00 0.  1.
</event>
<event>
 7    1  0.5704131E-013  0.7246154E+02  0.7816164E-02  0.1226708E+00
        -11   -1    0    0    0    0  0.00000000000E+00  0.00000000000E+00  0.45593999997E+02  0.45594000000E+02  0.51100000000E-03 0. -1.
         11   -1    0    0    0    0 -0.00000000000E+00 -0.00000000000E+00 -0.45593999997E+02  0.45594000000E+02  0.51100000000E-03 0.  1.
    9900012    2    1    2    0    0  0.47597440208E+01 -0.44290380260E+01 -0.17561568371E+02  0.72461542123E+02  0.69999963301E+02 0.  0.
         12    1    1    2    0    0 -0.47597440208E+01  0.44290380260E+01  0.17561568371E+02  0.18726457877E+02  0.00000000000E+00 0. -1.
         11    1    3    3    0    0 -0.49181772709E+01  0.21220707469E+01  0.60060750342E+01  0.80476449661E+01  0.51100000000E-03 0. -1.
        -11    1    3    3    0    0 -0.16781290333E+02  0.15693261827E+02 -0.18456172049E+02  0.29470671166E+02  0.51100000000E-03 0.  1.
         12    1    3    3    0    0  0.26459211624E+02 -0.22244370600E+02 -0.51114713560E+01  0.34943225990E+02  0.00000000000E+00 0. -1.
</event>
<event>
 7    1  0.2873608E-013  0.7246158E+02  0.7816164E-02  0.1226708E+00
        -11   -1    0    0    0    0  0.00000000000E+00  0.00000000000E+00  0.45593999997E+02  0.45594000000E+02  0.51100000000E-03 0.  1.
         11   -1    0    0    0    0 -0.00000000000E+00 -0.00000000000E+00 -0.45593999997E+02  0.45594000000E+02  0.51100000000E-03 0. -1.
    9900012    2    1    2    0    0  0.30241445185E+01 -0.14671485317E+01  0.18422290450E+02  0.72461581221E+02  0.70000014234E+02 0.  0.
         12    1    1    2    0    0 -0.30241445185E+01  0.14671485317E+01 -0.18422290450E+02  0.18726418779E+02  0.00000000000E+00 0. -1.
         11    1    3    3    0    0 -0.40825158897E+01  0.25256120306E+01 -0.80992097622E+01  0.94150332528E+01  0.51100000000E-03 0. -1.
        -11    1    3    3    0    0  0.25322525524E+02 -0.17586596685E+02  0.25970018903E+02  0.40310799595E+02  0.51100000000E-03 0.  1.
         12    1    3    3    0    0 -0.18215865116E+02  0.13593836122E+02  0.55148130843E+00  0.22735748373E+02  0.00000000000E+00 0. -1.
</event>
<event>
 7    1  0.2873608E-013  0.7246158E+02  0.7816164E-02  0.1226708E+00
        -11   -1    0    0    0    0  0.00000000000E+00  0.00000000000E+00  0.45593999997E+02  0.45594000000E+02  0.51100000000E-03 0. -1.
         11   -1    0    0    0    0 -0.00000000000E+00 -0.00000000000E+00 -0.45593999997E+02  0.45594000000E+02  0.51100000000E-03 0.  1.
    9900012    2    1    2    0    0  0.51212215107E+01  0.15938996423E+02 -0.83904803064E+01  0.72461583458E+02  0.70000017148E+02 0.  0.
         12    1    1    2    0    0 -0.51212215107E+01 -0.15938996423E+02  0.83904803064E+01  0.18726416542E+02  0.00000000000E+00 0. -1.
         11    1    3    3    0    0  0.34404777350E+02  0.30484824304E+01  0.12494677904E+01  0.34562163122E+02  0.51100000000E-03 0. -1.
        -11    1    3    3    0    0 -0.12496791088E+02  0.31122768876E+01  0.47466373107E+01  0.13725400575E+02  0.51100000000E-03 0.  1.
        -12    1    3    3    0    0 -0.16786764751E+02  0.97782371052E+01 -0.14386585407E+02  0.24174019761E+02  0.00000000000E+00 0.  1.
</event>
<event>
 7    1  0.2873608E-013  0.7246160E+02  0.7816164E-02  0.1226708E+00
        -11   -1    0    0    0    0  0.00000000000E+00  0.00000000000E+00  0.45593999997E+02  0.45594000000E+02  0.51100000000E-03 0.  1.
         11   -1    0    0    0    0 -0.00000000000E+00 -0.00000000000E+00 -0.45593999997E+02  0.45594000000E+02  0.51100000000E-03 0. -1.
    9900012    2    1    2    0    0 -0.97711297683E+01 -0.96453557818E+01  0.12734613319E+02  0.72461595073E+02  0.70000032279E+02 0.  0.
         12    1    1    2    0    0  0.97711297683E+01  0.96453557818E+01 -0.12734613319E+02  0.18726404927E+02  0.00000000000E+00 0. -1.
         11    1    3    3    0    0  0.13097168409E+01  0.20033519057E+02  0.19750882981E+02  0.28163000955E+02  0.51100000000E-03 0. -1.
        -11    1    3    3    0    0  0.35472020022E+01  0.93737664992E+00  0.67486846473E+01  0.76815403245E+01  0.51100000000E-03 0.  1.
        -12    1    3    3    0    0 -0.14628048611E+02 -0.30616251488E+02 -0.13764954309E+02  0.36617053793E+02  0.00000000000E+00 0.  1.
</event>
<event>
 7    1  0.2873608E-013  0.7246117E+02  0.7816164E-02  0.1226709E+00
        -11   -1    0    0    0    0  0.00000000000E+00  0.00000000000E+00  0.45593999997E+02  0.45594000000E+02  0.51100000000E-03 0.  1.
         11   -1    0    0    0    0 -0.00000000000E+00 -0.00000000000E+00 -0.45593999997E+02  0.45594000000E+02  0.51100000000E-03 0. -1.
    9900012    2    1    2    0    0  0.55909006625E+01 -0.97928458977E+01  0.14951122935E+02  0.72461172239E+02  0.69999481457E+02 0.  0.
         12    1    1    2    0    0 -0.55909006625E+01  0.97928458977E+01 -0.14951122935E+02  0.18726827761E+02  0.00000000000E+00 0. -1.
         11    1    3    3    0    0  0.14042474724E+01  0.15023712590E+02 -0.41793728345E+01  0.15657298889E+02  0.51100000000E-03 0. -1.
        -11    1    3    3    0    0  0.60847310858E+00  0.35051627490E+01  0.26967223495E+02  0.27200874043E+02  0.51100000000E-03 0.  1.
        -12    1    3    3    0    0  0.35781800816E+01 -0.28321721237E+02 -0.78367277260E+01  0.29602999307E+02  0.00000000000E+00 0.  1.
</event>
<event>
 7    1  0.2873608E-013  0.7246122E+02  0.7816164E-02  0.1226709E+00
        -11   -1    0    0    0    0  0.00000000000E+00  0.00000000000E+00  0.45593999997E+02  0.45594000000E+02  0.51100000000E-03 0. -1.
         11   -1    0    0    0    0 -0.00000000000E+00 -0.00000000000E+00 -0.45593999997E+02  0.45594000000E+02  0.51100000000E-03 0.  1.
    9900012    2    1    2    0    0 -0.18271813861E+02  0.41022654668E+01 -0.67510641239E-01  0.72461219139E+02  0.69999542553E+02 0.  0.
         12    1    1    2    0    0  0.18271813861E+02 -0.41022654668E+01  0.67510641239E-01  0.18726780861E+02  0.00000000000E+00 0. -1.
         11    1    3    3    0    0 -0.24054792464E+02 -0.90579081362E+01 -0.13678825562E+02  0.29116816607E+02  0.51100000000E-03 0. -1.
        -11    1    3    3    0    0 -0.32673791635E+01  0.22824190171E+02 -0.16794314995E+01  0.23117956527E+02  0.51100000000E-03 0.  1.
        -12    1    3    3    0    0  0.90503577660E+01 -0.96640165677E+01  0.15290746420E+02  0.20226446005E+02  0.00000000000E+00 0.  1.
</event>
<event>
 7    1  0.2873608E-013  0.7246160E+02  0.7816164E-02  0.1226708E+00
        -11   -1    0    0    0    0  0.00000000000E+00  0.00000000000E+00  0.45593999997E+02  0.45594000000E+02  0.51100000000E-03 0. -1.
         11   -1    0    0    0    0 -0.00000000000E+00 -0.00000000000E+00 -0.45593999997E+02  0.45594000000E+02  0.51100000000E-03 0.  1.
    9900012    2    1    2    0    0  0.13246908976E+01  0.17380278877E+02 -0.68446363544E+01  0.72461602945E+02  0.70000042534E+02 0.  0.
         12    1    1    2    0    0 -0.13246908976E+01 -0.17380278877E+02  0.68446363544E+01  0.18726397055E+02  0.00000000000E+00 0. -1.
         11    1    3    3    0    0  0.39425984614E+01  0.64445713988E+01 -0.51059309880E+01  0.91185039703E+01  0.51100000000E-03 0. -1.
        -11    1    3    3    0    0  0.17668685995E+02 -0.15369625445E+02 -0.14739373434E+02  0.27670507415E+02  0.51100000000E-03 0.  1.
         12    1    3    3    0    0 -0.20286593559E+02  0.26305332923E+02  0.13000668067E+02  0.35672591560E+02  0.00000000000E+00 0. -1.
</event>
<event>
 7    1  0.2873608E-013  0.7246158E+02  0.7816164E-02  0.1226708E+00
        -11   -1    0    0    0    0  0.00000000000E+00  0.00000000000E+00  0.45593999997E+02  0.45594000000E+02  0.51100000000E-03 0. -1.
         11   -1    0    0    0    0 -0.00000000000E+00 -0.00000000000E+00 -0.45593999997E+02  0.45594000000E+02  0.51100000000E-03 0.  1.
    9900012    2    1    2    0    0  0.10997146975E+02 -0.82029456224E+01 -0.12745708318E+02  0.72461584459E+02  0.70000018452E+02 0.  0.
         12    1    1    2    0    0 -0.10997146975E+02  0.82029456224E+01  0.12745708318E+02  0.18726415541E+02  0.00000000000E+00 0. -1.
         11    1    3    3    0    0 -0.11018465646E+01  0.12906100528E+02  0.62564547077E+01  0.14384878257E+02  0.51100000000E-03 0. -1.
        -11    1    3    3    0    0  0.20569307655E+02 -0.29261917662E+01 -0.28991962019E+02  0.35667812907E+02  0.51100000000E-03 0.  1.
         12    1    3    3    0    0 -0.84703141148E+01 -0.18182854384E+02  0.99897989928E+01  0.22408893295E+02  0.00000000000E+00 0. -1.
</event>
<event>
 7    1  0.2873608E-013  0.7246158E+02  0.7816164E-02  0.1226708E+00
        -11   -1    0    0    0    0  0.00000000000E+00  0.00000000000E+00  0.45593999997E+02  0.45594000000E+02  0.51100000000E-03 0.  1.
         11   -1    0    0    0    0 -0.00000000000E+00 -0.00000000000E+00 -0.45593999997E+02  0.45594000000E+02  0.51100000000E-03 0. -1.
    9900012    2    1    2    0    0 -0.56572810440E+01  0.10719663428E+02  0.14274550543E+02  0.72461580000E+02  0.70000012644E+02 0.  0.
         12    1    1    2    0    0  0.56572810440E+01 -0.10719663428E+02 -0.14274550543E+02  0.18726420000E+02  0.00000000000E+00 0. -1.
         11    1    3    3    0    0 -0.16386925926E+02  0.76272503423E+01 -0.13908531322E+02  0.22806874685E+02  0.51100000000E-03 0.  1.
        -11    1    3    3    0    0  0.15619691966E+02 -0.19395129771E+01 -0.43852381397E+01  0.16339118749E+02  0.51100000000E-03 0. -1.
        -12    1    3    3    0    0 -0.48900470830E+01  0.50319260626E+01  0.32568320004E+02  0.33315586566E+02  0.00000000000E+00 0.  1.
</event>
<event>
 7    1  0.2873608E-013  0.7246158E+02  0.7816164E-02  0.1226708E+00
        -11   -1    0    0    0    0  0.00000000000E+00  0.00000000000E+00  0.45593999997E+02  0.45594000000E+02  0.51100000000E-03 0.  1.
         11   -1    0    0    0    0 -0.00000000000E+00 -0.00000000000E+00 -0.45593999997E+02  0.45594000000E+02  0.51100000000E-03 0. -1.
    9900012    2    1    2    0    0  0.19306167911E+00  0.18199184709E+02  0.44080791698E+01  0.72461581259E+02  0.70000014284E+02 0.  0.
         12    1    1    2    0    0 -0.19306167911E+00 -0.18199184709E+02 -0.44080791698E+01  0.18726418741E+02  0.00000000000E+00 0. -1.
         11    1    3    3    0    0  0.25269012040E+01  0.87228769490E+00 -0.74560011127E-01  0.26742615755E+01  0.51100000000E-03 0. -1.
        -11    1    3    3    0    0 -0.43448284432E+01 -0.25553632897E+02 -0.33984536265E+01  0.26142210613E+02  0.51100000000E-03 0.  1.
        -12    1    3    3    0    0  0.20109889183E+01  0.42880529911E+02  0.78810928074E+01  0.43645109070E+02  0.00000000000E+00 0.  1.
</event>
<event>
 7    1  0.2873608E-013  0.7246148E+02  0.7816164E-02  0.1226708E+00
        -11   -1    0    0    0    0  0.00000000000E+00  0.00000000000E+00  0.45593999997E+02  0.45594000000E+02  0.51100000000E-03 0.  1.
         11   -1    0    0    0    0 -0.00000000000E+00 -0.00000000000E+00 -0.45593999997E+02  0.45594000000E+02  0.51100000000E-03 0. -1.
    9900012    2    1    2    0    0  0.94396870801E+00 -0.12217074115E+02 -0.14161028065E+02  0.72461476225E+02  0.69999877457E+02 0.  0.
         12    1    1    2    0    0 -0.94396870801E+00  0.12217074115E+02  0.14161028065E+02  0.18726523775E+02  0.00000000000E+00 0. -1.
         11    1    3    3    0    0  0.10389350694E+02  0.22356796591E+02 -0.12309789242E+02  0.27555323861E+02  0.51100000000E-03 0. -1.
        -11    1    3    3    0    0 -0.55019073605E-01 -0.12563247115E+02 -0.13371381350E+02  0.18347535111E+02  0.51100000000E-03 0.  1.
        -12    1    3    3    0    0 -0.93903629120E+01 -0.22010623592E+02  0.11520142527E+02  0.26558617252E+02  0.00000000000E+00 0.  1.
</event>
<event>
 7    1  0.2873608E-013  0.7246161E+02  0.7816164E-02  0.1226708E+00
        -11   -1    0    0    0    0  0.00000000000E+00  0.00000000000E+00  0.45593999997E+02  0.45594000000E+02  0.51100000000E-03 0.  1.
         11   -1    0    0    0    0 -0.00000000000E+00 -0.00000000000E+00 -0.45593999997E+02  0.45594000000E+02  0.51100000000E-03 0. -1.
    9900012    2    1    2    0    0  0.70968695360E+01  0.85187452694E+01  0.15091157306E+02  0.72461612014E+02  0.70000054347E+02 0.  0.
         12    1    1    2    0    0 -0.70968695360E+01 -0.85187452694E+01 -0.15091157306E+02  0.18726387986E+02  0.00000000000E+00 0. -1.
         11    1    3    3    0    0  0.76715355296E+01 -0.14582274874E+02  0.30568920482E+02  0.34726849808E+02  0.51100000000E-03 0.  1.
        -11    1    3    3    0    0 -0.48573519493E+01  0.22436163493E+01 -0.15547184092E+02  0.16442098885E+02  0.51100000000E-03 0. -1.
        -12    1    3    3    0    0  0.42826859557E+01  0.20857403794E+02  0.69420915504E-01  0.21292663321E+02  0.00000000000E+00 0.  1.
</event>
<event>
 7    1  0.2873608E-013  0.7246158E+02  0.7816164E-02  0.1226708E+00
        -11   -1    0    0    0    0  0.00000000000E+00  0.00000000000E+00  0.45593999997E+02  0.45594000000E+02  0.51100000000E-03 0.  1.
         11   -1    0    0    0    0 -0.00000000000E+00 -0.00000000000E+00 -0.45593999997E+02  0.45594000000E+02  0.51100000000E-03 0. -1.
    9900012    2    1    2    0    0 -0.16804548810E+02 -0.49899071749E+00  0.82484614094E+01  0.72461575673E+02  0.70000007007E+02 0.  0.
         12    1    1    2    0    0  0.16804548810E+02  0.49899071749E+00 -0.82484614094E+01  0.18726424327E+02  0.00000000000E+00 0. -1.
         11    1    3    3    0    0  0.72614455745E+01  0.12668279604E+02  0.19392632600E+02  0.24275256937E+02  0.51100000000E-03 0. -1.
        -11    1    3    3    0    0 -0.44478681427E+01  0.58019551881E+01  0.10887032972E+02  0.13113874416E+02  0.51100000000E-03 0.  1.
         12    1    3    3    0    0 -0.19618126242E+02 -0.18969225509E+02 -0.22031204163E+02  0.35072444319E+02  0.00000000000E+00 0. -1.
</event>
<event>
 7    1  0.2873608E-013  0.7246152E+02  0.7816164E-02  0.1226708E+00
        -11   -1    0    0    0    0  0.00000000000E+00  0.00000000000E+00  0.45593999997E+02  0.45594000000E+02  0.51100000000E-03 0.  1.
         11   -1    0    0    0    0 -0.00000000000E+00 -0.00000000000E+00 -0.45593999997E+02  0.45594000000E+02  0.51100000000E-03 0. -1.
    9900012    2    1    2    0    0 -0.95937450271E+01 -0.15143566695E+02  0.54141779029E+01  0.72461524671E+02  0.69999940567E+02 0.  0.
         12    1    1    2    0    0  0.95937450271E+01  0.15143566695E+02 -0.54141779029E+01  0.18726475329E+02  0.00000000000E+00 0. -1.
         11    1    3    3    0    0 -0.10948471762E+02 -0.19937134503E+02 -0.20194342011E+02  0.30416604275E+02  0.51100000000E-03 0. -1.
        -11    1    3    3    0    0 -0.50938080578E+00 -0.13683182176E+02  0.16249423277E+02  0.21249298820E+02  0.51100000000E-03 0.  1.
        -12    1    3    3    0    0  0.18641075402E+01  0.18476749983E+02  0.93590966368E+01  0.20795621576E+02  0.00000000000E+00 0.  1.
</event>
<event>
 7    1  0.2873608E-013  0.7246160E+02  0.7816164E-02  0.1226708E+00
        -11   -1    0    0    0    0  0.00000000000E+00  0.00000000000E+00  0.45593999997E+02  0.45594000000E+02  0.51100000000E-03 0.  1.
         11   -1    0    0    0    0 -0.00000000000E+00 -0.00000000000E+00 -0.45593999997E+02  0.45594000000E+02  0.51100000000E-03 0. -1.
    9900012    2    1    2    0    0 -0.40147297012E+00  0.18711763656E+02  0.62205599501E+00  0.72461595291E+02  0.70000032563E+02 0.  0.
         12    1    1    2    0    0  0.40147297012E+00 -0.18711763656E+02 -0.62205599501E+00  0.18726404709E+02  0.00000000000E+00 0. -1.
         11    1    3    3    0    0 -0.96911142527E+01 -0.99344771627E+01  0.98315675422E+00  0.13913235764E+02  0.51100000000E-03 0. -1.
        -11    1    3    3    0    0 -0.13719179694E+02  0.42816978107E+01 -0.16051520782E+02  0.21545304530E+02  0.51100000000E-03 0.  1.
        -12    1    3    3    0    0  0.23008820976E+02  0.24364543008E+02  0.15690420023E+02  0.37003054998E+02  0.00000000000E+00 0.  1.
</event>
<event>
 7    1  0.2873608E-013  0.7246160E+02  0.7816164E-02  0.1226708E+00
        -11   -1    0    0    0    0  0.00000000000E+00  0.00000000000E+00  0.45593999997E+02  0.45594000000E+02  0.51100000000E-03 0.  1.
         11   -1    0    0    0    0 -0.00000000000E+00 -0.00000000000E+00 -0.45593999997E+02  0.45594000000E+02  0.51100000000E-03 0. -1.
    9900012    2    1    2    0    0  0.17102850027E+02 -0.79016688718E-01  0.76265493792E+01  0.72461602105E+02  0.70000041439E+02 0.  0.
         12    1    1    2    0    0 -0.17102850027E+02  0.79016688718E-01 -0.76265493792E+01  0.18726397895E+02  0.00000000000E+00 0. -1.
         11    1    3    3    0    0  0.12058618365E+02  0.17495097723E+02 -0.27699410134E+01  0.21428049250E+02  0.51100000000E-03 0. -1.
        -11    1    3    3    0    0  0.66854125985E+01  0.87909407749E+01 -0.12066667983E+02  0.16357868376E+02  0.51100000000E-03 0.  1.
        -12    1    3    3    0    0 -0.16411809360E+01 -0.26365055186E+02  0.22463158376E+02  0.34675684479E+02  0.00000000000E+00 0.  1.
</event>
<event>
 7    1  0.2873608E-013  0.7246156E+02  0.7816164E-02  0.1226708E+00
        -11   -1    0    0    0    0  0.00000000000E+00  0.00000000000E+00  0.45593999997E+02  0.45594000000E+02  0.51100000000E-03 0. -1.
         11   -1    0    0    0    0 -0.00000000000E+00 -0.00000000000E+00 -0.45593999997E+02  0.45594000000E+02  0.51100000000E-03 0.  1.
    9900012    2    1    2    0    0 -0.13173968104E+02 -0.40213532155E+01 -0.12686803087E+02  0.72461556401E+02  0.69999981902E+02 0.  0.
         12    1    1    2    0    0  0.13173968104E+02  0.40213532155E+01  0.12686803087E+02  0.18726443599E+02  0.00000000000E+00 0. -1.
         11    1    3    3    0    0  0.95022826262E+01 -0.32002068793E+01 -0.16442021935E+02  0.19258109584E+02  0.51100000000E-03 0. -1.
        -11    1    3    3    0    0 -0.15210628788E+02 -0.17727105572E+02 -0.14282527901E+02  0.27378898875E+02  0.51100000000E-03 0.  1.
         12    1    3    3    0    0 -0.74656219419E+01  0.16905959236E+02  0.18037746749E+02  0.25824547943E+02  0.00000000000E+00 0. -1.
</event>
<event>
 7    1  0.2873608E-013  0.7246160E+02  0.7816164E-02  0.1226708E+00
        -11   -1    0    0    0    0  0.00000000000E+00  0.00000000000E+00  0.45593999997E+02  0.45594000000E+02  0.51100000000E-03 0.  1.
         11   -1    0    0    0    0 -0.00000000000E+00 -0.00000000000E+00 -0.45593999997E+02  0.45594000000E+02  0.51100000000E-03 0. -1.
    9900012    2    1    2    0    0  0.20445865247E+01  0.16531826987E+02 -0.85554864822E+01  0.72461601880E+02  0.70000041147E+02 0.  0.
         12    1    1    2    0    0 -0.20445865247E+01 -0.16531826987E+02  0.85554864822E+01  0.18726398120E+02  0.00000000000E+00 0. -1.
         11    1    3    3    0    0  0.96633809778E+01 -0.58719092950E+01 -0.18648747671E+01  0.11460279615E+02  0.51100000000E-03 0. -1.
        -11    1    3    3    0    0 -0.10138202137E+02 -0.70635081194E+01  0.18436134312E+02  0.22193858118E+02  0.51100000000E-03 0.  1.
         12    1    3    3    0    0  0.25194076837E+01  0.29467244401E+02 -0.25126746027E+02  0.38807464148E+02  0.00000000000E+00 0. -1.
</event>
<event>
 7    1  0.2873608E-013  0.7246157E+02  0.7816164E-02  0.1226708E+00
        -11   -1    0    0    0    0  0.00000000000E+00  0.00000000000E+00  0.45593999997E+02  0.45594000000E+02  0.51100000000E-03 0.  1.
         11   -1    0    0    0    0 -0.00000000000E+00 -0.00000000000E+00 -0.45593999997E+02  0.45594000000E+02  0.51100000000E-03 0. -1.
    9900012    2    1    2    0    0 -0.17783244165E+01  0.74868373080E+01  0.17072314679E+02  0.72461572174E+02  0.70000002449E+02 0.  0.
         12    1    1    2    0    0  0.17783244165E+01 -0.74868373080E+01 -0.17072314679E+02  0.18726427826E+02  0.00000000000E+00 0. -1.
         11    1    3    3    0    0  0.85083419970E+01  0.14577698267E+02  0.73050648157E+01  0.18391985823E+02  0.51100000000E-03 0. -1.
        -11    1    3    3    0    0  0.14347607451E+02 -0.12583445721E+02  0.19251264689E+02  0.27107344727E+02  0.51100000000E-03 0.  1.
        -12    1    3    3    0    0 -0.24634273864E+02  0.54925847622E+01 -0.94840148257E+01  0.26962241624E+02  0.00000000000E+00 0.  1.
</event>
<event>
 7    1  0.2873608E-013  0.7246157E+02  0.7816164E-02  0.1226708E+00
        -11   -1    0    0    0    0  0.00000000000E+00  0.00000000000E+00  0.45593999997E+02  0.45594000000E+02  0.51100000000E-03 0.  1.
         11   -1    0    0    0    0 -0.00000000000E+00 -0.00000000000E+00 -0.45593999997E+02  0.45594000000E+02  0.51100000000E-03 0. -1.
    9900012    2    1    2    0    0  0.40584493642E+01 -0.51543650451E+01  0.17539692269E+02  0.72461566940E+02  0.69999995630E+02 0.  0.
         12    1    1    2    0    0 -0.40584493642E+01  0.51543650451E+01 -0.17539692269E+02  0.18726433060E+02  0.00000000000E+00 0. -1.
         11    1    3    3    0    0 -0.26472278440E+02 -0.11364585346E+02  0.63801702088E+00  0.28815662267E+02  0.51100000000E-03 0. -1.
        -11    1    3    3    0    0  0.44979293532E+01  0.38591345321E+01 -0.63327786050E+01  0.86734291330E+01  0.51100000000E-03 0.  1.
        -12    1    3    3    0    0  0.26032798451E+02  0.23510857683E+01  0.23234453854E+02  0.34972475540E+02  0.00000000000E+00 0.  1.
</event>
<event>
 7    1  0.2873608E-013  0.7246179E+02  0.7816164E-02  0.1226707E+00
        -11   -1    0    0    0    0  0.00000000000E+00  0.00000000000E+00  0.45593999997E+02  0.45594000000E+02  0.51100000000E-03 0.  1.
         11   -1    0    0    0    0 -0.00000000000E+00 -0.00000000000E+00 -0.45593999997E+02  0.45594000000E+02  0.51100000000E-03 0. -1.
    9900012    2    1    2    0    0  0.15845514381E+02 -0.92845242588E+01  0.36589688480E+01  0.72461794571E+02  0.70000292162E+02 0.  0.
         12    1    1    2    0    0 -0.15845514381E+02  0.92845242588E+01 -0.36589688480E+01  0.18726205429E+02  0.00000000000E+00 0. -1.
         11    1    3    3    0    0 -0.15100284643E+02  0.29330562311E+01 -0.90236743478E+01  0.17833903503E+02  0.51100000000E-03 0. -1.
        -11    1    3    3    0    0  0.81845001643E+01 -0.25490431916E+02  0.57519954296E+01  0.27383089926E+02  0.51100000000E-03 0.  1.
        -12    1    3    3    0    0  0.22761298861E+02  0.13272851427E+02  0.69306477662E+01  0.27244801142E+02  0.00000000000E+00 0.  1.
</event>
<event>
 7    1  0.2873608E-013  0.7246136E+02  0.7816164E-02  0.1226709E+00
        -11   -1    0    0    0    0  0.00000000000E+00  0.00000000000E+00  0.45593999997E+02  0.45594000000E+02  0.51100000000E-03 0.  1.
         11   -1    0    0    0    0 -0.00000000000E+00 -0.00000000000E+00 -0.45593999997E+02  0.45594000000E+02  0.51100000000E-03 0. -1.
    9900012    2    1    2    0    0  0.34200267477E+01 -0.54935428020E+01  0.17573036849E+02  0.72461355358E+02  0.69999720005E+02 0.  0.
         12    1    1    2    0    0 -0.34200267477E+01  0.54935428020E+01 -0.17573036849E+02  0.18726644642E+02  0.00000000000E+00 0. -1.
         11    1    3    3    0    0 -0.63116699532E+00  0.92279216525E+01 -0.33455760056E+01  0.98359437204E+01  0.51100000000E-03 0. -1.
        -11    1    3    3    0    0  0.17265991907E+02  0.69399773202E+00  0.34231567245E+02  0.38345746904E+02  0.51100000000E-03 0.  1.
         12    1    3    3    0    0 -0.13214798164E+02 -0.15415462187E+02 -0.13312954390E+02  0.24279664733E+02  0.00000000000E+00 0. -1.
</event>
<event>
 7    1  0.2873608E-013  0.7246161E+02  0.7816164E-02  0.1226708E+00
        -11   -1    0    0    0    0  0.00000000000E+00  0.00000000000E+00  0.45593999997E+02  0.45594000000E+02  0.51100000000E-03 0. -1.
         11   -1    0    0    0    0 -0.00000000000E+00 -0.00000000000E+00 -0.45593999997E+02  0.45594000000E+02  0.51100000000E-03 0.  1.
    9900012    2    1    2    0    0  0.71788852444E+01 -0.60926911237E-01 -0.17295590678E+02  0.72461613206E+02  0.70000055901E+02 0.  0.
         12    1    1    2    0    0 -0.71788852444E+01  0.60926911237E-01  0.17295590678E+02  0.18726386794E+02  0.00000000000E+00 0. -1.
         11    1    3    3    0    0  0.16978357161E+02  0.90247412183E+01 -0.51205968324E+01  0.19898016940E+02  0.51100000000E-03 0. -1.
        -11    1    3    3    0    0 -0.23165159593E+02  0.97334151978E+01  0.24371008505E+01  0.25244869800E+02  0.51100000000E-03 0.  1.
         12    1    3    3    0    0  0.13365687676E+02 -0.18819083327E+02 -0.14612094696E+02  0.27318726467E+02  0.00000000000E+00 0. -1.
</event>
<event>
 7    1  0.2873608E-013  0.7246158E+02  0.7816164E-02  0.1226708E+00
        -11   -1    0    0    0    0  0.00000000000E+00  0.00000000000E+00  0.45593999997E+02  0.45594000000E+02  0.51100000000E-03 0. -1.
         11   -1    0    0    0    0 -0.00000000000E+00 -0.00000000000E+00 -0.45593999997E+02  0.45594000000E+02  0.51100000000E-03 0.  1.
    9900012    2    1    2    0    0  0.78306935622E+01 -0.12037205887E+02 -0.12019343028E+02  0.72461582990E+02  0.70000016538E+02 0.  0.
         12    1    1    2    0    0 -0.78306935622E+01  0.12037205887E+02  0.12019343028E+02  0.18726417010E+02  0.00000000000E+00 0. -1.
         11    1    3    3    0    0  0.17902286264E+01 -0.18957688378E+01 -0.12111305553E+02  0.12388808679E+02  0.51100000000E-03 0. -1.
        -11    1    3    3    0    0  0.10558772018E+02 -0.22976069303E+02 -0.22402914983E+02  0.33782806679E+02  0.51100000000E-03 0.  1.
         12    1    3    3    0    0 -0.45183070823E+01  0.12834632253E+02  0.22494877508E+02  0.26289967632E+02  0.00000000000E+00 0. -1.
</event>
<event>
 7    1  0.2873608E-013  0.7246157E+02  0.7816164E-02  0.1226708E+00
        -11   -1    0    0    0    0  0.00000000000E+00  0.00000000000E+00  0.45593999997E+02  0.45594000000E+02  0.51100000000E-03 0. -1.
         11   -1    0    0    0    0 -0.00000000000E+00 -0.00000000000E+00 -0.45593999997E+02  0.45594000000E+02  0.51100000000E-03 0.  1.
    9900012    2    1    2    0    0  0.12400822746E+02  0.13036224948E+02 -0.51918772440E+01  0.72461570682E+02  0.70000000505E+02 0.  0.
         12    1    1    2    0    0 -0.12400822746E+02 -0.13036224948E+02  0.51918772440E+01  0.18726429318E+02  0.00000000000E+00 0. -1.
         11    1    3    3    0    0  0.15308710821E+02  0.17244625879E+01  0.23572009362E+02  0.28159723433E+02  0.51100000000E-03 0. -1.
        -11    1    3    3    0    0  0.13535102956E+02  0.47495420000E+00 -0.82148042924E+01  0.15840063237E+02  0.51100000000E-03 0.  1.
        -12    1    3    3    0    0 -0.16442991031E+02  0.10836808161E+02 -0.20549082314E+02  0.28461784011E+02  0.00000000000E+00 0.  1.
</event>
<event>
 7    1  0.2873608E-013  0.7246158E+02  0.7816164E-02  0.1226708E+00
        -11   -1    0    0    0    0  0.00000000000E+00  0.00000000000E+00  0.45593999997E+02  0.45594000000E+02  0.51100000000E-03 0.  1.
         11   -1    0    0    0    0 -0.00000000000E+00 -0.00000000000E+00 -0.45593999997E+02  0.45594000000E+02  0.51100000000E-03 0. -1.
    9900012    2    1    2    0    0  0.11332300094E+02 -0.14870874576E+02 -0.10558818796E+01  0.72461579557E+02  0.70000012066E+02 0.  0.
         12    1    1    2    0    0 -0.11332300094E+02  0.14870874576E+02  0.10558818796E+01  0.18726420443E+02  0.00000000000E+00 0. -1.
         11    1    3    3    0    0 -0.51083520920E+01  0.15533753129E+02  0.11950389565E+02  0.20253507311E+02  0.51100000000E-03 0. -1.
        -11    1    3    3    0    0  0.23602111131E+01  0.84575386348E+01  0.29691184194E+00  0.87857107373E+01  0.51100000000E-03 0.  1.
        -12    1    3    3    0    0  0.14080441073E+02 -0.38862166340E+02 -0.13303183287E+02  0.43422361509E+02  0.00000000000E+00 0.  1.
</event>
<event>
 7    1  0.2873608E-013  0.7246159E+02  0.7816164E-02  0.1226708E+00
        -11   -1    0    0    0    0  0.00000000000E+00  0.00000000000E+00  0.45593999997E+02  0.45594000000E+02  0.51100000000E-03 0. -1.
         11   -1    0    0    0    0 -0.00000000000E+00 -0.00000000000E+00 -0.45593999997E+02  0.45594000000E+02  0.51100000000E-03 0.  1.
    9900012    2    1    2    0    0 -0.12171838789E+02 -0.13587858846E+02  0.42302225366E+01  0.72461592170E+02  0.70000028497E+02 0.  0.
         12    1    1    2    0    0  0.12171838789E+02  0.13587858846E+02 -0.42302225366E+01  0.18726407830E+02  0.00000000000E+00 0. -1.
         11    1    3    3    0    0 -0.46480090571E+01 -0.10303317310E+02  0.19143663277E+02  0.22231558194E+02  0.51100000000E-03 0. -1.
        -11    1    3    3    0    0  0.53039971206E+01 -0.13756984167E+02  0.11742760346E+02  0.18848857250E+02  0.51100000000E-03 0.  1.
        -12    1    3    3    0    0 -0.12827826852E+02  0.10472442632E+02 -0.26656201086E+02  0.31381176727E+02  0.00000000000E+00 0.  1.
</event>
<event>
 7    1  0.2873608E-013  0.7246160E+02  0.7816164E-02  0.1226708E+00
        -11   -1    0    0    0    0  0.00000000000E+00  0.00000000000E+00  0.45593999997E+02  0.45594000000E+02  0.51100000000E-03 0. -1.
         11   -1    0    0    0    0 -0.00000000000E+00 -0.00000000000E+00 -0.45593999997E+02  0.45594000000E+02  0.51100000000E-03 0.  1.
    9900012    2    1    2    0    0  0.28873584504E+01  0.57249072843E+01 -0.17594511365E+02  0.72461595316E+02  0.70000032595E+02 0.  0.
         12    1    1    2    0    0 -0.28873584504E+01 -0.57249072843E+01  0.17594511365E+02  0.18726404684E+02  0.00000000000E+00 0. -1.
         11    1    3    3    0    0  0.29310130142E+02 -0.12377709281E+02 -0.10994365753E+02  0.33662553299E+02  0.51100000000E-03 0. -1.
        -11    1    3    3    0    0 -0.76610051258E+01 -0.54906584974E+00  0.57581770727E+01  0.95994310408E+01  0.51100000000E-03 0.  1.
        -12    1    3    3    0    0 -0.18761766566E+02  0.18651682415E+02 -0.12358322684E+02  0.29199610976E+02  0.00000000000E+00 0.  1.
</event>
<event>
 7    1  0.2873608E-013  0.7246166E+02  0.7816164E-02  0.1226708E+00
        -11   -1    0    0    0    0  0.00000000000E+00  0.00000000000E+00  0.45593999997E+02  0.45594000000E+02  0.51100000000E-03 0. -1.
         11   -1    0    0    0    0 -0.00000000000E+00 -0.00000000000E+00 -0.45593999997E+02  0.45594000000E+02  0.51100000000E-03 0.  1.
    9900012    2    1    2    0    0  0.49817556847E+01 -0.13468581332E+02 -0.12018953609E+02  0.72461659764E+02  0.70000116550E+02 0.  0.
         12    1    1    2    0    0 -0.49817556847E+01  0.13468581332E+02  0.12018953609E+02  0.18726340236E+02  0.00000000000E+00 0. -1.
         11    1    3    3    0    0 -0.18261497683E+02  0.72769993611E+01 -0.31131565790E+01  0.19902983733E+02  0.51100000000E-03 0. -1.
        -11    1    3    3    0    0  0.10675542015E+02 -0.31829996826E+02 -0.11734382590E+02  0.35564190280E+02  0.51100000000E-03 0.  1.
         12    1    3    3    0    0  0.12567711353E+02  0.11084416133E+02  0.28285855597E+01  0.16994485751E+02  0.00000000000E+00 0. -1.
</event>
<event>
 7    1  0.2873608E-013  0.7246166E+02  0.7816164E-02  0.1226708E+00
        -11   -1    0    0    0    0  0.00000000000E+00  0.00000000000E+00  0.45593999997E+02  0.45594000000E+02  0.51100000000E-03 0.  1.
         11   -1    0    0    0    0 -0.00000000000E+00 -0.00000000000E+00 -0.45593999997E+02  0.45594000000E+02  0.51100000000E-03 0. -1.
    9900012    2    1    2    0    0 -0.12169844545E+02 -0.46200639255E+01  0.13462003313E+02  0.72461664531E+02  0.70000122760E+02 0.  0.
         12    1    1    2    0    0  0.12169844545E+02  0.46200639255E+01 -0.13462003313E+02  0.18726335469E+02  0.00000000000E+00 0. -1.
         11    1    3    3    0    0 -0.20458879953E+02  0.96663674858E+00 -0.13568778851E+02  0.24568514715E+02  0.51100000000E-03 0. -1.
        -11    1    3    3    0    0 -0.12165861775E+02  0.83628481076E+01  0.10722147038E+02  0.18245817564E+02  0.51100000000E-03 0.  1.
        -12    1    3    3    0    0  0.20454897183E+02 -0.13949548782E+02  0.16308635126E+02  0.29647332252E+02  0.00000000000E+00 0.  1.
</event>
<event>
 7    1  0.2873608E-013  0.7246150E+02  0.7816164E-02  0.1226708E+00
        -11   -1    0    0    0    0  0.00000000000E+00  0.00000000000E+00  0.45593999997E+02  0.45594000000E+02  0.51100000000E-03 0. -1.
         11   -1    0    0    0    0 -0.00000000000E+00 -0.00000000000E+00 -0.45593999997E+02  0.45594000000E+02  0.51100000000E-03 0.  1.
    9900012    2    1    2    0    0  0.10308604706E+02  0.65920001864E+01 -0.14176040328E+02  0.72461496941E+02  0.69999904443E+02 0.  0.
         12    1    1    2    0    0 -0.10308604706E+02 -0.65920001864E+01  0.14176040328E+02  0.18726503059E+02  0.00000000000E+00 0. -1.
         11    1    3    3    0    0  0.70717042111E+01 -0.58969791295E+01  0.10332720068E+02  0.13840103597E+02  0.51100000000E-03 0. -1.
        -11    1    3    3    0    0 -0.66215702649E+01  0.27012389973E+02  0.79713550901E+00  0.27823548122E+02  0.51100000000E-03 0.  1.
         12    1    3    3    0    0  0.98584707600E+01 -0.14523410657E+02 -0.25305895904E+02  0.30797845223E+02  0.00000000000E+00 0. -1.
</event>
<event>
 7    1  0.2873608E-013  0.7246158E+02  0.7816164E-02  0.1226708E+00
        -11   -1    0    0    0    0  0.00000000000E+00  0.00000000000E+00  0.45593999997E+02  0.45594000000E+02  0.51100000000E-03 0.  1.
         11   -1    0    0    0    0 -0.00000000000E+00 -0.00000000000E+00 -0.45593999997E+02  0.45594000000E+02  0.51100000000E-03 0. -1.
    9900012    2    1    2    0    0 -0.85804761409E+01  0.92564379454E+01  0.13833750667E+02  0.72461578244E+02  0.70000010356E+02 0.  0.
         12    1    1    2    0    0  0.85804761409E+01 -0.92564379454E+01 -0.13833750667E+02  0.18726421756E+02  0.00000000000E+00 0. -1.
         11    1    3    3    0    0 -0.21799654548E+02  0.81454729566E+01  0.13720784683E+02  0.27015432639E+02  0.51100000000E-03 0. -1.
        -11    1    3    3    0    0 -0.13682501096E+02 -0.87377955578E+01 -0.33907598785E+01  0.16584847309E+02  0.51100000000E-03 0.  1.
        -12    1    3    3    0    0  0.26901679503E+02  0.98487605466E+01  0.35037258632E+01  0.28861298296E+02  0.00000000000E+00 0.  1.
</event>
<event>
 7    1  0.2873608E-013  0.7246145E+02  0.7816164E-02  0.1226708E+00
        -11   -1    0    0    0    0  0.00000000000E+00  0.00000000000E+00  0.45593999997E+02  0.45594000000E+02  0.51100000000E-03 0. -1.
         11   -1    0    0    0    0 -0.00000000000E+00 -0.00000000000E+00 -0.45593999997E+02  0.45594000000E+02  0.51100000000E-03 0.  1.
    9900012    2    1    2    0    0 -0.14152169460E+02 -0.99086853151E+01 -0.72261932835E+01  0.72461446274E+02  0.69999838440E+02 0.  0.
         12    1    1    2    0    0  0.14152169460E+02  0.99086853151E+01  0.72261932835E+01  0.18726553726E+02  0.00000000000E+00 0. -1.
         11    1    3    3    0    0 -0.12549542602E+02 -0.16646553460E+02  0.20277437228E+02  0.29082180496E+02  0.51100000000E-03 0. -1.
        -11    1    3    3    0    0  0.70316241647E+01 -0.94459386066E+01 -0.19692621751E+01  0.11939325288E+02  0.51100000000E-03 0.  1.
        -12    1    3    3    0    0 -0.86342510225E+01  0.16183806751E+02 -0.25534368336E+02  0.31439940490E+02  0.00000000000E+00 0.  1.
</event>
<event>
 7    1  0.2873608E-013  0.7246156E+02  0.7816164E-02  0.1226708E+00
        -11   -1    0    0    0    0  0.00000000000E+00  0.00000000000E+00  0.45593999997E+02  0.45594000000E+02  0.51100000000E-03 0.  1.
         11   -1    0    0    0    0 -0.00000000000E+00 -0.00000000000E+00 -0.45593999997E+02  0.45594000000E+02  0.51100000000E-03 0. -1.
    9900012    2    1    2    0    0 -0.23136920037E+01 -0.13005478436E+02  0.13273433271E+02  0.72461556910E+02  0.69999982564E+02 0.  0.
         12    1    1    2    0    0  0.23136920037E+01  0.13005478436E+02 -0.13273433271E+02  0.18726443090E+02  0.00000000000E+00 0. -1.
         11    1    3    3    0    0  0.10902783186E+02 -0.21801383842E+02  0.48831140731E+01  0.24859924013E+02  0.51100000000E-03 0.  1.
        -11    1    3    3    0    0  0.84292703181E+01 -0.11066716669E+02 -0.56823068676E+01  0.15027089789E+02  0.51100000000E-03 0. -1.
        -12    1    3    3    0    0 -0.21645745508E+02  0.19862622075E+02  0.14072626065E+02  0.32574543108E+02  0.00000000000E+00 0.  1.
</event>
<event>
 7    1  0.2873608E-013  0.7246142E+02  0.7816164E-02  0.1226708E+00
        -11   -1    0    0    0    0  0.00000000000E+00  0.00000000000E+00  0.45593999997E+02  0.45594000000E+02  0.51100000000E-03 0.  1.
         11   -1    0    0    0    0 -0.00000000000E+00 -0.00000000000E+00 -0.45593999997E+02  0.45594000000E+02  0.51100000000E-03 0. -1.
    9900012    2    1    2    0    0 -0.16495030585E+02 -0.86381975467E+01  0.19950409313E+01  0.72461423186E+02  0.69999808363E+02 0.  0.
         12    1    1    2    0    0  0.16495030585E+02  0.86381975467E+01 -0.19950409313E+01  0.18726576814E+02  0.00000000000E+00 0. -1.
         11    1    3    3    0    0  0.58603841588E+01 -0.41709010583E+01  0.46119279134E+01  0.85446121894E+01  0.51100000000E-03 0. -1.
        -11    1    3    3    0    0 -0.14864932346E+02 -0.42921672773E+01  0.28219757129E+02  0.32182970749E+02  0.51100000000E-03 0.  1.
         12    1    3    3    0    0 -0.74904823987E+01 -0.17512921110E+00 -0.30836644111E+02  0.31733840247E+02  0.00000000000E+00 0. -1.
</event>
<event>
 7    1  0.2873608E-013  0.7246159E+02  0.7816164E-02  0.1226708E+00
        -11   -1    0    0    0    0  0.00000000000E+00  0.00000000000E+00  0.45593999997E+02  0.45594000000E+02  0.51100000000E-03 0.  1.
         11   -1    0    0    0    0 -0.00000000000E+00 -0.00000000000E+00 -0.45593999997E+02  0.45594000000E+02  0.51100000000E-03 0. -1.
    9900012    2    1    2    0    0 -0.17560680408E+02 -0.51958935583E+01  0.39119897021E+01  0.72461588980E+02  0.70000024341E+02 0.  0.
         12    1    1    2    0    0  0.17560680408E+02  0.51958935583E+01 -0.39119897021E+01  0.18726411020E+02  0.00000000000E+00 0. -1.
         11    1    3    3    0    0  0.39160861632E+01 -0.23776740775E+02  0.77969269371E+01  0.25327084369E+02  0.51100000000E-03 0.  1.
        -11    1    3    3    0    0 -0.79836114103E-01  0.14060357269E+02  0.13274525683E+02  0.19336831507E+02  0.51100000000E-03 0. -1.
        -12    1    3    3    0    0 -0.21396930457E+02  0.45204899472E+01 -0.17159462918E+02  0.27797673104E+02  0.00000000000E+00 0.  1.
</event>
<event>
 7    1  0.2873608E-013  0.7246158E+02  0.7816164E-02  0.1226708E+00
        -11   -1    0    0    0    0  0.00000000000E+00  0.00000000000E+00  0.45593999997E+02  0.45594000000E+02  0.51100000000E-03 0. -1.
         11   -1    0    0    0    0 -0.00000000000E+00 -0.00000000000E+00 -0.45593999997E+02  0.45594000000E+02  0.51100000000E-03 0.  1.
    9900012    2    1    2    0    0  0.93155256041E+00  0.16559574116E+02 -0.86943404547E+01  0.72461579066E+02  0.70000011426E+02 0.  0.
         12    1    1    2    0    0 -0.93155256041E+00 -0.16559574116E+02  0.86943404547E+01  0.18726420934E+02  0.00000000000E+00 0. -1.
         11    1    3    3    0    0 -0.12032076644E+02  0.98275240325E+01 -0.60423375394E+01  0.16669161352E+02  0.51100000000E-03 0. -1.
        -11    1    3    3    0    0 -0.20652790979E+02  0.51574395024E+01  0.35251373355E+01  0.21576921721E+02  0.51100000000E-03 0.  1.
        -12    1    3    3    0    0  0.33616420183E+02  0.15746105808E+01 -0.61771402508E+01  0.34215495993E+02  0.00000000000E+00 0.  1.
</event>
<event>
 7    1  0.2873608E-013  0.7246157E+02  0.7816164E-02  0.1226708E+00
        -11   -1    0    0    0    0  0.00000000000E+00  0.00000000000E+00  0.45593999997E+02  0.45594000000E+02  0.51100000000E-03 0. -1.
         11   -1    0    0    0    0 -0.00000000000E+00 -0.00000000000E+00 -0.45593999997E+02  0.45594000000E+02  0.51100000000E-03 0.  1.
    9900012    2    1    2    0    0  0.40114381594E+01  0.10090005630E+01 -0.18263887419E+02  0.72461566760E+02  0.69999995396E+02 0.  0.
         12    1    1    2    0    0 -0.40114381594E+01 -0.10090005630E+01  0.18263887419E+02  0.18726433240E+02  0.00000000000E+00 0. -1.
         11    1    3    3    0    0  0.91356219597E+00 -0.41096245956E+01 -0.17424009532E+02  0.17925393124E+02  0.51100000000E-03 0.  1.
        -11    1    3    3    0    0 -0.21653081499E+02 -0.88063529119E+01  0.81383167311E+01  0.24751565394E+02  0.51100000000E-03 0. -1.
         12    1    3    3    0    0  0.24750957462E+02  0.13924978071E+02 -0.89781946174E+01  0.29784608242E+02  0.00000000000E+00 0. -1.
</event>
<event>
 7    1  0.2873608E-013  0.7246150E+02  0.7816164E-02  0.1226708E+00
        -11   -1    0    0    0    0  0.00000000000E+00  0.00000000000E+00  0.45593999997E+02  0.45594000000E+02  0.51100000000E-03 0.  1.
         11   -1    0    0    0    0 -0.00000000000E+00 -0.00000000000E+00 -0.45593999997E+02  0.45594000000E+02  0.51100000000E-03 0. -1.
    9900012    2    1    2    0    0 -0.72498614146E+00 -0.56017179216E+01  0.17854326178E+02  0.72461499744E+02  0.69999908095E+02 0.  0.
         12    1    1    2    0    0  0.72498614146E+00  0.56017179216E+01 -0.17854326178E+02  0.18726500256E+02  0.00000000000E+00 0. -1.
         11    1    3    3    0    0 -0.18381090127E+02  0.10959093896E+02 -0.60296633491E+01  0.22233377019E+02  0.51100000000E-03 0. -1.
        -11    1    3    3    0    0 -0.74284607940E+01 -0.71079414130E+00  0.18663205229E+02  0.20099813128E+02  0.51100000000E-03 0.  1.
        -12    1    3    3    0    0  0.25084564780E+02 -0.15850017676E+02  0.52207842975E+01  0.30128309598E+02  0.00000000000E+00 0.  1.
</event>
<event>
 7    1  0.2873608E-013  0.7246156E+02  0.7816164E-02  0.1226708E+00
        -11   -1    0    0    0    0  0.00000000000E+00  0.00000000000E+00  0.45593999997E+02  0.45594000000E+02  0.51100000000E-03 0.  1.
         11   -1    0    0    0    0 -0.00000000000E+00 -0.00000000000E+00 -0.45593999997E+02  0.45594000000E+02  0.51100000000E-03 0. -1.
    9900012    2    1    2    0    0  0.23738706495E+01  0.83657305560E+01  0.16584898811E+02  0.72461559384E+02  0.69999985787E+02 0.  0.
         12    1    1    2    0    0 -0.23738706495E+01 -0.83657305560E+01 -0.16584898811E+02  0.18726440616E+02  0.00000000000E+00 0. -1.
         11    1    3    3    0    0 -0.98477548772E+01  0.64495603857E+01 -0.12662341185E+01  0.11839698239E+02  0.51100000000E-03 0. -1.
        -11    1    3    3    0    0  0.69985760405E+01  0.26276439872E+02 -0.39975474239E+01  0.27484754767E+02  0.51100000000E-03 0.  1.
        -12    1    3    3    0    0  0.52230494862E+01 -0.24360269702E+02  0.21848680353E+02  0.33137106377E+02  0.00000000000E+00 0.  1.
</event>
<event>
 7    1  0.2873608E-013  0.7246167E+02  0.7816164E-02  0.1226708E+00
        -11   -1    0    0    0    0  0.00000000000E+00  0.00000000000E+00  0.45593999997E+02  0.45594000000E+02  0.51100000000E-03 0. -1.
         11   -1    0    0    0    0 -0.00000000000E+00 -0.00000000000E+00 -0.45593999997E+02  0.45594000000E+02  0.51100000000E-03 0.  1.
    9900012    2    1    2    0    0 -0.11619473874E+01  0.96850089310E+01 -0.15985182024E+02  0.72461666561E+02  0.70000125405E+02 0.  0.
         12    1    1    2    0    0  0.11619473874E+01 -0.96850089310E+01  0.15985182024E+02  0.18726333439E+02  0.00000000000E+00 0. -1.
         11    1    3    3    0    0 -0.19103291183E+02  0.84262341908E+01  0.96979963094E+01  0.23021474526E+02  0.51100000000E-03 0. -1.
        -11    1    3    3    0    0 -0.56693383005E+01  0.13967808169E+02 -0.62209905003E+01  0.16307721633E+02  0.51100000000E-03 0.  1.
        -12    1    3    3    0    0  0.23610682096E+02 -0.12709033428E+02 -0.19462187833E+02  0.33132470402E+02  0.00000000000E+00 0.  1.
</event>
<event>
 7    1  0.2873608E-013  0.7246161E+02  0.7816164E-02  0.1226708E+00
        -11   -1    0    0    0    0  0.00000000000E+00  0.00000000000E+00  0.45593999997E+02  0.45594000000E+02  0.51100000000E-03 0. -1.
         11   -1    0    0    0    0 -0.00000000000E+00 -0.00000000000E+00 -0.45593999997E+02  0.45594000000E+02  0.51100000000E-03 0.  1.
    9900012    2    1    2    0    0  0.12805901082E+02 -0.10598476197E+02 -0.86231568990E+01  0.72461611263E+02  0.70000053369E+02 0.  0.
         12    1    1    2    0    0 -0.12805901082E+02  0.10598476197E+02  0.86231568990E+01  0.18726388737E+02  0.00000000000E+00 0. -1.
         11    1    3    3    0    0 -0.92277743171E+01  0.16209797232E+01 -0.12540905366E+02  0.15654191188E+02  0.51100000000E-03 0. -1.
        -11    1    3    3    0    0 -0.24138631854E+01 -0.91463521456E+01 -0.20214543387E+02  0.22318383849E+02  0.51100000000E-03 0.  1.
         12    1    3    3    0    0  0.24447538585E+02 -0.30731037743E+01  0.24132291853E+02  0.34489036225E+02  0.00000000000E+00 0. -1.
</event>
<event>
 7    1  0.2873608E-013  0.7246159E+02  0.7816164E-02  0.1226708E+00
        -11   -1    0    0    0    0  0.00000000000E+00  0.00000000000E+00  0.45593999997E+02  0.45594000000E+02  0.51100000000E-03 0.  1.
         11   -1    0    0    0    0 -0.00000000000E+00 -0.00000000000E+00 -0.45593999997E+02  0.45594000000E+02  0.51100000000E-03 0. -1.
    9900012    2    1    2    0    0 -0.12489604322E+02  0.78578307718E+01  0.11530078673E+02  0.72461589912E+02  0.70000025556E+02 0.  0.
         12    1    1    2    0    0  0.12489604322E+02 -0.78578307718E+01 -0.11530078673E+02  0.18726410088E+02  0.00000000000E+00 0. -1.
         11    1    3    3    0    0 -0.53525828793E+01 -0.92072313795E+01 -0.12501984399E+02  0.16423241682E+02  0.51100000000E-03 0. -1.
        -11    1    3    3    0    0  0.17197033884E+02  0.53351432346E+01 -0.24951667338E+01  0.18177667205E+02  0.51100000000E-03 0.  1.
         12    1    3    3    0    0 -0.24334055327E+02  0.11729918917E+02  0.26527229806E+02  0.37860681025E+02  0.00000000000E+00 0. -1.
</event>
<event>
 7    1  0.2873608E-013  0.7246147E+02  0.7816164E-02  0.1226708E+00
        -11   -1    0    0    0    0  0.00000000000E+00  0.00000000000E+00  0.45593999997E+02  0.45594000000E+02  0.51100000000E-03 0.  1.
         11   -1    0    0    0    0 -0.00000000000E+00 -0.00000000000E+00 -0.45593999997E+02  0.45594000000E+02  0.51100000000E-03 0. -1.
    9900012    2    1    2    0    0  0.10999217428E+02  0.63332516429E+00  0.15142619796E+02  0.72461472851E+02  0.69999873061E+02 0.  0.
         12    1    1    2    0    0 -0.10999217428E+02 -0.63332516429E+00 -0.15142619796E+02  0.18726527149E+02  0.00000000000E+00 0. -1.
         11    1    3    3    0    0  0.20604172485E+02 -0.13467649703E+02  0.49360985468E+01  0.25105269993E+02  0.51100000000E-03 0. -1.
        -11    1    3    3    0    0  0.29697420111E+00 -0.13963806329E+01  0.24203093681E+02  0.24245160683E+02  0.51100000000E-03 0.  1.
        -12    1    3    3    0    0 -0.99019292582E+01  0.15497355501E+02 -0.13996572432E+02  0.23111042174E+02  0.00000000000E+00 0.  1.
</event>
<event>
 7    1  0.2873608E-013  0.7246150E+02  0.7816164E-02  0.1226708E+00
        -11   -1    0    0    0    0  0.00000000000E+00  0.00000000000E+00  0.45593999997E+02  0.45594000000E+02  0.51100000000E-03 0. -1.
         11   -1    0    0    0    0 -0.00000000000E+00 -0.00000000000E+00 -0.45593999997E+02  0.45594000000E+02  0.51100000000E-03 0.  1.
    9900012    2    1    2    0    0 -0.35337963494E+01  0.32680459832E+01 -0.18097351799E+02  0.72461495165E+02  0.69999902130E+02 0.  0.
         12    1    1    2    0    0  0.35337963494E+01 -0.32680459832E+01  0.18097351799E+02  0.18726504835E+02  0.00000000000E+00 0. -1.
         11    1    3    3    0    0 -0.10913457237E+02 -0.59478570648E+01  0.20552494275E+02  0.24018442367E+02  0.51100000000E-03 0. -1.
        -11    1    3    3    0    0  0.13581654342E+02  0.11672358246E+01 -0.72493381176E+01  0.15439451983E+02  0.51100000000E-03 0.  1.
        -12    1    3    3    0    0 -0.62019934540E+01  0.80486672235E+01 -0.31400507957E+02  0.33003600816E+02  0.00000000000E+00 0.  1.
</event>
<event>
 7    1  0.2873608E-013  0.7246154E+02  0.7816164E-02  0.1226708E+00
        -11   -1    0    0    0    0  0.00000000000E+00  0.00000000000E+00  0.45593999997E+02  0.45594000000E+02  0.51100000000E-03 0.  1.
         11   -1    0    0    0    0 -0.00000000000E+00 -0.00000000000E+00 -0.45593999997E+02  0.45594000000E+02  0.51100000000E-03 0. -1.
    9900012    2    1    2    0    0 -0.14252704394E+01  0.12331681091E+02  0.14020649860E+02  0.72461538058E+02  0.69999958006E+02 0.  0.
         12    1    1    2    0    0  0.14252704394E+01 -0.12331681091E+02 -0.14020649860E+02  0.18726461942E+02  0.00000000000E+00 0. -1.
         11    1    3    3    0    0  0.40712326892E+01 -0.27199813786E+01  0.51213628211E+00  0.49229582714E+01  0.51100000000E-03 0. -1.
        -11    1    3    3    0    0  0.20606603217E+02 -0.12471556066E+02 -0.60860836933E+01  0.24843756194E+02  0.51100000000E-03 0.  1.
         12    1    3    3    0    0 -0.26103106345E+02  0.27523218535E+02  0.19594597272E+02  0.42694823593E+02  0.00000000000E+00 0. -1.
</event>
<event>
 7    1  0.2873608E-013  0.7246153E+02  0.7816164E-02  0.1226708E+00
        -11   -1    0    0    0    0  0.00000000000E+00  0.00000000000E+00  0.45593999997E+02  0.45594000000E+02  0.51100000000E-03 0.  1.
         11   -1    0    0    0    0 -0.00000000000E+00 -0.00000000000E+00 -0.45593999997E+02  0.45594000000E+02  0.51100000000E-03 0. -1.
    9900012    2    1    2    0    0 -0.15671883799E+02  0.27498188163E+01  0.98747810891E+01  0.72461528178E+02  0.69999945136E+02 0.  0.
         12    1    1    2    0    0  0.15671883799E+02 -0.27498188163E+01 -0.98747810891E+01  0.18726471822E+02  0.00000000000E+00 0. -1.
         11    1    3    3    0    0 -0.58852965833E+00  0.26227004603E+02  0.14608254831E+01  0.26274248780E+02  0.51100000000E-03 0.  1.
        -11    1    3    3    0    0  0.90838805893E+01  0.39505663428E+00  0.81592545924E+01  0.12216644059E+02  0.51100000000E-03 0. -1.
        -12    1    3    3    0    0 -0.24167234730E+02 -0.23872242421E+02  0.25470101355E+00  0.33970635339E+02  0.00000000000E+00 0.  1.
</event>
<event>
 7    1  0.3023282E-013  0.7246153E+02  0.7816164E-02  0.1226708E+00
        -11   -1    0    0    0    0  0.00000000000E+00  0.00000000000E+00  0.45593999997E+02  0.45594000000E+02  0.51100000000E-03 0. -1.
         11   -1    0    0    0    0 -0.00000000000E+00 -0.00000000000E+00 -0.45593999997E+02  0.45594000000E+02  0.51100000000E-03 0.  1.
    9900012    2    1    2    0    0  0.90709826937E-01 -0.93733552298E+01 -0.16211498867E+02  0.72461529109E+02  0.69999946348E+02 0.  0.
         12    1    1    2    0    0 -0.90709826937E-01  0.93733552298E+01  0.16211498867E+02  0.18726470891E+02  0.00000000000E+00 0. -1.
         11    1    3    3    0    0  0.11401923949E+02 -0.19015418511E+02  0.16993171304E+02  0.27934886470E+02  0.51100000000E-03 0. -1.
        -11    1    3    3    0    0 -0.16738115950E+02  0.53985598516E+01 -0.98087230230E+01  0.20137527694E+02  0.51100000000E-03 0.  1.
        -12    1    3    3    0    0  0.54269018283E+01  0.42435034297E+01 -0.23395947148E+02  0.24389114944E+02  0.00000000000E+00 0.  1.
</event>
<event>
 7    1  0.2873608E-013  0.7246152E+02  0.7816164E-02  0.1226708E+00
        -11   -1    0    0    0    0  0.00000000000E+00  0.00000000000E+00  0.45593999997E+02  0.45594000000E+02  0.51100000000E-03 0. -1.
         11   -1    0    0    0    0 -0.00000000000E+00 -0.00000000000E+00 -0.45593999997E+02  0.45594000000E+02  0.51100000000E-03 0.  1.
    9900012    2    1    2    0    0  0.33095588480E+01 -0.15830523452E+02 -0.94404576274E+01  0.72461524284E+02  0.69999940063E+02 0.  0.
         12    1    1    2    0    0 -0.33095588480E+01  0.15830523452E+02  0.94404576274E+01  0.18726475716E+02  0.00000000000E+00 0. -1.
         11    1    3    3    0    0 -0.11156443016E+02  0.11730047739E+02 -0.14374334538E+02  0.21649058510E+02  0.51100000000E-03 0. -1.
        -11    1    3    3    0    0  0.43529566825E+01 -0.17171525243E+02 -0.16978827261E+02  0.24537524049E+02  0.51100000000E-03 0.  1.
        -12    1    3    3    0    0  0.10113045181E+02 -0.10389045949E+02  0.21912704171E+02  0.26274941725E+02  0.00000000000E+00 0.  1.
</event>
<event>
 7    1  0.2873608E-013  0.7246156E+02  0.7816164E-02  0.1226708E+00
        -11   -1    0    0    0    0  0.00000000000E+00  0.00000000000E+00  0.45593999997E+02  0.45594000000E+02  0.51100000000E-03 0. -1.
         11   -1    0    0    0    0 -0.00000000000E+00 -0.00000000000E+00 -0.45593999997E+02  0.45594000000E+02  0.51100000000E-03 0.  1.
    9900012    2    1    2    0    0  0.16484868360E+02 -0.59695477886E+01 -0.65797442416E+01  0.72461563608E+02  0.69999991290E+02 0.  0.
         12    1    1    2    0    0 -0.16484868360E+02  0.59695477886E+01  0.65797442416E+01  0.18726436392E+02  0.00000000000E+00 0. -1.
         11    1    3    3    0    0  0.10217860633E+02 -0.36927793460E+01  0.16778134827E+02  0.19988674387E+02  0.51100000000E-03 0. -1.
        -11    1    3    3    0    0 -0.16408606797E+02 -0.17439609538E+01  0.39565408661E+01  0.16968735743E+02  0.51100000000E-03 0.  1.
        -12    1    3    3    0    0  0.22675614524E+02 -0.53280748880E+00 -0.27314419935E+02  0.35504153478E+02  0.00000000000E+00 0.  1.
</event>
<event>
 7    1  0.2873608E-013  0.7246157E+02  0.7816164E-02  0.1226708E+00
        -11   -1    0    0    0    0  0.00000000000E+00  0.00000000000E+00  0.45593999997E+02  0.45594000000E+02  0.51100000000E-03 0.  1.
         11   -1    0    0    0    0 -0.00000000000E+00 -0.00000000000E+00 -0.45593999997E+02  0.45594000000E+02  0.51100000000E-03 0. -1.
    9900012    2    1    2    0    0  0.63503967898E+01  0.66278608037E+00  0.17604330374E+02  0.72461567540E+02  0.69999996412E+02 0.  0.
         12    1    1    2    0    0 -0.63503967898E+01 -0.66278608037E+00 -0.17604330374E+02  0.18726432460E+02  0.00000000000E+00 0. -1.
         11    1    3    3    0    0 -0.23014377637E+02  0.45650534218E+01 -0.72408310245E+01  0.24554651799E+02  0.51100000000E-03 0. -1.
        -11    1    3    3    0    0 -0.19620586343E+01 -0.54400146973E+01  0.13268656634E+02  0.14474138425E+02  0.51100000000E-03 0.  1.
        -12    1    3    3    0    0  0.31326833061E+02  0.15377473559E+01  0.11576504764E+02  0.33432777317E+02  0.00000000000E+00 0.  1.
</event>
<event>
 7    1  0.2873608E-013  0.7246163E+02  0.7816164E-02  0.1226708E+00
        -11   -1    0    0    0    0  0.00000000000E+00  0.00000000000E+00  0.45593999997E+02  0.45594000000E+02  0.51100000000E-03 0.  1.
         11   -1    0    0    0    0 -0.00000000000E+00 -0.00000000000E+00 -0.45593999997E+02  0.45594000000E+02  0.51100000000E-03 0. -1.
    9900012    2    1    2    0    0 -0.10187762043E+02  0.50979934356E+01  0.14862604036E+02  0.72461627387E+02  0.70000074374E+02 0.  0.
         12    1    1    2    0    0  0.10187762043E+02 -0.50979934356E+01 -0.14862604036E+02  0.18726372613E+02  0.00000000000E+00 0. -1.
         11    1    3    3    0    0 -0.18547811709E+02  0.16197016810E+01  0.11891622909E+02  0.22091977014E+02  0.51100000000E-03 0. -1.
        -11    1    3    3    0    0 -0.17462047329E+02  0.10223727023E+02  0.10282671281E+02  0.22697599435E+02  0.51100000000E-03 0.  1.
        -12    1    3    3    0    0  0.25822096995E+02 -0.67454352686E+01 -0.73116901545E+01  0.27672050938E+02  0.00000000000E+00 0.  1.
</event>
<event>
 7    1  0.2873608E-013  0.7246155E+02  0.7816164E-02  0.1226708E+00
        -11   -1    0    0    0    0  0.00000000000E+00  0.00000000000E+00  0.45593999997E+02  0.45594000000E+02  0.51100000000E-03 0. -1.
         11   -1    0    0    0    0 -0.00000000000E+00 -0.00000000000E+00 -0.45593999997E+02  0.45594000000E+02  0.51100000000E-03 0.  1.
    9900012    2    1    2    0    0  0.10495362148E+02  0.71029022269E+01 -0.13786804650E+02  0.72461552683E+02  0.69999977058E+02 0.  0.
         12    1    1    2    0    0 -0.10495362148E+02 -0.71029022269E+01  0.13786804650E+02  0.18726447317E+02  0.00000000000E+00 0. -1.
         11    1    3    3    0    0  0.25047129291E+02  0.84024805961E+01  0.16762456939E+02  0.31288022130E+02  0.51100000000E-03 0. -1.
        -11    1    3    3    0    0  0.30942197705E+01  0.72311227547E+01 -0.10683335081E+02  0.13266385378E+02  0.51100000000E-03 0.  1.
        -12    1    3    3    0    0 -0.17645986914E+02 -0.85307011239E+01 -0.19865926508E+02  0.27907145176E+02  0.00000000000E+00 0.  1.
</event>
<event>
 7    1  0.2873608E-013  0.7246160E+02  0.7816164E-02  0.1226708E+00
        -11   -1    0    0    0    0  0.00000000000E+00  0.00000000000E+00  0.45593999997E+02  0.45594000000E+02  0.51100000000E-03 0.  1.
         11   -1    0    0    0    0 -0.00000000000E+00 -0.00000000000E+00 -0.45593999997E+02  0.45594000000E+02  0.51100000000E-03 0. -1.
    9900012    2    1    2    0    0 -0.58242913821E+01 -0.17791244993E+02  0.47673167388E+00  0.72461600411E+02  0.70000039232E+02 0.  0.
         12    1    1    2    0    0  0.58242913821E+01  0.17791244993E+02 -0.47673167388E+00  0.18726399589E+02  0.00000000000E+00 0. -1.
         11    1    3    3    0    0  0.10283989951E+02 -0.12291961433E+01 -0.85439138697E+01  0.13426460329E+02  0.51100000000E-03 0. -1.
        -11    1    3    3    0    0 -0.91875423334E+01  0.15926881404E+02  0.16813667106E+02  0.24915374515E+02  0.51100000000E-03 0.  1.
         12    1    3    3    0    0 -0.69207390002E+01 -0.32488930253E+02 -0.77930215628E+01  0.34119765567E+02  0.00000000000E+00 0. -1.
</event>
<event>
 7    1  0.2873608E-013  0.7246160E+02  0.7816164E-02  0.1226708E+00
        -11   -1    0    0    0    0  0.00000000000E+00  0.00000000000E+00  0.45593999997E+02  0.45594000000E+02  0.51100000000E-03 0. -1.
         11   -1    0    0    0    0 -0.00000000000E+00 -0.00000000000E+00 -0.45593999997E+02  0.45594000000E+02  0.51100000000E-03 0.  1.
    9900012    2    1    2    0    0  0.32776525937E+01  0.11722719481E+02  0.14230707772E+02  0.72461596121E+02  0.70000033644E+02 0.  0.
         12    1    1    2    0    0 -0.32776525937E+01 -0.11722719481E+02 -0.14230707772E+02  0.18726403879E+02  0.00000000000E+00 0. -1.
         11    1    3    3    0    0  0.46126787771E+00  0.14826634036E+02  0.63741816814E+01  0.16145341039E+02  0.51100000000E-03 0. -1.
        -11    1    3    3    0    0  0.16192606762E+02  0.16814883601E+02 -0.10994281765E+02  0.25803392335E+02  0.51100000000E-03 0.  1.
         12    1    3    3    0    0 -0.13376222046E+02 -0.19918798156E+02  0.18850807855E+02  0.30512862746E+02  0.00000000000E+00 0. -1.
</event>
<event>
 7    1  0.2873608E-013  0.7246230E+02  0.7816164E-02  0.1226706E+00
        -11   -1    0    0    0    0  0.00000000000E+00  0.00000000000E+00  0.45593999997E+02  0.45594000000E+02  0.51100000000E-03 0.  1.
         11   -1    0    0    0    0 -0.00000000000E+00 -0.00000000000E+00 -0.45593999997E+02  0.45594000000E+02  0.51100000000E-03 0. -1.
    9900012    2    1    2    0    0 -0.93853064881E+01 -0.14023656847E+02  0.81181729125E+01  0.72462304801E+02  0.70000956825E+02 0.  0.
         12    1    1    2    0    0  0.93853064881E+01  0.14023656847E+02 -0.81181729125E+01  0.18725695199E+02  0.00000000000E+00 0. -1.
         11    1    3    3    0    0  0.90233001210E+01  0.14781845986E+02 -0.23608300085E+01  0.17478456294E+02  0.51100000000E-03 0. -1.
        -11    1    3    3    0    0  0.56472480601E+00  0.35684831956E+01 -0.11116719821E+02  0.11689073799E+02  0.51100000000E-03 0.  1.
        -12    1    3    3    0    0 -0.18973331415E+02 -0.32373986028E+02  0.21595722742E+02  0.43294774709E+02  0.00000000000E+00 0.  1.
</event>
<event>
 7    1  0.2873608E-013  0.7246157E+02  0.7816164E-02  0.1226708E+00
        -11   -1    0    0    0    0  0.00000000000E+00  0.00000000000E+00  0.45593999997E+02  0.45594000000E+02  0.51100000000E-03 0.  1.
         11   -1    0    0    0    0 -0.00000000000E+00 -0.00000000000E+00 -0.45593999997E+02  0.45594000000E+02  0.51100000000E-03 0. -1.
    9900012    2    1    2    0    0 -0.66964728718E+01 -0.16401358590E+02  0.60689200177E+01  0.72461572078E+02  0.70000002324E+02 0.  0.
         12    1    1    2    0    0  0.66964728718E+01  0.16401358590E+02 -0.60689200177E+01  0.18726427922E+02  0.00000000000E+00 0. -1.
         11    1    3    3    0    0 -0.15741945910E+02 -0.95831254345E+01 -0.22343351061E+02  0.28963261057E+02  0.51100000000E-03 0. -1.
        -11    1    3    3    0    0 -0.53091879419E+01  0.94665822242E+01  0.64882211942E+01  0.12645183673E+02  0.51100000000E-03 0.  1.
        -12    1    3    3    0    0  0.14354660980E+02 -0.16284815380E+02  0.21924049885E+02  0.30853127348E+02  0.00000000000E+00 0.  1.
</event>
<event>
 7    1  0.2873608E-013  0.7246155E+02  0.7816164E-02  0.1226708E+00
        -11   -1    0    0    0    0  0.00000000000E+00  0.00000000000E+00  0.45593999997E+02  0.45594000000E+02  0.51100000000E-03 0.  1.
         11   -1    0    0    0    0 -0.00000000000E+00 -0.00000000000E+00 -0.45593999997E+02  0.45594000000E+02  0.51100000000E-03 0. -1.
    9900012    2    1    2    0    0 -0.40575717619E+00 -0.85396526341E+01  0.16661016258E+02  0.72461554295E+02  0.69999979158E+02 0.  0.
         12    1    1    2    0    0  0.40575717619E+00  0.85396526341E+01 -0.16661016258E+02  0.18726445705E+02  0.00000000000E+00 0. -1.
         11    1    3    3    0    0 -0.62558875792E+01 -0.19974618106E+02 -0.98040490642E+01  0.23113651295E+02  0.51100000000E-03 0. -1.
        -11    1    3    3    0    0  0.11724818591E+02 -0.47399807913E+01  0.29294799606E+02  0.31908056555E+02  0.51100000000E-03 0.  1.
        -12    1    3    3    0    0 -0.58746881878E+01  0.16174946263E+02 -0.28297342837E+01  0.17439846445E+02  0.00000000000E+00 0.  1.
</event>
<event>
 7    1  0.2873608E-013  0.7246157E+02  0.7816164E-02  0.1226708E+00
        -11   -1    0    0    0    0  0.00000000000E+00  0.00000000000E+00  0.45593999997E+02  0.45594000000E+02  0.51100000000E-03 0.  1.
         11   -1    0    0    0    0 -0.00000000000E+00 -0.00000000000E+00 -0.45593999997E+02  0.45594000000E+02  0.51100000000E-03 0. -1.
    9900012    2    1    2    0    0 -0.17993703111E+02 -0.17915715976E+01  0.48678461555E+01  0.72461574643E+02  0.70000005665E+02 0.  0.
         12    1    1    2    0    0  0.17993703111E+02  0.17915715976E+01 -0.48678461555E+01  0.18726425357E+02  0.00000000000E+00 0. -1.
         11    1    3    3    0    0 -0.16320339414E+02 -0.22350932309E+02 -0.25574704524E+01  0.27793134207E+02  0.51100000000E-03 0. -1.
        -11    1    3    3    0    0 -0.49323606088E+01 -0.69690827681E+01  0.13796830561E+02  0.16224944672E+02  0.51100000000E-03 0.  1.
         12    1    3    3    0    0  0.32589969115E+01  0.27528443479E+02 -0.63715139532E+01  0.28443495765E+02  0.00000000000E+00 0. -1.
</event>
<event>
 7    1  0.2873608E-013  0.7246157E+02  0.7816164E-02  0.1226708E+00
        -11   -1    0    0    0    0  0.00000000000E+00  0.00000000000E+00  0.45593999997E+02  0.45594000000E+02  0.51100000000E-03 0. -1.
         11   -1    0    0    0    0 -0.00000000000E+00 -0.00000000000E+00 -0.45593999997E+02  0.45594000000E+02  0.51100000000E-03 0.  1.
    9900012    2    1    2    0    0 -0.31213876707E+01  0.12489895681E+02 -0.13599213501E+02  0.72461570470E+02  0.70000000228E+02 0.  0.
         12    1    1    2    0    0  0.31213876707E+01 -0.12489895681E+02  0.13599213501E+02  0.18726429530E+02  0.00000000000E+00 0. -1.
         11    1    3    3    0    0  0.55720382295E+01  0.36717731150E+01  0.15528145606E+02  0.16901267232E+02  0.51100000000E-03 0. -1.
        -11    1    3    3    0    0 -0.15005000110E+02 -0.12365395188E+02 -0.57520476124E+00  0.19452092105E+02  0.51100000000E-03 0.  1.
         12    1    3    3    0    0  0.63115742101E+01  0.21183517754E+02 -0.28552154345E+02  0.36108211133E+02  0.00000000000E+00 0. -1.
</event>
<event>
 7    1  0.2873608E-013  0.7246192E+02  0.7816164E-02  0.1226707E+00
        -11   -1    0    0    0    0  0.00000000000E+00  0.00000000000E+00  0.45593999997E+02  0.45594000000E+02  0.51100000000E-03 0.  1.
         11   -1    0    0    0    0 -0.00000000000E+00 -0.00000000000E+00 -0.45593999997E+02  0.45594000000E+02  0.51100000000E-03 0. -1.
    9900012    2    1    2    0    0 -0.40874532184E+01  0.16862414064E+02 -0.70439995446E+01  0.72461916281E+02  0.70000450710E+02 0.  0.
         12    1    1    2    0    0  0.40874532184E+01 -0.16862414064E+02  0.70439995446E+01  0.18726083719E+02  0.00000000000E+00 0. -1.
         11    1    3    3    0    0 -0.82284626895E+01 -0.60159873457E+00  0.62727473631E+01  0.10364211452E+02  0.51100000000E-03 0. -1.
        -11    1    3    3    0    0  0.89774604344E+01 -0.18404769580E+02  0.56404778002E+01  0.21240181949E+02  0.51100000000E-03 0.  1.
         12    1    3    3    0    0 -0.48364509633E+01  0.35868782379E+02 -0.18957224708E+02  0.40857522880E+02  0.00000000000E+00 0. -1.
</event>
<event>
 7    1  0.2873608E-013  0.7246163E+02  0.7816164E-02  0.1226708E+00
        -11   -1    0    0    0    0  0.00000000000E+00  0.00000000000E+00  0.45593999997E+02  0.45594000000E+02  0.51100000000E-03 0. -1.
         11   -1    0    0    0    0 -0.00000000000E+00 -0.00000000000E+00 -0.45593999997E+02  0.45594000000E+02  0.51100000000E-03 0.  1.
    9900012    2    1    2    0    0 -0.12019116385E+02 -0.27003795157E+01 -0.14104101855E+02  0.72461630962E+02  0.70000079031E+02 0.  0.
         12    1    1    2    0    0  0.12019116385E+02  0.27003795157E+01  0.14104101855E+02  0.18726369038E+02  0.00000000000E+00 0. -1.
         11    1    3    3    0    0 -0.28504907190E+02 -0.99739640249E+01  0.16712221061E+01  0.30245705082E+02  0.51100000000E-03 0. -1.
        -11    1    3    3    0    0 -0.86587368267E+01  0.53075139381E+01  0.32061088235E+01  0.10650002896E+02  0.51100000000E-03 0.  1.
        -12    1    3    3    0    0  0.25144527632E+02  0.19660705711E+01 -0.18981432784E+02  0.31565922985E+02  0.00000000000E+00 0.  1.
</event>
<event>
 7    1  0.2873608E-013  0.7246159E+02  0.7816164E-02  0.1226708E+00
        -11   -1    0    0    0    0  0.00000000000E+00  0.00000000000E+00  0.45593999997E+02  0.45594000000E+02  0.51100000000E-03 0.  1.
         11   -1    0    0    0    0 -0.00000000000E+00 -0.00000000000E+00 -0.45593999997E+02  0.45594000000E+02  0.51100000000E-03 0. -1.
    9900012    2    1    2    0    0 -0.18599454287E+02  0.15397722451E+01  0.15388215187E+01  0.72461586302E+02  0.70000020852E+02 0.  0.
         12    1    1    2    0    0  0.18599454287E+02 -0.15397722451E+01 -0.15388215187E+01  0.18726413698E+02  0.00000000000E+00 0. -1.
         11    1    3    3    0    0 -0.45399604021E+01 -0.93372368988E+01 -0.75707948496E+01  0.12849597981E+02  0.51100000000E-03 0. -1.
        -11    1    3    3    0    0 -0.32532018677E+02 -0.68799835820E+01  0.61934849561E+01  0.33823448515E+02  0.51100000000E-03 0.  1.
         12    1    3    3    0    0  0.18472524792E+02  0.17756992726E+02  0.29161314122E+01  0.25788539805E+02  0.00000000000E+00 0. -1.
</event>
<event>
 7    1  0.2873608E-013  0.7246156E+02  0.7816164E-02  0.1226708E+00
        -11   -1    0    0    0    0  0.00000000000E+00  0.00000000000E+00  0.45593999997E+02  0.45594000000E+02  0.51100000000E-03 0. -1.
         11   -1    0    0    0    0 -0.00000000000E+00 -0.00000000000E+00 -0.45593999997E+02  0.45594000000E+02  0.51100000000E-03 0.  1.
    9900012    2    1    2    0    0 -0.32343067393E+01 -0.18339194107E+02  0.19729653886E+01  0.72461564862E+02  0.69999992923E+02 0.  0.
         12    1    1    2    0    0  0.32343067393E+01  0.18339194107E+02 -0.19729653886E+01  0.18726435138E+02  0.00000000000E+00 0. -1.
         11    1    3    3    0    0 -0.39172436008E+01 -0.11984315809E+02  0.10539125633E+02  0.16432948372E+02  0.51100000000E-03 0. -1.
        -11    1    3    3    0    0  0.15547234925E+02  0.18318429971E+02  0.44232582730E+01  0.24430444212E+02  0.51100000000E-03 0.  1.
        -12    1    3    3    0    0 -0.14864298063E+02 -0.24673308268E+02 -0.12989418517E+02  0.31598172277E+02  0.00000000000E+00 0.  1.
</event>
<event>
 7    1  0.2873608E-013  0.7246165E+02  0.7816164E-02  0.1226708E+00
        -11   -1    0    0    0    0  0.00000000000E+00  0.00000000000E+00  0.45593999997E+02  0.45594000000E+02  0.51100000000E-03 0.  1.
         11   -1    0    0    0    0 -0.00000000000E+00 -0.00000000000E+00 -0.45593999997E+02  0.45594000000E+02  0.51100000000E-03 0. -1.
    9900012    2    1    2    0    0 -0.12373054017E+02 -0.90496352189E+01 -0.10755823814E+02  0.72461652005E+02  0.70000106443E+02 0.  0.
         12    1    1    2    0    0  0.12373054017E+02  0.90496352189E+01  0.10755823814E+02  0.18726347995E+02  0.00000000000E+00 0. -1.
         11    1    3    3    0    0  0.18582557096E+02 -0.43887618772E+01 -0.77402094116E+01  0.20602997380E+02  0.51100000000E-03 0. -1.
        -11    1    3    3    0    0 -0.72519583829E+01  0.13044919158E+02  0.11558413373E+02  0.18877439874E+02  0.51100000000E-03 0.  1.
        -12    1    3    3    0    0 -0.23703652731E+02 -0.17705792499E+02 -0.14574027776E+02  0.32981214751E+02  0.00000000000E+00 0.  1.
</event>
<event>
 7    1  0.2873608E-013  0.7246159E+02  0.7816164E-02  0.1226708E+00
        -11   -1    0    0    0    0  0.00000000000E+00  0.00000000000E+00  0.45593999997E+02  0.45594000000E+02  0.51100000000E-03 0.  1.
         11   -1    0    0    0    0 -0.00000000000E+00 -0.00000000000E+00 -0.45593999997E+02  0.45594000000E+02  0.51100000000E-03 0. -1.
    9900012    2    1    2    0    0  0.22990885426E+01 -0.10228231900E+01  0.18556570906E+02  0.72461593533E+02  0.70000030272E+02 0.  0.
         12    1    1    2    0    0 -0.22990885426E+01  0.10228231900E+01 -0.18556570906E+02  0.18726406467E+02  0.00000000000E+00 0. -1.
         11    1    3    3    0    0 -0.17650801273E+02 -0.11835041691E+02  0.11643583574E+02  0.24232045644E+02  0.51100000000E-03 0. -1.
        -11    1    3    3    0    0  0.18728485218E+02  0.13424208152E+01  0.22896678754E+02  0.29611081548E+02  0.51100000000E-03 0.  1.
        -12    1    3    3    0    0  0.12214045976E+01  0.94697976860E+01 -0.15983691422E+02  0.18618466341E+02  0.00000000000E+00 0.  1.
</event>
<event>
 7    1  0.2873608E-013  0.7246158E+02  0.7816164E-02  0.1226708E+00
        -11   -1    0    0    0    0  0.00000000000E+00  0.00000000000E+00  0.45593999997E+02  0.45594000000E+02  0.51100000000E-03 0. -1.
         11   -1    0    0    0    0 -0.00000000000E+00 -0.00000000000E+00 -0.45593999997E+02  0.45594000000E+02  0.51100000000E-03 0.  1.
    9900012    2    1    2    0    0 -0.14977202844E+02  0.14024182575E+01 -0.11153264501E+02  0.72461583070E+02  0.70000016643E+02 0.  0.
         12    1    1    2    0    0  0.14977202844E+02 -0.14024182575E+01  0.11153264501E+02  0.18726416930E+02  0.00000000000E+00 0. -1.
         11    1    3    3    0    0 -0.68731461382E+01  0.17748948765E+02  0.14347040876E+01  0.19087265288E+02  0.51100000000E-03 0. -1.
        -11    1    3    3    0    0 -0.23115349011E+02  0.55601914292E+01 -0.12406914660E+02  0.26817282119E+02  0.51100000000E-03 0.  1.
         12    1    3    3    0    0  0.15011292305E+02 -0.21906721937E+02 -0.18105392904E+00  0.26557035663E+02  0.00000000000E+00 0. -1.
</event>
<event>
 7    1  0.2873608E-013  0.7246157E+02  0.7816164E-02  0.1226708E+00
        -11   -1    0    0    0    0  0.00000000000E+00  0.00000000000E+00  0.45593999997E+02  0.45594000000E+02  0.51100000000E-03 0.  1.
         11   -1    0    0    0    0 -0.00000000000E+00 -0.00000000000E+00 -0.45593999997E+02  0.45594000000E+02  0.51100000000E-03 0. -1.
    9900012    2    1    2    0    0  0.11674374743E+02  0.11717837020E+02  0.87795432374E+01  0.72461571896E+02  0.70000002086E+02 0.  0.
         12    1    1    2    0    0 -0.11674374743E+02 -0.11717837020E+02 -0.87795432374E+01  0.18726428104E+02  0.00000000000E+00 0. -1.
         11    1    3    3    0    0 -0.10290085668E+02 -0.52774045336E+01 -0.18604570800E+02  0.21905864889E+02  0.51100000000E-03 0. -1.
        -11    1    3    3    0    0  0.22504027334E+02  0.37339311536E-02  0.61007293340E+01  0.23316306716E+02  0.51100000000E-03 0.  1.
        -12    1    3    3    0    0 -0.53956692318E+00  0.16991507623E+02  0.21283384703E+02  0.27239400290E+02  0.00000000000E+00 0.  1.
</event>
<event>
 7    1  0.2873608E-013  0.7246158E+02  0.7816164E-02  0.1226708E+00
        -11   -1    0    0    0    0  0.00000000000E+00  0.00000000000E+00  0.45593999997E+02  0.45594000000E+02  0.51100000000E-03 0.  1.
         11   -1    0    0    0    0 -0.00000000000E+00 -0.00000000000E+00 -0.45593999997E+02  0.45594000000E+02  0.51100000000E-03 0. -1.
    9900012    2    1    2    0    0 -0.17917499572E+02 -0.19601983514E+00 -0.54409118262E+01  0.72461581864E+02  0.70000015072E+02 0.  0.
         12    1    1    2    0    0  0.17917499572E+02  0.19601983514E+00  0.54409118262E+01  0.18726418136E+02  0.00000000000E+00 0. -1.
         11    1    3    3    0    0 -0.26469406329E+01 -0.20298226355E+02 -0.13647330658E+02  0.24602315383E+02  0.51100000000E-03 0. -1.
        -11    1    3    3    0    0 -0.24774076150E+02  0.39407347698E+01  0.13351694541E+02  0.28417459193E+02  0.51100000000E-03 0.  1.
        -12    1    3    3    0    0  0.95035172110E+01  0.16161471750E+02 -0.51452757088E+01  0.19441807288E+02  0.00000000000E+00 0.  1.
</event>
<event>
 7    1  0.2873608E-013  0.7246146E+02  0.7816164E-02  0.1226708E+00
        -11   -1    0    0    0    0  0.00000000000E+00  0.00000000000E+00  0.45593999997E+02  0.45594000000E+02  0.51100000000E-03 0.  1.
         11   -1    0    0    0    0 -0.00000000000E+00 -0.00000000000E+00 -0.45593999997E+02  0.45594000000E+02  0.51100000000E-03 0. -1.
    9900012    2    1    2    0    0 -0.43615381082E+01  0.65981844122E+01  0.16974222281E+02  0.72461460698E+02  0.69999857230E+02 0.  0.
         12    1    1    2    0    0  0.43615381082E+01 -0.65981844122E+01 -0.16974222281E+02  0.18726539302E+02  0.00000000000E+00 0. -1.
         11    1    3    3    0    0  0.27599582670E+02 -0.61623735855E+01  0.78388449117E+01  0.29345515868E+02  0.51100000000E-03 0. -1.
        -11    1    3    3    0    0 -0.25037518858E+01  0.18826487690E+01  0.11216158842E+02  0.11645400780E+02  0.51100000000E-03 0.  1.
         12    1    3    3    0    0 -0.29457368892E+02  0.10877909229E+02 -0.20807814726E+01  0.31470544050E+02  0.00000000000E+00 0. -1.
</event>
<event>
 7    1  0.2873608E-013  0.7246159E+02  0.7816164E-02  0.1226708E+00
        -11   -1    0    0    0    0  0.00000000000E+00  0.00000000000E+00  0.45593999997E+02  0.45594000000E+02  0.51100000000E-03 0. -1.
         11   -1    0    0    0    0 -0.00000000000E+00 -0.00000000000E+00 -0.45593999997E+02  0.45594000000E+02  0.51100000000E-03 0.  1.
    9900012    2    1    2    0    0  0.51151231844E+01 -0.12629184527E+02 -0.12845918869E+02  0.72461590344E+02  0.70000026118E+02 0.  0.
         12    1    1    2    0    0 -0.51151231844E+01  0.12629184527E+02  0.12845918869E+02  0.18726409656E+02  0.00000000000E+00 0. -1.
         11    1    3    3    0    0 -0.39761556707E+01  0.15264406270E+02 -0.21180426266E+01  0.15915339064E+02  0.51100000000E-03 0. -1.
        -11    1    3    3    0    0  0.98111975259E+01 -0.23561397748E+02 -0.28489452388E+02  0.38249809913E+02  0.51100000000E-03 0.  1.
         12    1    3    3    0    0 -0.71991867077E+00 -0.43321930499E+01  0.17761576146E+02  0.18296441367E+02  0.00000000000E+00 0. -1.
</event>
<event>
 7    1  0.2873608E-013  0.7246156E+02  0.7816164E-02  0.1226708E+00
        -11   -1    0    0    0    0  0.00000000000E+00  0.00000000000E+00  0.45593999997E+02  0.45594000000E+02  0.51100000000E-03 0.  1.
         11   -1    0    0    0    0 -0.00000000000E+00 -0.00000000000E+00 -0.45593999997E+02  0.45594000000E+02  0.51100000000E-03 0. -1.
    9900012    2    1    2    0    0  0.31977519545E+01  0.17442142490E+02  0.60187602918E+01  0.72461563402E+02  0.69999991021E+02 0.  0.
         12    1    1    2    0    0 -0.31977519545E+01 -0.17442142490E+02 -0.60187602918E+01  0.18726436598E+02  0.00000000000E+00 0. -1.
         11    1    3    3    0    0  0.13043145600E+02  0.14746782396E+01 -0.15141827962E+01  0.13213291522E+02  0.51100000000E-03 0. -1.
        -11    1    3    3    0    0  0.31681434803E+01  0.30407746002E+02  0.19649367818E+02  0.36342341779E+02  0.51100000000E-03 0.  1.
         12    1    3    3    0    0 -0.13013537125E+02 -0.14440281752E+02 -0.12116424730E+02  0.22905930101E+02  0.00000000000E+00 0. -1.
</event>
<event>
 7    1  0.2873608E-013  0.7246155E+02  0.7816164E-02  0.1226708E+00
        -11   -1    0    0    0    0  0.00000000000E+00  0.00000000000E+00  0.45593999997E+02  0.45594000000E+02  0.51100000000E-03 0.  1.
         11   -1    0    0    0    0 -0.00000000000E+00 -0.00000000000E+00 -0.45593999997E+02  0.45594000000E+02  0.51100000000E-03 0. -1.
    9900012    2    1    2    0    0 -0.12584677366E+02  0.11583436036E+02  0.76242966958E+01  0.72461548256E+02  0.69999971291E+02 0.  0.
         12    1    1    2    0    0  0.12584677366E+02 -0.11583436036E+02 -0.76242966958E+01  0.18726451744E+02  0.00000000000E+00 0. -1.
         11    1    3    3    0    0 -0.68486497488E+01  0.63040157951E+01  0.16865044595E+02  0.19263290165E+02  0.51100000000E-03 0.  1.
        -11    1    3    3    0    0 -0.96220357779E+01  0.48333414584E+01 -0.30103846583E+02  0.31971649027E+02  0.51100000000E-03 0. -1.
         12    1    3    3    0    0  0.38860081604E+01  0.44607878210E+00  0.20863098683E+02  0.21226609064E+02  0.00000000000E+00 0. -1.
</event>
<event>
 7    1  0.2873608E-013  0.7246150E+02  0.7816164E-02  0.1226708E+00
        -11   -1    0    0    0    0  0.00000000000E+00  0.00000000000E+00  0.45593999997E+02  0.45594000000E+02  0.51100000000E-03 0.  1.
         11   -1    0    0    0    0 -0.00000000000E+00 -0.00000000000E+00 -0.45593999997E+02  0.45594000000E+02  0.51100000000E-03 0. -1.
    9900012    2    1    2    0    0  0.12914579151E+00 -0.13569456591E+01  0.18676821641E+02  0.72461504152E+02  0.69999913837E+02 0.  0.
         12    1    1    2    0    0 -0.12914579151E+00  0.13569456591E+01 -0.18676821641E+02  0.18726495848E+02  0.00000000000E+00 0. -1.
         11    1    3    3    0    0 -0.24575562903E+02  0.15436748819E+02 -0.50805552954E+01  0.29462918193E+02  0.51100000000E-03 0. -1.
        -11    1    3    3    0    0  0.19134150781E+01 -0.11827286431E+02  0.46726822381E+01  0.12860008598E+02  0.51100000000E-03 0.  1.
        -12    1    3    3    0    0  0.22791293616E+02 -0.49664080463E+01  0.19084694698E+02  0.30138577360E+02  0.00000000000E+00 0.  1.
</event>
<event>
 7    1  0.2873608E-013  0.7246155E+02  0.7816164E-02  0.1226708E+00
        -11   -1    0    0    0    0  0.00000000000E+00  0.00000000000E+00  0.45593999997E+02  0.45594000000E+02  0.51100000000E-03 0. -1.
         11   -1    0    0    0    0 -0.00000000000E+00 -0.00000000000E+00 -0.45593999997E+02  0.45594000000E+02  0.51100000000E-03 0.  1.
    9900012    2    1    2    0    0  0.14478910232E+02  0.61456648151E+00 -0.11860155734E+02  0.72461552726E+02  0.69999977114E+02 0.  0.
         12    1    1    2    0    0 -0.14478910232E+02 -0.61456648151E+00  0.11860155734E+02  0.18726447274E+02  0.00000000000E+00 0. -1.
         11    1    3    3    0    0  0.42848658638E+01 -0.15770077044E+02  0.11157048253E+02  0.19787246686E+02  0.51100000000E-03 0. -1.
        -11    1    3    3    0    0  0.92553759232E+01 -0.13488834176E+02 -0.13785697767E+02  0.21392898216E+02  0.51100000000E-03 0.  1.
        -12    1    3    3    0    0  0.93866844451E+00  0.29873477701E+02 -0.92315062206E+01  0.31281407825E+02  0.00000000000E+00 0.  1.
</event>
<event>
 7    1  0.2873608E-013  0.7246167E+02  0.7816164E-02  0.1226708E+00
        -11   -1    0    0    0    0  0.00000000000E+00  0.00000000000E+00  0.45593999997E+02  0.45594000000E+02  0.51100000000E-03 0.  1.
         11   -1    0    0    0    0 -0.00000000000E+00 -0.00000000000E+00 -0.45593999997E+02  0.45594000000E+02  0.51100000000E-03 0. -1.
    9900012    2    1    2    0    0 -0.23897981458E+01 -0.33618305051E+01  0.18266431979E+02  0.72461666222E+02  0.70000124963E+02 0.  0.
         12    1    1    2    0    0  0.23897981458E+01  0.33618305051E+01 -0.18266431979E+02  0.18726333778E+02  0.00000000000E+00 0. -1.
         11    1    3    3    0    0 -0.12477215074E+01  0.26502096953E+01  0.11113271512E+02  0.11492833608E+02  0.51100000000E-03 0. -1.
        -11    1    3    3    0    0 -0.21812449001E+02  0.54666166565E+01  0.23265879501E+02  0.32356884558E+02  0.51100000000E-03 0.  1.
         12    1    3    3    0    0  0.20670372363E+02 -0.11478656857E+02 -0.16112719034E+02  0.28611948055E+02  0.00000000000E+00 0. -1.
</event>
<event>
 7    1  0.2873608E-013  0.7246168E+02  0.7816164E-02  0.1226708E+00
        -11   -1    0    0    0    0  0.00000000000E+00  0.00000000000E+00  0.45593999997E+02  0.45594000000E+02  0.51100000000E-03 0. -1.
         11   -1    0    0    0    0 -0.00000000000E+00 -0.00000000000E+00 -0.45593999997E+02  0.45594000000E+02  0.51100000000E-03 0.  1.
    9900012    2    1    2    0    0 -0.12826596683E+02  0.10210074181E+02 -0.90503008314E+01  0.72461677820E+02  0.70000140072E+02 0.  0.
         12    1    1    2    0    0  0.12826596683E+02 -0.10210074181E+02  0.90503008314E+01  0.18726322180E+02  0.00000000000E+00 0. -1.
         11    1    3    3    0    0 -0.91240394291E+00  0.17974638860E+02 -0.14276165073E+02  0.22972353222E+02  0.51100000000E-03 0. -1.
        -11    1    3    3    0    0 -0.21050861531E+02  0.28004946774E+01 -0.14212177382E+02  0.25553229303E+02  0.51100000000E-03 0.  1.
         12    1    3    3    0    0  0.91366687905E+01 -0.10565059357E+02  0.19438041623E+02  0.23936095295E+02  0.00000000000E+00 0. -1.
</event>
<event>
 7    1  0.2873608E-013  0.7246156E+02  0.7816164E-02  0.1226708E+00
        -11   -1    0    0    0    0  0.00000000000E+00  0.00000000000E+00  0.45593999997E+02  0.45594000000E+02  0.51100000000E-03 0. -1.
         11   -1    0    0    0    0 -0.00000000000E+00 -0.00000000000E+00 -0.45593999997E+02  0.45594000000E+02  0.51100000000E-03 0.  1.
    9900012    2    1    2    0    0 -0.86178811062E+01  0.15928093795E+02 -0.47652387352E+01  0.72461560218E+02  0.69999986874E+02 0.  0.
         12    1    1    2    0    0  0.86178811062E+01 -0.15928093795E+02  0.47652387352E+01  0.18726439782E+02  0.00000000000E+00 0. -1.
         11    1    3    3    0    0  0.15593210250E+02 -0.18069508966E+02  0.97872785607E+01  0.25796243565E+02  0.51100000000E-03 0. -1.
        -11    1    3    3    0    0 -0.29155508949E+01  0.10163671428E+02  0.18598579778E+01  0.10735908246E+02  0.51100000000E-03 0.  1.
        -12    1    3    3    0    0 -0.21295540461E+02  0.23833931333E+02 -0.16412375274E+02  0.35929408407E+02  0.00000000000E+00 0.  1.
</event>
<event>
 7    1  0.2873608E-013  0.7246160E+02  0.7816164E-02  0.1226708E+00
        -11   -1    0    0    0    0  0.00000000000E+00  0.00000000000E+00  0.45593999997E+02  0.45594000000E+02  0.51100000000E-03 0. -1.
         11   -1    0    0    0    0 -0.00000000000E+00 -0.00000000000E+00 -0.45593999997E+02  0.45594000000E+02  0.51100000000E-03 0.  1.
    9900012    2    1    2    0    0  0.79980493494E+01  0.14069505587E+01 -0.16873935968E+02  0.72461601032E+02  0.70000040041E+02 0.  0.
         12    1    1    2    0    0 -0.79980493494E+01 -0.14069505587E+01  0.16873935968E+02  0.18726398968E+02  0.00000000000E+00 0. -1.
         11    1    3    3    0    0  0.10361981878E+02 -0.45917487224E+01  0.66826347698E-01  0.11333988300E+02  0.51100000000E-03 0. -1.
        -11    1    3    3    0    0  0.14490581227E+01 -0.71513936330E+01 -0.36516756679E+02  0.37238632077E+02  0.51100000000E-03 0.  1.
         12    1    3    3    0    0 -0.38129906513E+01  0.13150092914E+02  0.19575994364E+02  0.23888980654E+02  0.00000000000E+00 0. -1.
</event>
<event>
 7    1  0.2873608E-013  0.7246158E+02  0.7816164E-02  0.1226708E+00
        -11   -1    0    0    0    0  0.00000000000E+00  0.00000000000E+00  0.45593999997E+02  0.45594000000E+02  0.51100000000E-03 0.  1.
         11   -1    0    0    0    0 -0.00000000000E+00 -0.00000000000E+00 -0.45593999997E+02  0.45594000000E+02  0.51100000000E-03 0. -1.
    9900012    2    1    2    0    0 -0.16842786647E+02 -0.39369830088E+00  0.81758400024E+01  0.72461579623E+02  0.70000012153E+02 0.  0.
         12    1    1    2    0    0  0.16842786647E+02  0.39369830088E+00 -0.81758400024E+01  0.18726420377E+02  0.00000000000E+00 0. -1.
         11    1    3    3    0    0 -0.24993371166E+02 -0.77461571049E+01 -0.81606639372E+01  0.27409268292E+02  0.51100000000E-03 0. -1.
        -11    1    3    3    0    0  0.37427800094E+01  0.12567230153E+02 -0.10851168804E+02  0.17020327277E+02  0.51100000000E-03 0.  1.
        -12    1    3    3    0    0  0.44078045098E+01 -0.52147713490E+01  0.27187672744E+02  0.28031984055E+02  0.00000000000E+00 0.  1.
</event>
<event>
 7    1  0.2873608E-013  0.7246154E+02  0.7816164E-02  0.1226708E+00
        -11   -1    0    0    0    0  0.00000000000E+00  0.00000000000E+00  0.45593999997E+02  0.45594000000E+02  0.51100000000E-03 0. -1.
         11   -1    0    0    0    0 -0.00000000000E+00 -0.00000000000E+00 -0.45593999997E+02  0.45594000000E+02  0.51100000000E-03 0.  1.
    9900012    2    1    2    0    0 -0.12999129197E+02 -0.12870572304E+02 -0.40064276889E+01  0.72461535994E+02  0.69999955318E+02 0.  0.
         12    1    1    2    0    0  0.12999129197E+02  0.12870572304E+02  0.40064276889E+01  0.18726464006E+02  0.00000000000E+00 0. -1.
         11    1    3    3    0    0  0.92176053565E+01 -0.56790734527E+01  0.15006333543E+02  0.18504220342E+02  0.51100000000E-03 0. -1.
        -11    1    3    3    0    0 -0.32535423405E+02 -0.50003112725E+01 -0.82016488092E+00  0.32927641270E+02  0.51100000000E-03 0.  1.
         12    1    3    3    0    0  0.10318688851E+02 -0.21911875790E+01 -0.18192596351E+02  0.21029674382E+02  0.00000000000E+00 0. -1.
</event>
<event>
 7    1  0.2873608E-013  0.7246147E+02  0.7816164E-02  0.1226708E+00
        -11   -1    0    0    0    0  0.00000000000E+00  0.00000000000E+00  0.45593999997E+02  0.45594000000E+02  0.51100000000E-03 0.  1.
         11   -1    0    0    0    0 -0.00000000000E+00 -0.00000000000E+00 -0.45593999997E+02  0.45594000000E+02  0.51100000000E-03 0. -1.
    9900012    2    1    2    0    0 -0.15839126653E+02  0.84325593992E+01  0.53569366417E+01  0.72461474393E+02  0.69999875070E+02 0.  0.
         12    1    1    2    0    0  0.15839126653E+02 -0.84325593992E+01 -0.53569366417E+01  0.18726525607E+02  0.00000000000E+00 0. -1.
         11    1    3    3    0    0 -0.82820362854E+01 -0.56718523362E+01  0.10682602200E+02  0.14658786579E+02  0.51100000000E-03 0. -1.
        -11    1    3    3    0    0  0.13703908921E+02  0.15983385024E+02  0.16892850551E+02  0.26993223530E+02  0.51100000000E-03 0.  1.
         12    1    3    3    0    0 -0.21260999288E+02 -0.18789732885E+01 -0.22218516109E+02  0.30809464283E+02  0.00000000000E+00 0. -1.
</event>
<event>
 7    1  0.2873608E-013  0.7246162E+02  0.7816164E-02  0.1226708E+00
        -11   -1    0    0    0    0  0.00000000000E+00  0.00000000000E+00  0.45593999997E+02  0.45594000000E+02  0.51100000000E-03 0.  1.
         11   -1    0    0    0    0 -0.00000000000E+00 -0.00000000000E+00 -0.45593999997E+02  0.45594000000E+02  0.51100000000E-03 0. -1.
    9900012    2    1    2    0    0 -0.13542947726E+02 -0.65972492928E+01 -0.11123947439E+02  0.72461619197E+02  0.70000063705E+02 0.  0.
         12    1    1    2    0    0  0.13542947726E+02  0.65972492928E+01  0.11123947439E+02  0.18726380803E+02  0.00000000000E+00 0. -1.
         11    1    3    3    0    0 -0.13054638371E+02 -0.45068793750E+01  0.18886044470E+01  0.13939238563E+02  0.51100000000E-03 0. -1.
        -11    1    3    3    0    0 -0.16415171819E+01 -0.74829888062E+01  0.21887422702E+02  0.23189415106E+02  0.51100000000E-03 0.  1.
         12    1    3    3    0    0  0.11532078263E+01  0.53926188883E+01 -0.34899974588E+02  0.35332965528E+02  0.00000000000E+00 0. -1.
</event>
<event>
 7    1  0.2873608E-013  0.7246160E+02  0.7816164E-02  0.1226708E+00
        -11   -1    0    0    0    0  0.00000000000E+00  0.00000000000E+00  0.45593999997E+02  0.45594000000E+02  0.51100000000E-03 0.  1.
         11   -1    0    0    0    0 -0.00000000000E+00 -0.00000000000E+00 -0.45593999997E+02  0.45594000000E+02  0.51100000000E-03 0. -1.
    9900012    2    1    2    0    0 -0.17606442130E+02 -0.31875499478E+01 -0.55254792864E+01  0.72461596168E+02  0.70000033705E+02 0.  0.
         12    1    1    2    0    0  0.17606442130E+02  0.31875499478E+01  0.55254792864E+01  0.18726403832E+02  0.00000000000E+00 0. -1.
         11    1    3    3    0    0  0.10457653763E+02  0.20041102501E+02 -0.86234435938E+00  0.22621935146E+02  0.51100000000E-03 0. -1.
        -11    1    3    3    0    0  0.68186694682E+01 -0.79973128974E+00  0.32895012303E+01  0.76127946286E+01  0.51100000000E-03 0.  1.
         12    1    3    3    0    0 -0.34882765361E+02 -0.22428921159E+02 -0.79526361573E+01  0.42226866394E+02  0.00000000000E+00 0. -1.
</event>
<event>
 7    1  0.2873608E-013  0.7246158E+02  0.7816164E-02  0.1226708E+00
        -11   -1    0    0    0    0  0.00000000000E+00  0.00000000000E+00  0.45593999997E+02  0.45594000000E+02  0.51100000000E-03 0.  1.
         11   -1    0    0    0    0 -0.00000000000E+00 -0.00000000000E+00 -0.45593999997E+02  0.45594000000E+02  0.51100000000E-03 0. -1.
    9900012    2    1    2    0    0 -0.29926824315E+01  0.54678929709E+01  0.17658560350E+02  0.72461581354E+02  0.70000014408E+02 0.  0.
         12    1    1    2    0    0  0.29926824315E+01 -0.54678929709E+01 -0.17658560350E+02  0.18726418646E+02  0.00000000000E+00 0. -1.
         11    1    3    3    0    0  0.21994780049E+02  0.11988629942E+02  0.26407619488E+00  0.25051294054E+02  0.51100000000E-03 0. -1.
        -11    1    3    3    0    0  0.67290997194E+01  0.49979801494E+01  0.96638632020E+01  0.12792608837E+02  0.51100000000E-03 0.  1.
        -12    1    3    3    0    0 -0.31716562200E+02 -0.11518717121E+02  0.77306209526E+01  0.34617678463E+02  0.00000000000E+00 0.  1.
</event>
<event>
 7    1  0.2873608E-013  0.7246157E+02  0.7816164E-02  0.1226708E+00
        -11   -1    0    0    0    0  0.00000000000E+00  0.00000000000E+00  0.45593999997E+02  0.45594000000E+02  0.51100000000E-03 0.  1.
         11   -1    0    0    0    0 -0.00000000000E+00 -0.00000000000E+00 -0.45593999997E+02  0.45594000000E+02  0.51100000000E-03 0. -1.
    9900012    2    1    2    0    0 -0.17849991316E+01 -0.18042933963E+02  0.46846207349E+01  0.72461565226E+02  0.69999993398E+02 0.  0.
         12    1    1    2    0    0  0.17849991316E+01  0.18042933963E+02 -0.46846207349E+01  0.18726434774E+02  0.00000000000E+00 0. -1.
         11    1    3    3    0    0  0.48207568697E+01  0.18260982722E+01 -0.84530148209E+01  0.99008985208E+01  0.51100000000E-03 0. -1.
        -11    1    3    3    0    0  0.15924703430E+02 -0.31233707328E+02  0.24138116501E+01  0.35142099250E+02  0.51100000000E-03 0.  1.
        -12    1    3    3    0    0 -0.22530459432E+02  0.11364675092E+02  0.10723823906E+02  0.27418567455E+02  0.00000000000E+00 0.  1.
</event>
<event>
 7    1  0.2873608E-013  0.7246155E+02  0.7816164E-02  0.1226708E+00
        -11   -1    0    0    0    0  0.00000000000E+00  0.00000000000E+00  0.45593999997E+02  0.45594000000E+02  0.51100000000E-03 0.  1.
         11   -1    0    0    0    0 -0.00000000000E+00 -0.00000000000E+00 -0.45593999997E+02  0.45594000000E+02  0.51100000000E-03 0. -1.
    9900012    2    1    2    0    0  0.17876505657E+01 -0.10360096923E+02  0.15496854924E+02  0.72461553051E+02  0.69999977538E+02 0.  0.
         12    1    1    2    0    0 -0.17876505657E+01  0.10360096923E+02 -0.15496854924E+02  0.18726446949E+02  0.00000000000E+00 0. -1.
         11    1    3    3    0    0 -0.10827946399E+02 -0.64740274162E+01 -0.20472966052E+02  0.24047864634E+02  0.51100000000E-03 0. -1.
        -11    1    3    3    0    0  0.11085694926E+02 -0.17881822126E+01 -0.10728534298E+01  0.11280125990E+02  0.51100000000E-03 0.  1.
        -12    1    3    3    0    0  0.15299020385E+01 -0.20978872938E+01  0.37042674406E+02  0.37133562427E+02  0.00000000000E+00 0.  1.
</event>
<event>
 7    1  0.2873608E-013  0.7246160E+02  0.7816164E-02  0.1226708E+00
        -11   -1    0    0    0    0  0.00000000000E+00  0.00000000000E+00  0.45593999997E+02  0.45594000000E+02  0.51100000000E-03 0. -1.
         11   -1    0    0    0    0 -0.00000000000E+00 -0.00000000000E+00 -0.45593999997E+02  0.45594000000E+02  0.51100000000E-03 0.  1.
    9900012    2    1    2    0    0 -0.10911736196E+02  0.14615738364E+02 -0.42417313307E+01  0.72461599400E+02  0.70000037916E+02 0.  0.
         12    1    1    2    0    0  0.10911736196E+02 -0.14615738364E+02  0.42417313307E+01  0.18726400600E+02  0.00000000000E+00 0. -1.
         11    1    3    3    0    0  0.91510249880E+01  0.96880397355E+01  0.22320674191E+02  0.25996381841E+02  0.51100000000E-03 0. -1.
        -11    1    3    3    0    0  0.83685811757E+01 -0.24096033640E+01 -0.71230189968E+01  0.11250632834E+02  0.51100000000E-03 0.  1.
        -12    1    3    3    0    0 -0.28431342360E+02  0.73373019929E+01 -0.19439386525E+02  0.35214584725E+02  0.00000000000E+00 0.  1.
</event>
<event>
 7    1  0.2873608E-013  0.7246153E+02  0.7816164E-02  0.1226708E+00
        -11   -1    0    0    0    0  0.00000000000E+00  0.00000000000E+00  0.45593999997E+02  0.45594000000E+02  0.51100000000E-03 0.  1.
         11   -1    0    0    0    0 -0.00000000000E+00 -0.00000000000E+00 -0.45593999997E+02  0.45594000000E+02  0.51100000000E-03 0. -1.
    9900012    2    1    2    0    0  0.93610096136E+00  0.10506643454E+02  0.15473034325E+02  0.72461531222E+02  0.69999949101E+02 0.  0.
         12    1    1    2    0    0 -0.93610096136E+00 -0.10506643454E+02 -0.15473034325E+02  0.18726468778E+02  0.00000000000E+00 0. -1.
         11    1    3    3    0    0 -0.85791427065E+01 -0.12024771677E+02 -0.52358858939E+01  0.15671991731E+02  0.51100000000E-03 0. -1.
        -11    1    3    3    0    0 -0.14503693287E+02  0.12270993757E+02 -0.55100327366E+01  0.19781174581E+02  0.51100000000E-03 0.  1.
        -12    1    3    3    0    0  0.24018936955E+02  0.10260421374E+02  0.26218952955E+02  0.37008364910E+02  0.00000000000E+00 0.  1.
</event>
<event>
 7    1  0.2873608E-013  0.7246156E+02  0.7816164E-02  0.1226708E+00
        -11   -1    0    0    0    0  0.00000000000E+00  0.00000000000E+00  0.45593999997E+02  0.45594000000E+02  0.51100000000E-03 0.  1.
         11   -1    0    0    0    0 -0.00000000000E+00 -0.00000000000E+00 -0.45593999997E+02  0.45594000000E+02  0.51100000000E-03 0. -1.
    9900012    2    1    2    0    0 -0.27193173589E+01  0.19754671175E+01  0.18422333170E+02  0.72461561025E+02  0.69999987925E+02 0.  0.
         12    1    1    2    0    0  0.27193173589E+01 -0.19754671175E+01 -0.18422333170E+02  0.18726438975E+02  0.00000000000E+00 0. -1.
         11    1    3    3    0    0  0.89297098575E+01  0.17855324229E+01  0.88591501039E+01  0.12704817393E+02  0.51100000000E-03 0. -1.
        -11    1    3    3    0    0  0.66586306342E+01  0.21554317783E+02  0.19600057526E+02  0.29884581849E+02  0.51100000000E-03 0.  1.
         12    1    3    3    0    0 -0.18307657851E+02 -0.21364383088E+02 -0.10036874459E+02  0.29872161783E+02  0.00000000000E+00 0. -1.
</event>
<event>
 7    1  0.2873608E-013  0.7246151E+02  0.7816164E-02  0.1226708E+00
        -11   -1    0    0    0    0  0.00000000000E+00  0.00000000000E+00  0.45593999997E+02  0.45594000000E+02  0.51100000000E-03 0.  1.
         11   -1    0    0    0    0 -0.00000000000E+00 -0.00000000000E+00 -0.45593999997E+02  0.45594000000E+02  0.51100000000E-03 0. -1.
    9900012    2    1    2    0    0  0.92845770160E+01 -0.12839831088E+02  0.99808210485E+01  0.72461510165E+02  0.69999921671E+02 0.  0.
         12    1    1    2    0    0 -0.92845770160E+01  0.12839831088E+02 -0.99808210485E+01  0.18726489835E+02  0.00000000000E+00 0. -1.
         11    1    3    3    0    0 -0.26667136485E+02 -0.51136557769E+01 -0.11607547347E+02  0.29529998296E+02  0.51100000000E-03 0.  1.
        -11    1    3    3    0    0  0.18149921321E+02 -0.27245496747E+01  0.81967195585E+01  0.20100473295E+02  0.51100000000E-03 0. -1.
        -12    1    3    3    0    0  0.17801792180E+02 -0.50016256361E+01  0.13391648837E+02  0.22831038574E+02  0.00000000000E+00 0.  1.
</event>
<event>
 7    1  0.2873608E-013  0.7246169E+02  0.7816164E-02  0.1226708E+00
        -11   -1    0    0    0    0  0.00000000000E+00  0.00000000000E+00  0.45593999997E+02  0.45594000000E+02  0.51100000000E-03 0.  1.
         11   -1    0    0    0    0 -0.00000000000E+00 -0.00000000000E+00 -0.45593999997E+02  0.45594000000E+02  0.51100000000E-03 0. -1.
    9900012    2    1    2    0    0 -0.13771202426E+02  0.12409140808E+02  0.26536524609E+01  0.72461690614E+02  0.70000156738E+02 0.  0.
         12    1    1    2    0    0  0.13771202426E+02 -0.12409140808E+02 -0.26536524609E+01  0.18726309386E+02  0.00000000000E+00 0. -1.
         11    1    3    3    0    0  0.88481829910E+01 -0.19378742990E+02 -0.13139391120E+02  0.25029375170E+02  0.51100000000E-03 0. -1.
        -11    1    3    3    0    0  0.13880978654E+01 -0.97610430897E+00  0.51794332066E+01  0.54503324585E+01  0.51100000000E-03 0.  1.
         12    1    3    3    0    0 -0.24007483282E+02  0.32763988107E+02  0.10613610374E+02  0.41981982986E+02  0.00000000000E+00 0. -1.
</event>
<event>
 7    1  0.2873608E-013  0.7246158E+02  0.7816164E-02  0.1226708E+00
        -11   -1    0    0    0    0  0.00000000000E+00  0.00000000000E+00  0.45593999997E+02  0.45594000000E+02  0.51100000000E-03 0. -1.
         11   -1    0    0    0    0 -0.00000000000E+00 -0.00000000000E+00 -0.45593999997E+02  0.45594000000E+02  0.51100000000E-03 0.  1.
    9900012    2    1    2    0    0 -0.15489771935E+01  0.83566692717E+00 -0.18643524577E+02  0.72461583412E+02  0.70000017088E+02 0.  0.
         12    1    1    2    0    0  0.15489771935E+01 -0.83566692717E+00  0.18643524577E+02  0.18726416588E+02  0.00000000000E+00 0. -1.
         11    1    3    3    0    0 -0.12402715309E+02 -0.34043190224E+01  0.45155892988E+00  0.12869368313E+02  0.51100000000E-03 0. -1.
        -11    1    3    3    0    0 -0.58219401626E+01  0.26666178390E+02 -0.33060010167E+01  0.27493812034E+02  0.51100000000E-03 0.  1.
         12    1    3    3    0    0  0.16675678279E+02 -0.22426192440E+02 -0.15789082491E+02  0.32098403065E+02  0.00000000000E+00 0. -1.
</event>
<event>
 7    1  0.2873608E-013  0.7246182E+02  0.7816164E-02  0.1226707E+00
        -11   -1    0    0    0    0  0.00000000000E+00  0.00000000000E+00  0.45593999997E+02  0.45594000000E+02  0.51100000000E-03 0.  1.
         11   -1    0    0    0    0 -0.00000000000E+00 -0.00000000000E+00 -0.45593999997E+02  0.45594000000E+02  0.51100000000E-03 0. -1.
    9900012    2    1    2    0    0  0.54555612487E+01  0.65176923551E+00  0.17902008538E+02  0.72461818826E+02  0.70000323758E+02 0.  0.
         12    1    1    2    0    0 -0.54555612487E+01 -0.65176923551E+00 -0.17902008538E+02  0.18726181174E+02  0.00000000000E+00 0. -1.
         11    1    3    3    0    0 -0.99346432615E+01 -0.36980017034E+01  0.11882587640E+02  0.15923826255E+02  0.51100000000E-03 0. -1.
        -11    1    3    3    0    0 -0.19600843274E+01 -0.78560759851E+01  0.26100332810E+02  0.27327408101E+02  0.51100000000E-03 0.  1.
         12    1    3    3    0    0  0.17350288838E+02  0.12205846924E+02 -0.20080911911E+02  0.29210584470E+02  0.00000000000E+00 0. -1.
</event>
<event>
 7    1  0.2873608E-013  0.7246157E+02  0.7816164E-02  0.1226708E+00
        -11   -1    0    0    0    0  0.00000000000E+00  0.00000000000E+00  0.45593999997E+02  0.45594000000E+02  0.51100000000E-03 0. -1.
         11   -1    0    0    0    0 -0.00000000000E+00 -0.00000000000E+00 -0.45593999997E+02  0.45594000000E+02  0.51100000000E-03 0.  1.
    9900012    2    1    2    0    0  0.81246559702E+01 -0.10367615416E+02 -0.13310960707E+02  0.72461570576E+02  0.70000000367E+02 0.  0.
         12    1    1    2    0    0 -0.81246559702E+01  0.10367615416E+02  0.13310960707E+02  0.18726429424E+02  0.00000000000E+00 0. -1.
         11    1    3    3    0    0  0.20998617630E+02  0.19228787277E+01 -0.10192915710E+02  0.23420822700E+02  0.51100000000E-03 0. -1.
        -11    1    3    3    0    0 -0.97422100220E+01 -0.28887348504E+02 -0.78890040600E+01  0.31490092807E+02  0.51100000000E-03 0.  1.
         12    1    3    3    0    0 -0.31317516382E+01  0.16596854360E+02  0.47709590637E+01  0.17550655069E+02  0.00000000000E+00 0. -1.
</event>
<event>
 7    1  0.2873608E-013  0.7246158E+02  0.7816164E-02  0.1226708E+00
        -11   -1    0    0    0    0  0.00000000000E+00  0.00000000000E+00  0.45593999997E+02  0.45594000000E+02  0.51100000000E-03 0.  1.
         11   -1    0    0    0    0 -0.00000000000E+00 -0.00000000000E+00 -0.45593999997E+02  0.45594000000E+02  0.51100000000E-03 0. -1.
    9900012    2    1    2    0    0 -0.18702221845E+02 -0.60562941011E+00  0.73412174956E+00  0.72461579529E+02  0.70000012030E+02 0.  0.
         12    1    1    2    0    0  0.18702221845E+02  0.60562941011E+00 -0.73412174956E+00  0.18726420471E+02  0.00000000000E+00 0. -1.
         11    1    3    3    0    0 -0.19400848046E+02  0.71810095753E+01  0.90946072906E+01  0.22598046054E+02  0.51100000000E-03 0. -1.
        -11    1    3    3    0    0 -0.89992507135E+01  0.94918489695E+01  0.14555760493E+02  0.19569156192E+02  0.51100000000E-03 0.  1.
         12    1    3    3    0    0  0.96978769151E+01 -0.17278487955E+02 -0.22916246034E+02  0.30294377283E+02  0.00000000000E+00 0. -1.
</event>
<event>
 7    1  0.2873608E-013  0.7246154E+02  0.7816164E-02  0.1226708E+00
        -11   -1    0    0    0    0  0.00000000000E+00  0.00000000000E+00  0.45593999997E+02  0.45594000000E+02  0.51100000000E-03 0.  1.
         11   -1    0    0    0    0 -0.00000000000E+00 -0.00000000000E+00 -0.45593999997E+02  0.45594000000E+02  0.51100000000E-03 0. -1.
    9900012    2    1    2    0    0  0.84645013906E+01 -0.73826140309E+01  0.14984314274E+02  0.72461536159E+02  0.69999955533E+02 0.  0.
         12    1    1    2    0    0 -0.84645013906E+01  0.73826140309E+01 -0.14984314274E+02  0.18726463841E+02  0.00000000000E+00 0. -1.
         11    1    3    3    0    0  0.13396101656E+02 -0.70534925506E+01  0.75643651187E+01  0.16924151874E+02  0.51100000000E-03 0. -1.
        -11    1    3    3    0    0  0.24448257572E+02  0.49552693485E+01  0.78570893919E+00  0.24957750928E+02  0.51100000000E-03 0.  1.
        -12    1    3    3    0    0 -0.29379857837E+02 -0.52843908288E+01  0.66342402162E+01  0.30579633357E+02  0.00000000000E+00 0.  1.
</event>
<event>
 7    1  0.2873608E-013  0.7246155E+02  0.7816164E-02  0.1226708E+00
        -11   -1    0    0    0    0  0.00000000000E+00  0.00000000000E+00  0.45593999997E+02  0.45594000000E+02  0.51100000000E-03 0. -1.
         11   -1    0    0    0    0 -0.00000000000E+00 -0.00000000000E+00 -0.45593999997E+02  0.45594000000E+02  0.51100000000E-03 0.  1.
    9900012    2    1    2    0    0  0.43396259439E+01  0.15375047055E+01 -0.18151685924E+02  0.72461548763E+02  0.69999971952E+02 0.  0.
         12    1    1    2    0    0 -0.43396259439E+01 -0.15375047055E+01  0.18151685924E+02  0.18726451237E+02  0.00000000000E+00 0. -1.
         11    1    3    3    0    0  0.67189953843E+00 -0.84997662739E+01  0.96649406234E+01  0.12888310720E+02  0.51100000000E-03 0. -1.
        -11    1    3    3    0    0  0.35263478758E+01  0.75636928900E+01  0.14743247369E+02  0.16941308176E+02  0.51100000000E-03 0.  1.
        -12    1    3    3    0    0  0.14137852964E+00  0.24735780893E+01 -0.42559873916E+02  0.42631929867E+02  0.00000000000E+00 0.  1.
</event>
<event>
 7    1  0.2873608E-013  0.7246119E+02  0.7816164E-02  0.1226709E+00
        -11   -1    0    0    0    0  0.00000000000E+00  0.00000000000E+00  0.45593999997E+02  0.45594000000E+02  0.51100000000E-03 0.  1.
         11   -1    0    0    0    0 -0.00000000000E+00 -0.00000000000E+00 -0.45593999997E+02  0.45594000000E+02  0.51100000000E-03 0. -1.
    9900012    2    1    2    0    0 -0.76862174067E+00 -0.15148486921E+02  0.10982992082E+02  0.72461186324E+02  0.69999499806E+02 0.  0.
         12    1    1    2    0    0  0.76862174067E+00  0.15148486921E+02 -0.10982992082E+02  0.18726813676E+02  0.00000000000E+00 0. -1.
         11    1    3    3    0    0  0.36511988962E+01  0.25638635220E+01 -0.22624641333E+02  0.23060334890E+02  0.51100000000E-03 0. -1.
        -11    1    3    3    0    0 -0.36609724336E+01 -0.40378141360E+01 -0.56334198857E+01  0.78384999857E+01  0.51100000000E-03 0.  1.
        -12    1    3    3    0    0 -0.75884820328E+00 -0.13674536307E+02  0.39241053300E+02  0.41562351448E+02  0.00000000000E+00 0.  1.
</event>
<event>
 7    1  0.2873608E-013  0.7246156E+02  0.7816164E-02  0.1226708E+00
        -11   -1    0    0    0    0  0.00000000000E+00  0.00000000000E+00  0.45593999997E+02  0.45594000000E+02  0.51100000000E-03 0. -1.
         11   -1    0    0    0    0 -0.00000000000E+00 -0.00000000000E+00 -0.45593999997E+02  0.45594000000E+02  0.51100000000E-03 0.  1.
    9900012    2    1    2    0    0 -0.14384210404E+02 -0.80830860117E-01 -0.11990316168E+02  0.72461555479E+02  0.69999980701E+02 0.  0.
         12    1    1    2    0    0  0.14384210404E+02  0.80830860117E-01  0.11990316168E+02  0.18726444521E+02  0.00000000000E+00 0. -1.
         11    1    3    3    0    0 -0.81675271577E+01  0.17516802238E+02  0.46617371681E+01  0.19881615986E+02  0.51100000000E-03 0. -1.
        -11    1    3    3    0    0 -0.26233282910E+02 -0.71675045755E+01 -0.10814611523E+02  0.29266261748E+02  0.51100000000E-03 0.  1.
         12    1    3    3    0    0  0.20016599664E+02 -0.10430128523E+02 -0.58374418140E+01  0.23313677746E+02  0.00000000000E+00 0. -1.
</event>
<event>
 7    1  0.3089235E-013  0.7246157E+02  0.7816164E-02  0.1226708E+00
        -11   -1    0    0    0    0  0.00000000000E+00  0.00000000000E+00  0.45593999997E+02  0.45594000000E+02  0.51100000000E-03 0. -1.
         11   -1    0    0    0    0 -0.00000000000E+00 -0.00000000000E+00 -0.45593999997E+02  0.45594000000E+02  0.51100000000E-03 0.  1.
    9900012    2    1    2    0    0 -0.83203727255E+01  0.13273392341E+01 -0.16723893335E+02  0.72461573753E+02  0.70000004505E+02 0.  0.
         12    1    1    2    0    0  0.83203727255E+01 -0.13273392341E+01  0.16723893335E+02  0.18726426247E+02  0.00000000000E+00 0. -1.
         11    1    3    3    0    0 -0.57437570588E+00  0.99909160261E+01 -0.40747517195E+01  0.10805179884E+02  0.51100000000E-03 0. -1.
        -11    1    3    3    0    0 -0.25173243518E+02  0.14942101145E+02 -0.13645049763E+02  0.32297770188E+02  0.51100000000E-03 0.  1.
         12    1    3    3    0    0  0.17427246498E+02 -0.23605677937E+02  0.99590814751E+00  0.29358623681E+02  0.00000000000E+00 0. -1.
</event>
<event>
 7    1  0.2873608E-013  0.7246156E+02  0.7816164E-02  0.1226708E+00
        -11   -1    0    0    0    0  0.00000000000E+00  0.00000000000E+00  0.45593999997E+02  0.45594000000E+02  0.51100000000E-03 0. -1.
         11   -1    0    0    0    0 -0.00000000000E+00 -0.00000000000E+00 -0.45593999997E+02  0.45594000000E+02  0.51100000000E-03 0.  1.
    9900012    2    1    2    0    0 -0.71941177619E+01  0.16094233997E+02 -0.63166279825E+01  0.72461561807E+02  0.69999988944E+02 0.  0.
         12    1    1    2    0    0  0.71941177619E+01 -0.16094233997E+02  0.63166279825E+01  0.18726438193E+02  0.00000000000E+00 0. -1.
         11    1    3    3    0    0 -0.11227115430E+02  0.29454997946E+01  0.64564812812E+01  0.13281951691E+02  0.51100000000E-03 0. -1.
        -11    1    3    3    0    0  0.29704242265E+02  0.43510111823E+01 -0.23616072034E+01  0.30113958486E+02  0.51100000000E-03 0.  1.
         12    1    3    3    0    0 -0.25671244597E+02  0.87977230204E+01 -0.10411502060E+02  0.29065651630E+02  0.00000000000E+00 0. -1.
</event>
<event>
 7    1  0.2873608E-013  0.7246158E+02  0.7816164E-02  0.1226708E+00
        -11   -1    0    0    0    0  0.00000000000E+00  0.00000000000E+00  0.45593999997E+02  0.45594000000E+02  0.51100000000E-03 0. -1.
         11   -1    0    0    0    0 -0.00000000000E+00 -0.00000000000E+00 -0.45593999997E+02  0.45594000000E+02  0.51100000000E-03 0.  1.
    9900012    2    1    2    0    0  0.75428926872E+01 -0.41849972418E+01 -0.16621357240E+02  0.72461576196E+02  0.70000007687E+02 0.  0.
         12    1    1    2    0    0 -0.75428926872E+01  0.41849972418E+01  0.16621357240E+02  0.18726423804E+02  0.00000000000E+00 0. -1.
         11    1    3    3    0    0  0.37790078063E+01 -0.22073268842E+02  0.16176715339E+01  0.22452771740E+02  0.51100000000E-03 0. -1.
        -11    1    3    3    0    0 -0.18577646089E+02  0.81337757077E+01 -0.12969795270E+01  0.20321648497E+02  0.51100000000E-03 0.  1.
         12    1    3    3    0    0  0.22341530970E+02  0.97544958926E+01 -0.16942049247E+02  0.29687155958E+02  0.00000000000E+00 0. -1.
</event>
<event>
 7    1  0.3648832E-013  0.7246151E+02  0.7816164E-02  0.1226708E+00
        -11   -1    0    0    0    0  0.00000000000E+00  0.00000000000E+00  0.45593999997E+02  0.45594000000E+02  0.51100000000E-03 0. -1.
         11   -1    0    0    0    0 -0.00000000000E+00 -0.00000000000E+00 -0.45593999997E+02  0.45594000000E+02  0.51100000000E-03 0.  1.
    9900012    2    1    2    0    0  0.32187953997E+01  0.10293341728E+02 -0.15309083100E+02  0.72461506652E+02  0.69999917094E+02 0.  0.
         12    1    1    2    0    0 -0.32187953997E+01 -0.10293341728E+02  0.15309083100E+02  0.18726493348E+02  0.00000000000E+00 0. -1.
         11    1    3    3    0    0 -0.27611990734E+01  0.89175015474E+01  0.80725283027E+01  0.12341465376E+02  0.51100000000E-03 0. -1.
        -11    1    3    3    0    0  0.92684238980E+00  0.24038267100E+02 -0.27501875441E+02  0.36538342533E+02  0.51100000000E-03 0.  1.
         12    1    3    3    0    0  0.50531520833E+01 -0.22662426920E+02  0.41202640386E+01  0.23581698743E+02  0.00000000000E+00 0. -1.
</event>
<event>
 7    1  0.2873608E-013  0.7246157E+02  0.7816164E-02  0.1226708E+00
        -11   -1    0    0    0    0  0.00000000000E+00  0.00000000000E+00  0.45593999997E+02  0.45594000000E+02  0.51100000000E-03 0.  1.
         11   -1    0    0    0    0 -0.00000000000E+00 -0.00000000000E+00 -0.45593999997E+02  0.45594000000E+02  0.51100000000E-03 0. -1.
    9900012    2    1    2    0    0  0.51368133281E+01 -0.25788027476E+01  0.17822521394E+02  0.72461565645E+02  0.69999993944E+02 0.  0.
         12    1    1    2    0    0 -0.51368133281E+01  0.25788027476E+01 -0.17822521394E+02  0.18726434355E+02  0.00000000000E+00 0. -1.
         11    1    3    3    0    0  0.89827944252E+01  0.76975778089E+01 -0.47276173431E+01  0.12739453121E+02  0.51100000000E-03 0. -1.
        -11    1    3    3    0    0  0.21841455604E+02 -0.58564132825E+01  0.24798274592E+02  0.33560410940E+02  0.51100000000E-03 0.  1.
         12    1    3    3    0    0 -0.25687436701E+02 -0.44199672740E+01 -0.22481358547E+01  0.26161701585E+02  0.00000000000E+00 0. -1.
</event>
<event>
 7    1  0.2873608E-013  0.7246156E+02  0.7816164E-02  0.1226708E+00
        -11   -1    0    0    0    0  0.00000000000E+00  0.00000000000E+00  0.45593999997E+02  0.45594000000E+02  0.51100000000E-03 0. -1.
         11   -1    0    0    0    0 -0.00000000000E+00 -0.00000000000E+00 -0.45593999997E+02  0.45594000000E+02  0.51100000000E-03 0.  1.
    9900012    2    1    2    0    0  0.99112308075E+01  0.15814245719E+02 -0.15351396399E+01  0.72461561003E+02  0.69999987897E+02 0.  0.
         12    1    1    2    0    0 -0.99112308075E+01 -0.15814245719E+02  0.15351396399E+01  0.18726438997E+02  0.00000000000E+00 0. -1.
         11    1    3    3    0    0  0.84935147077E+01 -0.11955974692E+02 -0.71626266284E+01  0.16321407519E+02  0.51100000000E-03 0. -1.
        -11    1    3    3    0    0  0.41005625174E+01  0.20636569063E+02 -0.20226922190E+02  0.29185800952E+02  0.51100000000E-03 0.  1.
         12    1    3    3    0    0 -0.26828464176E+01  0.71336513475E+01  0.25854409179E+02  0.26954352532E+02  0.00000000000E+00 0. -1.
</event>
<event>
 7    1  0.2925307E-013  0.7246153E+02  0.7816164E-02  0.1226708E+00
        -11   -1    0    0    0    0  0.00000000000E+00  0.00000000000E+00  0.45593999997E+02  0.45594000000E+02  0.51100000000E-03 0. -1.
         11   -1    0    0    0    0 -0.00000000000E+00 -0.00000000000E+00 -0.45593999997E+02  0.45594000000E+02  0.51100000000E-03 0.  1.
    9900012    2    1    2    0    0 -0.17792015815E+02  0.28559682288E+01  0.50958916866E+01  0.72461534948E+02  0.69999953954E+02 0.  0.
         12    1    1    2    0    0  0.17792015815E+02 -0.28559682288E+01 -0.50958916866E+01  0.18726465052E+02  0.00000000000E+00 0. -1.
         11    1    3    3    0    0  0.62704053655E+01  0.47516467059E+01 -0.11681075485E+01  0.79536535863E+01  0.51100000000E-03 0. -1.
        -11    1    3    3    0    0 -0.15794386888E+02  0.25729636905E+02  0.15877968369E+02  0.34111387427E+02  0.51100000000E-03 0.  1.
         12    1    3    3    0    0 -0.82680342926E+01 -0.27625315382E+02 -0.96139691339E+01  0.30396493934E+02  0.00000000000E+00 0. -1.
</event>
<event>
 7    1  0.2873608E-013  0.7246157E+02  0.7816164E-02  0.1226708E+00
        -11   -1    0    0    0    0  0.00000000000E+00  0.00000000000E+00  0.45593999997E+02  0.45594000000E+02  0.51100000000E-03 0.  1.
         11   -1    0    0    0    0 -0.00000000000E+00 -0.00000000000E+00 -0.45593999997E+02  0.45594000000E+02  0.51100000000E-03 0. -1.
    9900012    2    1    2    0    0 -0.15331563562E+02  0.78208058270E+01  0.73795304081E+01  0.72461566435E+02  0.69999994972E+02 0.  0.
         12    1    1    2    0    0  0.15331563562E+02 -0.78208058270E+01 -0.73795304081E+01  0.18726433565E+02  0.00000000000E+00 0. -1.
         11    1    3    3    0    0  0.10945655302E+02 -0.18787858790E+00 -0.65962135917E+01  0.12780950761E+02  0.51100000000E-03 0. -1.
        -11    1    3    3    0    0  0.15070599990E+02  0.15789498807E+01  0.87840795237E+01  0.17515025553E+02  0.51100000000E-03 0.  1.
        -12    1    3    3    0    0 -0.41347818854E+02  0.64297345342E+01  0.51916644761E+01  0.42165590120E+02  0.00000000000E+00 0.  1.
</event>
<event>
 7    1  0.2873608E-013  0.7246166E+02  0.7816164E-02  0.1226708E+00
        -11   -1    0    0    0    0  0.00000000000E+00  0.00000000000E+00  0.45593999997E+02  0.45594000000E+02  0.51100000000E-03 0. -1.
         11   -1    0    0    0    0 -0.00000000000E+00 -0.00000000000E+00 -0.45593999997E+02  0.45594000000E+02  0.51100000000E-03 0.  1.
    9900012    2    1    2    0    0 -0.25591075383E+01  0.31242775521E+01 -0.18285664828E+02  0.72461663471E+02  0.70000121379E+02 0.  0.
         12    1    1    2    0    0  0.25591075383E+01 -0.31242775521E+01  0.18285664828E+02  0.18726336529E+02  0.00000000000E+00 0. -1.
         11    1    3    3    0    0  0.73993417327E+01  0.11176939098E+02  0.61659519172E+01  0.14754429470E+02  0.51100000000E-03 0. -1.
        -11    1    3    3    0    0  0.17451959555E+02 -0.22674501357E+01 -0.23909165787E+02  0.29687715159E+02  0.51100000000E-03 0.  1.
        -12    1    3    3    0    0 -0.27410408826E+02 -0.57852114104E+01 -0.54245095799E+00  0.28019518842E+02  0.00000000000E+00 0.  1.
</event>
<event>
 7    1  0.2873608E-013  0.7246159E+02  0.7816164E-02  0.1226708E+00
        -11   -1    0    0    0    0  0.00000000000E+00  0.00000000000E+00  0.45593999997E+02  0.45594000000E+02  0.51100000000E-03 0. -1.
         11   -1    0    0    0    0 -0.00000000000E+00 -0.00000000000E+00 -0.45593999997E+02  0.45594000000E+02  0.51100000000E-03 0.  1.
    9900012    2    1    2    0    0  0.12992449971E+02 -0.11672651685E+02 -0.67545531335E+01  0.72461587059E+02  0.70000021839E+02 0.  0.
         12    1    1    2    0    0 -0.12992449971E+02  0.11672651685E+02  0.67545531335E+01  0.18726412941E+02  0.00000000000E+00 0. -1.
         11    1    3    3    0    0  0.13642410252E+02 -0.60587673585E+01  0.85325033322E+01  0.17193825425E+02  0.51100000000E-03 0. -1.
        -11    1    3    3    0    0  0.20052552208E+02 -0.19605999067E+02 -0.65746083784E+01  0.28804956606E+02  0.51100000000E-03 0.  1.
         12    1    3    3    0    0 -0.20702512488E+02  0.13992114741E+02 -0.87124480873E+01  0.26462805028E+02  0.00000000000E+00 0. -1.
</event>
<event>
 7    1  0.2873608E-013  0.7246156E+02  0.7816164E-02  0.1226708E+00
        -11   -1    0    0    0    0  0.00000000000E+00  0.00000000000E+00  0.45593999997E+02  0.45594000000E+02  0.51100000000E-03 0.  1.
         11   -1    0    0    0    0 -0.00000000000E+00 -0.00000000000E+00 -0.45593999997E+02  0.45594000000E+02  0.51100000000E-03 0. -1.
    9900012    2    1    2    0    0  0.13855254518E+02  0.59377476835E+01  0.11111019494E+02  0.72461556678E+02  0.69999982262E+02 0.  0.
         12    1    1    2    0    0 -0.13855254518E+02 -0.59377476835E+01 -0.11111019494E+02  0.18726443322E+02  0.00000000000E+00 0. -1.
         11    1    3    3    0    0  0.13384091942E+02  0.36889087993E+01 -0.22999766564E+02  0.26865055881E+02  0.51100000000E-03 0. -1.
        -11    1    3    3    0    0  0.11884092507E+02  0.22099264899E+01  0.29945447790E+01  0.12453221611E+02  0.51100000000E-03 0.  1.
        -12    1    3    3    0    0 -0.11412929931E+02  0.38912394332E-01  0.31116241279E+02  0.33143279185E+02  0.00000000000E+00 0.  1.
</event>
<event>
 7    1  0.2873608E-013  0.7246157E+02  0.7816164E-02  0.1226708E+00
        -11   -1    0    0    0    0  0.00000000000E+00  0.00000000000E+00  0.45593999997E+02  0.45594000000E+02  0.51100000000E-03 0. -1.
         11   -1    0    0    0    0 -0.00000000000E+00 -0.00000000000E+00 -0.45593999997E+02  0.45594000000E+02  0.51100000000E-03 0.  1.
    9900012    2    1    2    0    0  0.14175204180E+01 -0.51511216007E+01 -0.17948144476E+02  0.72461566596E+02  0.69999995182E+02 0.  0.
         12    1    1    2    0    0 -0.14175204180E+01  0.51511216007E+01  0.17948144476E+02  0.18726433404E+02  0.00000000000E+00 0. -1.
         11    1    3    3    0    0 -0.11628306923E+02 -0.81139298765E+01 -0.91133708808E+01  0.16855471189E+02  0.51100000000E-03 0. -1.
        -11    1    3    3    0    0  0.31084758420E+02 -0.90301777180E+01 -0.10095529876E+02  0.33907610346E+02  0.51100000000E-03 0.  1.
         12    1    3    3    0    0 -0.18038931079E+02  0.11992985994E+02  0.12607562802E+01  0.21698485060E+02  0.00000000000E+00 0. -1.
</event>
<event>
 7    1  0.2873608E-013  0.7246156E+02  0.7816164E-02  0.1226708E+00
        -11   -1    0    0    0    0  0.00000000000E+00  0.00000000000E+00  0.45593999997E+02  0.45594000000E+02  0.51100000000E-03 0. -1.
         11   -1    0    0    0    0 -0.00000000000E+00 -0.00000000000E+00 -0.45593999997E+02  0.45594000000E+02  0.51100000000E-03 0.  1.
    9900012    2    1    2    0    0 -0.11463316152E+02 -0.28892442335E+01 -0.14523232025E+02  0.72461558323E+02  0.69999984405E+02 0.  0.
         12    1    1    2    0    0  0.11463316152E+02  0.28892442335E+01  0.14523232025E+02  0.18726441677E+02  0.00000000000E+00 0. -1.
         11    1    3    3    0    0 -0.48595611201E+01  0.10348258706E+02 -0.25453273215E+02  0.27902883546E+02  0.51100000000E-03 0. -1.
        -11    1    3    3    0    0  0.77641483690E+01  0.84599346318E+01 -0.65405599369E+01  0.13214818138E+02  0.51100000000E-03 0.  1.
        -12    1    3    3    0    0 -0.14367903401E+02 -0.21697437571E+02  0.17470601127E+02  0.31343856639E+02  0.00000000000E+00 0.  1.
</event>
<event>
 7    1  0.2873608E-013  0.7246154E+02  0.7816164E-02  0.1226708E+00
        -11   -1    0    0    0    0  0.00000000000E+00  0.00000000000E+00  0.45593999997E+02  0.45594000000E+02  0.51100000000E-03 0.  1.
         11   -1    0    0    0    0 -0.00000000000E+00 -0.00000000000E+00 -0.45593999997E+02  0.45594000000E+02  0.51100000000E-03 0. -1.
    9900012    2    1    2    0    0  0.12632978583E+02 -0.13747311485E+02 -0.14489532498E+01  0.72461543142E+02  0.69999964629E+02 0.  0.
         12    1    1    2    0    0 -0.12632978583E+02  0.13747311485E+02  0.14489532498E+01  0.18726456858E+02  0.00000000000E+00 0. -1.
         11    1    3    3    0    0  0.13416464097E+02  0.11730267575E+02 -0.48302573558E+01  0.18464345984E+02  0.51100000000E-03 0. -1.
        -11    1    3    3    0    0  0.13800483048E+02  0.40586366194E+01  0.13304666916E+02  0.19594387604E+02  0.51100000000E-03 0.  1.
         12    1    3    3    0    0 -0.14583968563E+02 -0.29536215679E+02 -0.99233628101E+01  0.34402809553E+02  0.00000000000E+00 0. -1.
</event>
<event>
 7    1  0.2873608E-013  0.7246159E+02  0.7816164E-02  0.1226708E+00
        -11   -1    0    0    0    0  0.00000000000E+00  0.00000000000E+00  0.45593999997E+02  0.45594000000E+02  0.51100000000E-03 0. -1.
         11   -1    0    0    0    0 -0.00000000000E+00 -0.00000000000E+00 -0.45593999997E+02  0.45594000000E+02  0.51100000000E-03 0.  1.
    9900012    2    1    2    0    0 -0.94427027382E+01  0.53713307847E+01 -0.15253286632E+02  0.72461585969E+02  0.70000020419E+02 0.  0.
         12    1    1    2    0    0  0.94427027382E+01 -0.53713307847E+01  0.15253286632E+02  0.18726414031E+02  0.00000000000E+00 0. -1.
         11    1    3    3    0    0  0.14850412929E+02 -0.76888498366E+01  0.92417362810E+01  0.19106618375E+02  0.51100000000E-03 0. -1.
        -11    1    3    3    0    0 -0.31277997150E+01 -0.12888650095E+02 -0.31084864584E+01  0.13622155507E+02  0.51100000000E-03 0.  1.
        -12    1    3    3    0    0 -0.21165315952E+02  0.25948830716E+02 -0.21386536454E+02  0.39732812088E+02  0.00000000000E+00 0.  1.
</event>
<event>
 7    1  0.2873608E-013  0.7246156E+02  0.7816164E-02  0.1226708E+00
        -11   -1    0    0    0    0  0.00000000000E+00  0.00000000000E+00  0.45593999997E+02  0.45594000000E+02  0.51100000000E-03 0.  1.
         11   -1    0    0    0    0 -0.00000000000E+00 -0.00000000000E+00 -0.45593999997E+02  0.45594000000E+02  0.51100000000E-03 0. -1.
    9900012    2    1    2    0    0 -0.62622825999E+01  0.12588672371E+02  0.12368857764E+02  0.72461561529E+02  0.69999988581E+02 0.  0.
         12    1    1    2    0    0  0.62622825999E+01 -0.12588672371E+02 -0.12368857764E+02  0.18726438471E+02  0.00000000000E+00 0. -1.
         11    1    3    3    0    0 -0.17763560798E+02  0.73361823972E+01  0.93102369307E+01  0.21355190853E+02  0.51100000000E-03 0. -1.
        -11    1    3    3    0    0  0.41769082081E+01  0.15017433341E+02  0.22965055349E+02  0.27755425303E+02  0.51100000000E-03 0.  1.
         12    1    3    3    0    0  0.73243699900E+01 -0.97649433669E+01 -0.19906434515E+02  0.23350945373E+02  0.00000000000E+00 0. -1.
</event>
<event>
 7    1  0.2873608E-013  0.7246158E+02  0.7816164E-02  0.1226708E+00
        -11   -1    0    0    0    0  0.00000000000E+00  0.00000000000E+00  0.45593999997E+02  0.45594000000E+02  0.51100000000E-03 0.  1.
         11   -1    0    0    0    0 -0.00000000000E+00 -0.00000000000E+00 -0.45593999997E+02  0.45594000000E+02  0.51100000000E-03 0. -1.
    9900012    2    1    2    0    0 -0.13380345393E+02 -0.81691161258E+00  0.13075842768E+02  0.72461584125E+02  0.70000018018E+02 0.  0.
         12    1    1    2    0    0  0.13380345393E+02  0.81691161258E+00 -0.13075842768E+02  0.18726415875E+02  0.00000000000E+00 0. -1.
         11    1    3    3    0    0  0.72717540316E+01 -0.22030197410E+02 -0.21537638352E+01  0.23299070873E+02  0.51100000000E-03 0. -1.
        -11    1    3    3    0    0  0.14984873450E+01 -0.87577035081E+01 -0.46561707243E-01  0.88851000733E+01  0.51100000000E-03 0.  1.
        -12    1    3    3    0    0 -0.22150586770E+02  0.29970989305E+02  0.15276168310E+02  0.40277413179E+02  0.00000000000E+00 0.  1.
</event>
<event>
 7    1  0.2873608E-013  0.7246161E+02  0.7816164E-02  0.1226708E+00
        -11   -1    0    0    0    0  0.00000000000E+00  0.00000000000E+00  0.45593999997E+02  0.45594000000E+02  0.51100000000E-03 0. -1.
         11   -1    0    0    0    0 -0.00000000000E+00 -0.00000000000E+00 -0.45593999997E+02  0.45594000000E+02  0.51100000000E-03 0.  1.
    9900012    2    1    2    0    0  0.37199739966E+01  0.64875992706E+01 -0.17168303736E+02  0.72461606754E+02  0.70000047495E+02 0.  0.
         12    1    1    2    0    0 -0.37199739966E+01 -0.64875992706E+01  0.17168303736E+02  0.18726393246E+02  0.00000000000E+00 0. -1.
         11    1    3    3    0    0  0.16370435835E+02  0.49868538875E+01 -0.72684251790E+01  0.18592737452E+02  0.51100000000E-03 0. -1.
        -11    1    3    3    0    0  0.15636277508E+02 -0.10557690171E+02 -0.13076568736E+02  0.22955492725E+02  0.51100000000E-03 0.  1.
        -12    1    3    3    0    0 -0.28286739347E+02  0.12058435554E+02  0.31766901791E+01  0.30913376577E+02  0.00000000000E+00 0.  1.
</event>
<event>
 7    1  0.2873608E-013  0.7246155E+02  0.7816164E-02  0.1226708E+00
        -11   -1    0    0    0    0  0.00000000000E+00  0.00000000000E+00  0.45593999997E+02  0.45594000000E+02  0.51100000000E-03 0. -1.
         11   -1    0    0    0    0 -0.00000000000E+00 -0.00000000000E+00 -0.45593999997E+02  0.45594000000E+02  0.51100000000E-03 0.  1.
    9900012    2    1    2    0    0  0.76510658109E+01  0.53163697356E+01 -0.16244298328E+02  0.72461552836E+02  0.69999977258E+02 0.  0.
         12    1    1    2    0    0 -0.76510658109E+01 -0.53163697356E+01  0.16244298328E+02  0.18726447164E+02  0.00000000000E+00 0. -1.
         11    1    3    3    0    0 -0.11406188530E+02  0.11410825790E+02  0.16232047410E+02  0.22886403068E+02  0.51100000000E-03 0. -1.
        -11    1    3    3    0    0  0.62718201185E+01  0.48437322421E+01  0.43838159652E+01  0.90562305796E+01  0.51100000000E-03 0.  1.
        -12    1    3    3    0    0  0.12785434222E+02 -0.10938188297E+02 -0.36860161703E+02  0.40518919189E+02  0.00000000000E+00 0.  1.
</event>
<event>
 7    1  0.2873608E-013  0.7246102E+02  0.7816164E-02  0.1226709E+00
        -11   -1    0    0    0    0  0.00000000000E+00  0.00000000000E+00  0.45593999997E+02  0.45594000000E+02  0.51100000000E-03 0. -1.
         11   -1    0    0    0    0 -0.00000000000E+00 -0.00000000000E+00 -0.45593999997E+02  0.45594000000E+02  0.51100000000E-03 0.  1.
    9900012    2    1    2    0    0 -0.77259051012E+01 -0.14428285669E+02 -0.91013581594E+01  0.72461020603E+02  0.69999283922E+02 0.  0.
         12    1    1    2    0    0  0.77259051012E+01  0.14428285669E+02  0.91013581594E+01  0.18726979397E+02  0.00000000000E+00 0. -1.
         11    1    3    3    0    0 -0.81782179148E+01 -0.15045386378E+02 -0.69027882259E+01  0.18463352488E+02  0.51100000000E-03 0.  1.
        -11    1    3    3    0    0  0.67716795268E+01  0.24828964162E+02  0.80379500614E+01  0.26961857251E+02  0.51100000000E-03 0. -1.
         12    1    3    3    0    0 -0.63193667132E+01 -0.24211863453E+02 -0.10236519995E+02  0.27035810865E+02  0.00000000000E+00 0. -1.
</event>
<event>
 7    1  0.2873608E-013  0.7246160E+02  0.7816164E-02  0.1226708E+00
        -11   -1    0    0    0    0  0.00000000000E+00  0.00000000000E+00  0.45593999997E+02  0.45594000000E+02  0.51100000000E-03 0. -1.
         11   -1    0    0    0    0 -0.00000000000E+00 -0.00000000000E+00 -0.45593999997E+02  0.45594000000E+02  0.51100000000E-03 0.  1.
    9900012    2    1    2    0    0  0.18590351971E+01 -0.79403257621E+00 -0.18616971511E+02  0.72461598107E+02  0.70000036231E+02 0.  0.
         12    1    1    2    0    0 -0.18590351971E+01  0.79403257621E+00  0.18616971511E+02  0.18726401893E+02  0.00000000000E+00 0. -1.
         11    1    3    3    0    0  0.35868540055E+01  0.68289064499E+01  0.19237862920E+02  0.20726670136E+02  0.51100000000E-03 0. -1.
        -11    1    3    3    0    0 -0.12692188463E+01 -0.42475418285E+01  0.61595202965E+01  0.75889537230E+01  0.51100000000E-03 0.  1.
        -12    1    3    3    0    0 -0.45859996206E+00 -0.33753971976E+01 -0.44014354728E+02  0.44145974248E+02  0.00000000000E+00 0.  1.
</event>
<event>
 7    1  0.2873608E-013  0.7246156E+02  0.7816164E-02  0.1226708E+00
        -11   -1    0    0    0    0  0.00000000000E+00  0.00000000000E+00  0.45593999997E+02  0.45594000000E+02  0.51100000000E-03 0.  1.
         11   -1    0    0    0    0 -0.00000000000E+00 -0.00000000000E+00 -0.45593999997E+02  0.45594000000E+02  0.51100000000E-03 0. -1.
    9900012    2    1    2    0    0 -0.15376436935E+02  0.10684774557E+02 -0.28326113955E+00  0.72461562618E+02  0.69999990000E+02 0.  0.
         12    1    1    2    0    0  0.15376436935E+02 -0.10684774557E+02  0.28326113955E+00  0.18726437382E+02  0.00000000000E+00 0. -1.
         11    1    3    3    0    0 -0.85997119655E+01 -0.12599825050E+02 -0.12466572688E+02  0.19700915513E+02  0.51100000000E-03 0. -1.
        -11    1    3    3    0    0 -0.77717725600E+01  0.22430556823E+02 -0.13322150095E+02  0.27221499068E+02  0.51100000000E-03 0.  1.
        -12    1    3    3    0    0  0.99504759057E+00  0.85404278417E+00  0.25505461644E+02  0.25539148037E+02  0.00000000000E+00 0.  1.
</event>
<event>
 7    1  0.2873608E-013  0.7246225E+02  0.7816164E-02  0.1226706E+00
        -11   -1    0    0    0    0  0.00000000000E+00  0.00000000000E+00  0.45593999997E+02  0.45594000000E+02  0.51100000000E-03 0. -1.
         11   -1    0    0    0    0 -0.00000000000E+00 -0.00000000000E+00 -0.45593999997E+02  0.45594000000E+02  0.51100000000E-03 0.  1.
    9900012    2    1    2    0    0  0.17825547495E+01  0.18168489273E+02 -0.41692148976E+01  0.72462246163E+02  0.70000880439E+02 0.  0.
         12    1    1    2    0    0 -0.17825547495E+01 -0.18168489273E+02  0.41692148976E+01  0.18725753837E+02  0.00000000000E+00 0. -1.
         11    1    3    3    0    0 -0.14623729905E+02  0.48007941609E+01  0.49952518427E+01  0.16181892415E+02  0.51100000000E-03 0. -1.
        -11    1    3    3    0    0 -0.81924951823E+01  0.20688358484E+02 -0.18533368964E+02  0.28958779661E+02  0.51100000000E-03 0.  1.
         12    1    3    3    0    0  0.24598779837E+02 -0.73206633715E+01  0.93689022234E+01  0.27321574086E+02  0.00000000000E+00 0. -1.
</event>
<event>
 7    1  0.2873608E-013  0.7246156E+02  0.7816164E-02  0.1226708E+00
        -11   -1    0    0    0    0  0.00000000000E+00  0.00000000000E+00  0.45593999997E+02  0.45594000000E+02  0.51100000000E-03 0.  1.
         11   -1    0    0    0    0 -0.00000000000E+00 -0.00000000000E+00 -0.45593999997E+02  0.45594000000E+02  0.51100000000E-03 0. -1.
    9900012    2    1    2    0    0  0.14626467855E+02 -0.11693642743E+02 -0.67767526217E-01  0.72461563208E+02  0.69999990768E+02 0.  0.
         12    1    1    2    0    0 -0.14626467855E+02  0.11693642743E+02  0.67767526217E-01  0.18726436792E+02  0.00000000000E+00 0. -1.
         11    1    3    3    0    0 -0.67621914937E+01  0.43861532497E+01 -0.18474735635E+02  0.20156424067E+02  0.51100000000E-03 0. -1.
        -11    1    3    3    0    0  0.40063152916E+01  0.65296565824E+01  0.22246750133E+02  0.23528809342E+02  0.51100000000E-03 0.  1.
         12    1    3    3    0    0  0.17382344057E+02 -0.22609452575E+02 -0.38397820244E+01  0.28776329798E+02  0.00000000000E+00 0. -1.
</event>
<event>
 7    1  0.2873608E-013  0.7246160E+02  0.7816164E-02  0.1226708E+00
        -11   -1    0    0    0    0  0.00000000000E+00  0.00000000000E+00  0.45593999997E+02  0.45594000000E+02  0.51100000000E-03 0. -1.
         11   -1    0    0    0    0 -0.00000000000E+00 -0.00000000000E+00 -0.45593999997E+02  0.45594000000E+02  0.51100000000E-03 0.  1.
    9900012    2    1    2    0    0  0.16170478429E+02 -0.93625953109E+01  0.12391944599E+01  0.72461597075E+02  0.70000034887E+02 0.  0.
         12    1    1    2    0    0 -0.16170478429E+02  0.93625953109E+01 -0.12391944599E+01  0.18726402925E+02  0.00000000000E+00 0. -1.
         11    1    3    3    0    0  0.39639643900E+01 -0.11833739495E+02 -0.16802893484E+01  0.12592608017E+02  0.51100000000E-03 0. -1.
        -11    1    3    3    0    0 -0.21077782447E+02  0.74384165927E+00 -0.10956196577E+02  0.23766877309E+02  0.51100000000E-03 0.  1.
         12    1    3    3    0    0  0.33284296487E+02  0.17273025244E+01  0.13875680386E+02  0.36102111750E+02  0.00000000000E+00 0. -1.
</event>
<event>
 7    1  0.2873608E-013  0.7246157E+02  0.7816164E-02  0.1226708E+00
        -11   -1    0    0    0    0  0.00000000000E+00  0.00000000000E+00  0.45593999997E+02  0.45594000000E+02  0.51100000000E-03 0. -1.
         11   -1    0    0    0    0 -0.00000000000E+00 -0.00000000000E+00 -0.45593999997E+02  0.45594000000E+02  0.51100000000E-03 0.  1.
    9900012    2    1    2    0    0  0.36895574977E+01 -0.91531599716E+01 -0.15914958572E+02  0.72461572729E+02  0.70000003172E+02 0.  0.
         12    1    1    2    0    0 -0.36895574977E+01  0.91531599716E+01  0.15914958572E+02  0.18726427271E+02  0.00000000000E+00 0. -1.
         11    1    3    3    0    0  0.83550138382E+01 -0.17766870401E+02  0.13814100669E+02  0.24006193318E+02  0.51100000000E-03 0. -1.
        -11    1    3    3    0    0  0.50943864398E+01  0.95383636030E-01  0.74829440964E+01  0.90529732049E+01  0.51100000000E-03 0.  1.
        -12    1    3    3    0    0 -0.97598427804E+01  0.85183267936E+01 -0.37212003337E+02  0.39402406206E+02  0.00000000000E+00 0.  1.
</event>
<event>
 7    1  0.2873608E-013  0.7246159E+02  0.7816164E-02  0.1226708E+00
        -11   -1    0    0    0    0  0.00000000000E+00  0.00000000000E+00  0.45593999997E+02  0.45594000000E+02  0.51100000000E-03 0. -1.
         11   -1    0    0    0    0 -0.00000000000E+00 -0.00000000000E+00 -0.45593999997E+02  0.45594000000E+02  0.51100000000E-03 0.  1.
    9900012    2    1    2    0    0  0.14253689795E+02  0.10935795989E+02 -0.52838546276E+01  0.72461590135E+02  0.70000025847E+02 0.  0.
         12    1    1    2    0    0 -0.14253689795E+02 -0.10935795989E+02  0.52838546276E+01  0.18726409865E+02  0.00000000000E+00 0. -1.
         11    1    3    3    0    0  0.66833433057E+01 -0.10953027936E+02 -0.50386709385E+00  0.12840941594E+02  0.51100000000E-03 0. -1.
        -11    1    3    3    0    0 -0.11901060442E+02  0.17976715195E+02 -0.23806036272E+02  0.32117361225E+02  0.51100000000E-03 0.  1.
         12    1    3    3    0    0  0.19471406931E+02  0.39121087309E+01  0.19026048738E+02  0.27503287316E+02  0.00000000000E+00 0. -1.
</event>
<event>
 7    1  0.2873608E-013  0.7246155E+02  0.7816164E-02  0.1226708E+00
        -11   -1    0    0    0    0  0.00000000000E+00  0.00000000000E+00  0.45593999997E+02  0.45594000000E+02  0.51100000000E-03 0. -1.
         11   -1    0    0    0    0 -0.00000000000E+00 -0.00000000000E+00 -0.45593999997E+02  0.45594000000E+02  0.51100000000E-03 0.  1.
    9900012    2    1    2    0    0  0.11330955565E+02 -0.43053768566E+01 -0.14274209419E+02  0.72461551367E+02  0.69999975343E+02 0.  0.
         12    1    1    2    0    0 -0.11330955565E+02  0.43053768566E+01  0.14274209419E+02  0.18726448633E+02  0.00000000000E+00 0. -1.
         11    1    3    3    0    0 -0.12296286657E+02 -0.88599794976E+01 -0.17829123456E+02  0.23400332171E+02  0.51100000000E-03 0. -1.
        -11    1    3    3    0    0  0.15608137422E+02 -0.10247852297E+02 -0.15041367508E+02  0.23976554533E+02  0.51100000000E-03 0.  1.
         12    1    3    3    0    0  0.80191047988E+01  0.14802454938E+02  0.18596281544E+02  0.25084664663E+02  0.00000000000E+00 0. -1.
</event>
<event>
 7    1  0.2873608E-013  0.7246157E+02  0.7816164E-02  0.1226708E+00
        -11   -1    0    0    0    0  0.00000000000E+00  0.00000000000E+00  0.45593999997E+02  0.45594000000E+02  0.51100000000E-03 0.  1.
         11   -1    0    0    0    0 -0.00000000000E+00 -0.00000000000E+00 -0.45593999997E+02  0.45594000000E+02  0.51100000000E-03 0. -1.
    9900012    2    1    2    0    0 -0.16278128871E+01  0.15420925677E+02  0.10498782628E+02  0.72461570543E+02  0.70000000324E+02 0.  0.
         12    1    1    2    0    0  0.16278128871E+01 -0.15420925677E+02 -0.10498782628E+02  0.18726429457E+02  0.00000000000E+00 0. -1.
         11    1    3    3    0    0 -0.20199820617E+02  0.57229530415E+00 -0.16289260675E+02  0.25955737101E+02  0.51100000000E-03 0. -1.
        -11    1    3    3    0    0  0.17179765108E+01 -0.68867382106E+01  0.14975174024E+02  0.16572098352E+02  0.51100000000E-03 0.  1.
        -12    1    3    3    0    0  0.16854031219E+02  0.21735368584E+02  0.11812869280E+02  0.29933735090E+02  0.00000000000E+00 0.  1.
</event>
<event>
 7    1  0.2873608E-013  0.7246139E+02  0.7816164E-02  0.1226708E+00
        -11   -1    0    0    0    0  0.00000000000E+00  0.00000000000E+00  0.45593999997E+02  0.45594000000E+02  0.51100000000E-03 0.  1.
         11   -1    0    0    0    0 -0.00000000000E+00 -0.00000000000E+00 -0.45593999997E+02  0.45594000000E+02  0.51100000000E-03 0. -1.
    9900012    2    1    2    0    0  0.10235641997E+02  0.39061294660E+01  0.15187483037E+02  0.72461391778E+02  0.69999767449E+02 0.  0.
         12    1    1    2    0    0 -0.10235641997E+02 -0.39061294660E+01 -0.15187483037E+02  0.18726608222E+02  0.00000000000E+00 0. -1.
         11    1    3    3    0    0  0.11563427077E+02  0.11069925005E+02 -0.12648247758E+02  0.20401819943E+02  0.51100000000E-03 0. -1.
        -11    1    3    3    0    0  0.15805197651E+02 -0.12435883831E+02  0.27577758181E+02  0.34131923855E+02  0.51100000000E-03 0.  1.
         12    1    3    3    0    0 -0.17132982732E+02  0.52720882913E+01  0.25797261318E+00  0.17927647980E+02  0.00000000000E+00 0. -1.
</event>
<event>
 7    1  0.2873608E-013  0.7246154E+02  0.7816164E-02  0.1226708E+00
        -11   -1    0    0    0    0  0.00000000000E+00  0.00000000000E+00  0.45593999997E+02  0.45594000000E+02  0.51100000000E-03 0.  1.
         11   -1    0    0    0    0 -0.00000000000E+00 -0.00000000000E+00 -0.45593999997E+02  0.45594000000E+02  0.51100000000E-03 0. -1.
    9900012    2    1    2    0    0 -0.16454326505E+02  0.74559717102E+01  0.49339441791E+01  0.72461543313E+02  0.69999964852E+02 0.  0.
         12    1    1    2    0    0  0.16454326505E+02 -0.74559717102E+01 -0.49339441791E+01  0.18726456687E+02  0.00000000000E+00 0. -1.
         11    1    3    3    0    0 -0.19770986203E+02  0.11632092230E+02 -0.73775987401E+01  0.24096191162E+02  0.51100000000E-03 0. -1.
        -11    1    3    3    0    0 -0.20813027784E+02  0.23755658935E+01  0.10124604204E+02  0.23266565054E+02  0.51100000000E-03 0.  1.
         12    1    3    3    0    0  0.24129687482E+02 -0.65516864132E+01  0.21869387155E+01  0.25098787097E+02  0.00000000000E+00 0. -1.
</event>
<event>
 7    1  0.2873608E-013  0.7246165E+02  0.7816164E-02  0.1226708E+00
        -11   -1    0    0    0    0  0.00000000000E+00  0.00000000000E+00  0.45593999997E+02  0.45594000000E+02  0.51100000000E-03 0. -1.
         11   -1    0    0    0    0 -0.00000000000E+00 -0.00000000000E+00 -0.45593999997E+02  0.45594000000E+02  0.51100000000E-03 0.  1.
    9900012    2    1    2    0    0  0.10844282934E+02 -0.12210845291E+02 -0.91636697910E+01  0.72461653343E+02  0.70000108186E+02 0.  0.
         12    1    1    2    0    0 -0.10844282934E+02  0.12210845291E+02  0.91636697910E+01  0.18726346657E+02  0.00000000000E+00 0. -1.
         11    1    3    3    0    0  0.70394963911E+01 -0.63026215729E+01  0.64487296057E+00  0.94706604589E+01  0.51100000000E-03 0. -1.
        -11    1    3    3    0    0  0.11221209400E+02 -0.99555475197E+01  0.23912127320E+02  0.28227970173E+02  0.51100000000E-03 0.  1.
         12    1    3    3    0    0 -0.74164228569E+01  0.40473238018E+01 -0.33720670072E+02  0.34763022712E+02  0.00000000000E+00 0. -1.
</event>
<event>
 7    1  0.2873608E-013  0.7246148E+02  0.7816164E-02  0.1226708E+00
        -11   -1    0    0    0    0  0.00000000000E+00  0.00000000000E+00  0.45593999997E+02  0.45594000000E+02  0.51100000000E-03 0.  1.
         11   -1    0    0    0    0 -0.00000000000E+00 -0.00000000000E+00 -0.45593999997E+02  0.45594000000E+02  0.51100000000E-03 0. -1.
    9900012    2    1    2    0    0 -0.11498697602E+02  0.30737760020E+01  0.14457333949E+02  0.72461477355E+02  0.69999878929E+02 0.  0.
         12    1    1    2    0    0  0.11498697602E+02 -0.30737760020E+01 -0.14457333949E+02  0.18726522645E+02  0.00000000000E+00 0. -1.
         11    1    3    3    0    0 -0.11270021051E+02 -0.21528167852E+02  0.18688041476E+02  0.30654824742E+02  0.51100000000E-03 0. -1.
        -11    1    3    3    0    0  0.14884597087E+01 -0.83177750455E+01 -0.24329855347E+01  0.87931969662E+01  0.51100000000E-03 0.  1.
        -12    1    3    3    0    0 -0.17171362607E+01  0.32919718900E+02 -0.17977219921E+01  0.33013455646E+02  0.00000000000E+00 0.  1.
</event>
<event>
 7    1  0.2873608E-013  0.7246170E+02  0.7816164E-02  0.1226708E+00
        -11   -1    0    0    0    0  0.00000000000E+00  0.00000000000E+00  0.45593999997E+02  0.45594000000E+02  0.51100000000E-03 0.  1.
         11   -1    0    0    0    0 -0.00000000000E+00 -0.00000000000E+00 -0.45593999997E+02  0.45594000000E+02  0.51100000000E-03 0. -1.
    9900012    2    1    2    0    0  0.11468948064E+01 -0.18526695153E+02  0.24739723480E+01  0.72461699239E+02  0.70000167975E+02 0.  0.
         12    1    1    2    0    0 -0.11468948064E+01  0.18526695153E+02 -0.24739723480E+01  0.18726300761E+02  0.00000000000E+00 0. -1.
         11    1    3    3    0    0 -0.34172556516E+00  0.23047933652E+01  0.35008941686E+01  0.42053666973E+01  0.51100000000E-03 0. -1.
        -11    1    3    3    0    0  0.72786707057E+01 -0.19310901216E+02  0.30135294899E+02  0.36524320007E+02  0.51100000000E-03 0.  1.
         12    1    3    3    0    0 -0.57900503341E+01 -0.15205873021E+01 -0.31162216720E+02  0.31732012535E+02  0.00000000000E+00 0. -1.
</event>
<event>
 7    1  0.2873608E-013  0.7246157E+02  0.7816164E-02  0.1226708E+00
        -11   -1    0    0    0    0  0.00000000000E+00  0.00000000000E+00  0.45593999997E+02  0.45594000000E+02  0.51100000000E-03 0. -1.
         11   -1    0    0    0    0 -0.00000000000E+00 -0.00000000000E+00 -0.45593999997E+02  0.45594000000E+02  0.51100000000E-03 0.  1.
    9900012    2    1    2    0    0 -0.14017066580E+02 -0.22962203882E+01 -0.12203614990E+02  0.72461574756E+02  0.70000005812E+02 0.  0.
         12    1    1    2    0    0  0.14017066580E+02  0.22962203882E+01  0.12203614990E+02  0.18726425244E+02  0.00000000000E+00 0. -1.
         11    1    3    3    0    0 -0.25419761769E+01 -0.82538087926E+01 -0.16681242424E+01  0.87960014335E+01  0.51100000000E-03 0. -1.
        -11    1    3    3    0    0  0.20202837935E+02  0.18270666800E+01 -0.21812778296E+02  0.29787415640E+02  0.51100000000E-03 0.  1.
         12    1    3    3    0    0 -0.31677928338E+02  0.41305217243E+01  0.11277287548E+02  0.33878157682E+02  0.00000000000E+00 0. -1.
</event>
<event>
 7    1  0.2873608E-013  0.7246160E+02  0.7816164E-02  0.1226708E+00
        -11   -1    0    0    0    0  0.00000000000E+00  0.00000000000E+00  0.45593999997E+02  0.45594000000E+02  0.51100000000E-03 0. -1.
         11   -1    0    0    0    0 -0.00000000000E+00 -0.00000000000E+00 -0.45593999997E+02  0.45594000000E+02  0.51100000000E-03 0.  1.
    9900012    2    1    2    0    0 -0.77572092052E+00 -0.17148889392E+02 -0.74827680383E+01  0.72461602379E+02  0.70000041797E+02 0.  0.
         12    1    1    2    0    0  0.77572092052E+00  0.17148889392E+02  0.74827680383E+01  0.18726397621E+02  0.00000000000E+00 0. -1.
         11    1    3    3    0    0  0.26090768560E+02  0.13092019957E+02 -0.27106580826E+01  0.29316835746E+02  0.51100000000E-03 0. -1.
        -11    1    3    3    0    0 -0.43880721820E+01 -0.21420348717E+01 -0.52340296602E+01  0.71581113159E+01  0.51100000000E-03 0.  1.
        -12    1    3    3    0    0 -0.22478417299E+02 -0.28098874478E+02  0.46191970443E+00  0.35986655318E+02  0.00000000000E+00 0.  1.
</event>
<event>
 7    1  0.2873608E-013  0.7246159E+02  0.7816164E-02  0.1226708E+00
        -11   -1    0    0    0    0  0.00000000000E+00  0.00000000000E+00  0.45593999997E+02  0.45594000000E+02  0.51100000000E-03 0.  1.
         11   -1    0    0    0    0 -0.00000000000E+00 -0.00000000000E+00 -0.45593999997E+02  0.45594000000E+02  0.51100000000E-03 0. -1.
    9900012    2    1    2    0    0 -0.93523258883E+01  0.71429924390E+01  0.14566751473E+02  0.72461585795E+02  0.70000020193E+02 0.  0.
         12    1    1    2    0    0  0.93523258883E+01 -0.71429924390E+01 -0.14566751473E+02  0.18726414205E+02  0.00000000000E+00 0. -1.
         11    1    3    3    0    0  0.67985404110E+00 -0.48888256460E+00  0.32640807855E+01  0.33697820871E+01  0.51100000000E-03 0. -1.
        -11    1    3    3    0    0 -0.24816913104E+02 -0.22607570010E+02  0.11331935499E+02  0.35431541882E+02  0.51100000000E-03 0.  1.
         12    1    3    3    0    0  0.14784733175E+02  0.30239445013E+02 -0.29264811674E-01  0.33660261826E+02  0.00000000000E+00 0. -1.
</event>
<event>
 7    1  0.2873608E-013  0.7246153E+02  0.7816164E-02  0.1226708E+00
        -11   -1    0    0    0    0  0.00000000000E+00  0.00000000000E+00  0.45593999997E+02  0.45594000000E+02  0.51100000000E-03 0. -1.
         11   -1    0    0    0    0 -0.00000000000E+00 -0.00000000000E+00 -0.45593999997E+02  0.45594000000E+02  0.51100000000E-03 0.  1.
    9900012    2    1    2    0    0 -0.55757026346E+01 -0.21616312287E-01 -0.17877127263E+02  0.72461531932E+02  0.69999950026E+02 0.  0.
         12    1    1    2    0    0  0.55757026346E+01  0.21616312287E-01  0.17877127263E+02  0.18726468068E+02  0.00000000000E+00 0. -1.
         11    1    3    3    0    0 -0.42118964684E+01  0.12331794411E+01 -0.41792398861E+01  0.60602681196E+01  0.51100000000E-03 0. -1.
        -11    1    3    3    0    0  0.24367358874E+02  0.13809580576E+02 -0.21812611525E+02  0.35500179098E+02  0.51100000000E-03 0.  1.
         12    1    3    3    0    0 -0.25731165040E+02 -0.15064376330E+02  0.81147241481E+01  0.30901084714E+02  0.00000000000E+00 0. -1.
</event>
<event>
 7    1  0.2873608E-013  0.7246154E+02  0.7816164E-02  0.1226708E+00
        -11   -1    0    0    0    0  0.00000000000E+00  0.00000000000E+00  0.45593999997E+02  0.45594000000E+02  0.51100000000E-03 0.  1.
         11   -1    0    0    0    0 -0.00000000000E+00 -0.00000000000E+00 -0.45593999997E+02  0.45594000000E+02  0.51100000000E-03 0. -1.
    9900012    2    1    2    0    0  0.86652459620E+01 -0.10663748982E+01  0.16566732759E+02  0.72461540716E+02  0.69999961468E+02 0.  0.
         12    1    1    2    0    0 -0.86652459620E+01  0.10663748982E+01 -0.16566732759E+02  0.18726459284E+02  0.00000000000E+00 0. -1.
         11    1    3    3    0    0  0.26751478809E+02  0.13263477607E+02 -0.54710650963E+01  0.30356119816E+02  0.51100000000E-03 0. -1.
        -11    1    3    3    0    0 -0.61802162564E+01 -0.88559828305E+01 -0.51199701701E+01  0.11951468515E+02  0.51100000000E-03 0.  1.
        -12    1    3    3    0    0 -0.11906016591E+02 -0.54738696749E+01  0.27157768026E+02  0.30153952385E+02  0.00000000000E+00 0.  1.
</event>
<event>
 7    1  0.2873608E-013  0.7246161E+02  0.7816164E-02  0.1226708E+00
        -11   -1    0    0    0    0  0.00000000000E+00  0.00000000000E+00  0.45593999997E+02  0.45594000000E+02  0.51100000000E-03 0. -1.
         11   -1    0    0    0    0 -0.00000000000E+00 -0.00000000000E+00 -0.45593999997E+02  0.45594000000E+02  0.51100000000E-03 0.  1.
    9900012    2    1    2    0    0 -0.63103895092E+01  0.12424901665E+02  0.12509140676E+02  0.72461606925E+02  0.70000047718E+02 0.  0.
         12    1    1    2    0    0  0.63103895092E+01 -0.12424901665E+02 -0.12509140676E+02  0.18726393075E+02  0.00000000000E+00 0. -1.
         11    1    3    3    0    0 -0.19733295057E+00  0.15269810858E+02 -0.11272321282E+02  0.18980813767E+02  0.51100000000E-03 0. -1.
        -11    1    3    3    0    0 -0.83636422953E+01 -0.17318592050E+01 -0.13575891211E+02  0.16039160551E+02  0.51100000000E-03 0.  1.
         12    1    3    3    0    0  0.22505857367E+01 -0.11130499874E+01  0.37357353169E+02  0.37441632607E+02  0.00000000000E+00 0. -1.
</event>
<event>
 7    1  0.2873608E-013  0.7246190E+02  0.7816164E-02  0.1226707E+00
        -11   -1    0    0    0    0  0.00000000000E+00  0.00000000000E+00  0.45593999997E+02  0.45594000000E+02  0.51100000000E-03 0.  1.
         11   -1    0    0    0    0 -0.00000000000E+00 -0.00000000000E+00 -0.45593999997E+02  0.45594000000E+02  0.51100000000E-03 0. -1.
    9900012    2    1    2    0    0  0.44463531473E+01  0.33009162205E+00  0.18187573897E+02  0.72461898936E+02  0.70000428116E+02 0.  0.
         12    1    1    2    0    0 -0.44463531473E+01 -0.33009162205E+00 -0.18187573897E+02  0.18726101064E+02  0.00000000000E+00 0. -1.
         11    1    3    3    0    0  0.98615220550E+00 -0.40895569319E+01  0.14134026699E+02  0.14746785516E+02  0.51100000000E-03 0.  1.
        -11    1    3    3    0    0 -0.25910511752E+02  0.30072493317E+01  0.95943486016E+01  0.27792979206E+02  0.51100000000E-03 0. -1.
         12    1    3    3    0    0  0.29370712694E+02  0.14123992223E+01 -0.55408014034E+01  0.29922134214E+02  0.00000000000E+00 0. -1.
</event>
<event>
 7    1  0.2873608E-013  0.7246149E+02  0.7816164E-02  0.1226708E+00
        -11   -1    0    0    0    0  0.00000000000E+00  0.00000000000E+00  0.45593999997E+02  0.45594000000E+02  0.51100000000E-03 0.  1.
         11   -1    0    0    0    0 -0.00000000000E+00 -0.00000000000E+00 -0.45593999997E+02  0.45594000000E+02  0.51100000000E-03 0. -1.
    9900012    2    1    2    0    0  0.86236233127E+01  0.55151742731E+01  0.15681136617E+02  0.72461492800E+02  0.69999899049E+02 0.  0.
         12    1    1    2    0    0 -0.86236233127E+01 -0.55151742731E+01 -0.15681136617E+02  0.18726507200E+02  0.00000000000E+00 0. -1.
         11    1    3    3    0    0  0.77126513343E+01  0.84968503072E+01  0.10000689082E+02  0.15221538626E+02  0.51100000000E-03 0. -1.
        -11    1    3    3    0    0 -0.15277177200E+02  0.13585450435E+02  0.21126882260E+02  0.29399009525E+02  0.51100000000E-03 0.  1.
         12    1    3    3    0    0  0.16188149179E+02 -0.16567126469E+02 -0.15446434725E+02  0.27840944650E+02  0.00000000000E+00 0. -1.
</event>
<event>
 7    1  0.2873608E-013  0.7246158E+02  0.7816164E-02  0.1226708E+00
        -11   -1    0    0    0    0  0.00000000000E+00  0.00000000000E+00  0.45593999997E+02  0.45594000000E+02  0.51100000000E-03 0. -1.
         11   -1    0    0    0    0 -0.00000000000E+00 -0.00000000000E+00 -0.45593999997E+02  0.45594000000E+02  0.51100000000E-03 0.  1.
    9900012    2    1    2    0    0 -0.17795155093E+02  0.30911081583E+01 -0.49453389416E+01  0.72461578247E+02  0.70000010360E+02 0.  0.
         12    1    1    2    0    0  0.17795155093E+02 -0.30911081583E+01  0.49453389416E+01  0.18726421753E+02  0.00000000000E+00 0. -1.
         11    1    3    3    0    0  0.11187992600E+02 -0.12046135123E+02 -0.21179048105E+01  0.16576069222E+02  0.51100000000E-03 0. -1.
        -11    1    3    3    0    0 -0.19189598356E+02  0.64092611917E+01 -0.23744653516E+02  0.31194997755E+02  0.51100000000E-03 0.  1.
         12    1    3    3    0    0 -0.97935493375E+01  0.87279820894E+01  0.20917219385E+02  0.24690511270E+02  0.00000000000E+00 0. -1.
</event>
<event>
 7    1  0.2873608E-013  0.7246156E+02  0.7816164E-02  0.1226708E+00
        -11   -1    0    0    0    0  0.00000000000E+00  0.00000000000E+00  0.45593999997E+02  0.45594000000E+02  0.51100000000E-03 0. -1.
         11   -1    0    0    0    0 -0.00000000000E+00 -0.00000000000E+00 -0.45593999997E+02  0.45594000000E+02  0.51100000000E-03 0.  1.
    9900012    2    1    2    0    0  0.17459326716E+02  0.63472110228E+01 -0.23588689576E+01  0.72461563075E+02  0.69999990596E+02 0.  0.
         12    1    1    2    0    0 -0.17459326716E+02 -0.63472110228E+01  0.23588689576E+01  0.18726436925E+02  0.00000000000E+00 0. -1.
         11    1    3    3    0    0 -0.69271950894E+01  0.40632156104E+01 -0.18747302235E+02  0.20395026214E+02  0.51100000000E-03 0. -1.
        -11    1    3    3    0    0  0.49055077786E+00 -0.15161638522E+02 -0.45304552161E+01  0.15831643865E+02  0.51100000000E-03 0.  1.
         12    1    3    3    0    0  0.23895971027E+02  0.17445633934E+02  0.20918888494E+02  0.36234892997E+02  0.00000000000E+00 0. -1.
</event>
<event>
 7    1  0.2978437E-013  0.7246153E+02  0.7816164E-02  0.1226708E+00
        -11   -1    0    0    0    0  0.00000000000E+00  0.00000000000E+00  0.45593999997E+02  0.45594000000E+02  0.51100000000E-03 0. -1.
         11   -1    0    0    0    0 -0.00000000000E+00 -0.00000000000E+00 -0.45593999997E+02  0.45594000000E+02  0.51100000000E-03 0.  1.
    9900012    2    1    2    0    0 -0.79193066979E+00  0.93182524030E+01 -0.16224174064E+02  0.72461526598E+02  0.69999943077E+02 0.  0.
         12    1    1    2    0    0  0.79193066979E+00 -0.93182524030E+01  0.16224174064E+02  0.18726473402E+02  0.00000000000E+00 0. -1.
         11    1    3    3    0    0  0.15113426061E+00 -0.42376131541E+01 -0.10659099572E+02  0.11471556597E+02  0.51100000000E-03 0. -1.
        -11    1    3    3    0    0  0.34548466559E+00  0.25592534539E+02 -0.26477833611E+02  0.36826252277E+02  0.51100000000E-03 0.  1.
         12    1    3    3    0    0 -0.12885495960E+01 -0.12036668981E+02  0.20912759120E+02  0.24163717724E+02  0.00000000000E+00 0. -1.
</event>
<event>
 7    1  0.2873608E-013  0.7246156E+02  0.7816164E-02  0.1226708E+00
        -11   -1    0    0    0    0  0.00000000000E+00  0.00000000000E+00  0.45593999997E+02  0.45594000000E+02  0.51100000000E-03 0. -1.
         11   -1    0    0    0    0 -0.00000000000E+00 -0.00000000000E+00 -0.45593999997E+02  0.45594000000E+02  0.51100000000E-03 0.  1.
    9900012    2    1    2    0    0 -0.12107901543E+02  0.10160768248E+02 -0.10041771050E+02  0.72461557279E+02  0.69999983046E+02 0.  0.
         12    1    1    2    0    0  0.12107901543E+02 -0.10160768248E+02  0.10041771050E+02  0.18726442721E+02  0.00000000000E+00 0. -1.
         11    1    3    3    0    0 -0.90751939475E+01 -0.76327425848E+01 -0.82836004107E+01  0.14464990169E+02  0.51100000000E-03 0. -1.
        -11    1    3    3    0    0 -0.11818248132E+02  0.40297228465E+00 -0.25007635786E+02  0.27662523808E+02  0.51100000000E-03 0.  1.
         12    1    3    3    0    0  0.87855405367E+01  0.17390538548E+02  0.23249465147E+02  0.30334043303E+02  0.00000000000E+00 0. -1.
</event>
<event>
 7    1  0.2873608E-013  0.7246163E+02  0.7816164E-02  0.1226708E+00
        -11   -1    0    0    0    0  0.00000000000E+00  0.00000000000E+00  0.45593999997E+02  0.45594000000E+02  0.51100000000E-03 0.  1.
         11   -1    0    0    0    0 -0.00000000000E+00 -0.00000000000E+00 -0.45593999997E+02  0.45594000000E+02  0.51100000000E-03 0. -1.
    9900012    2    1    2    0    0  0.91125015386E+01 -0.16359292037E+02  0.11265596162E+00  0.72461633251E+02  0.70000082013E+02 0.  0.
         12    1    1    2    0    0 -0.91125015386E+01  0.16359292037E+02 -0.11265596162E+00  0.18726366749E+02  0.00000000000E+00 0. -1.
         11    1    3    3    0    0 -0.11504370341E+02 -0.40134966805E+01  0.77592038435E+01  0.14445204640E+02  0.51100000000E-03 0.  1.
        -11    1    3    3    0    0  0.26787434711E+01 -0.26353184332E+02  0.10913192143E+02  0.28648974746E+02  0.51100000000E-03 0. -1.
         12    1    3    3    0    0  0.17938128409E+02  0.14007388975E+02 -0.18559740025E+02  0.29367453865E+02  0.00000000000E+00 0. -1.
</event>
<event>
 7    1  0.2873608E-013  0.7246151E+02  0.7816164E-02  0.1226708E+00
        -11   -1    0    0    0    0  0.00000000000E+00  0.00000000000E+00  0.45593999997E+02  0.45594000000E+02  0.51100000000E-03 0.  1.
         11   -1    0    0    0    0 -0.00000000000E+00 -0.00000000000E+00 -0.45593999997E+02  0.45594000000E+02  0.51100000000E-03 0. -1.
    9900012    2    1    2    0    0  0.73992273833E+01 -0.98885473658E+01  0.14076558498E+02  0.72461509832E+02  0.69999921236E+02 0.  0.
         12    1    1    2    0    0 -0.73992273833E+01  0.98885473658E+01 -0.14076558498E+02  0.18726490168E+02  0.00000000000E+00 0. -1.
         11    1    3    3    0    0 -0.37425291418E+01  0.48087218139E+01  0.34003316395E+02  0.34544983080E+02  0.51100000000E-03 0. -1.
        -11    1    3    3    0    0  0.39053482496E+01 -0.12343055733E+02  0.33956334140E+01  0.13384061279E+02  0.51100000000E-03 0.  1.
         12    1    3    3    0    0  0.72364082755E+01 -0.23542134463E+01 -0.23322391311E+02  0.24532465472E+02  0.00000000000E+00 0. -1.
</event>
<event>
 7    1  0.2873608E-013  0.7246159E+02  0.7816164E-02  0.1226708E+00
        -11   -1    0    0    0    0  0.00000000000E+00  0.00000000000E+00  0.45593999997E+02  0.45594000000E+02  0.51100000000E-03 0.  1.
         11   -1    0    0    0    0 -0.00000000000E+00 -0.00000000000E+00 -0.45593999997E+02  0.45594000000E+02  0.51100000000E-03 0. -1.
    9900012    2    1    2    0    0  0.15600725803E+02  0.10148496897E+02 -0.20745839398E+01  0.72461587280E+02  0.70000022127E+02 0.  0.
         12    1    1    2    0    0 -0.15600725803E+02 -0.10148496897E+02  0.20745839398E+01  0.18726412720E+02  0.00000000000E+00 0. -1.
         11    1    3    3    0    0  0.99784547237E+01  0.14128866730E+02 -0.11259344849E+02  0.20638974791E+02  0.51100000000E-03 0. -1.
        -11    1    3    3    0    0  0.25300076364E+02 -0.64915501955E+00  0.16892528454E+02  0.30428157751E+02  0.51100000000E-03 0.  1.
         12    1    3    3    0    0 -0.19677805285E+02 -0.33312148133E+01 -0.77077675455E+01  0.21394454738E+02  0.00000000000E+00 0. -1.
</event>
<event>
 7    1  0.2873608E-013  0.7246151E+02  0.7816164E-02  0.1226708E+00
        -11   -1    0    0    0    0  0.00000000000E+00  0.00000000000E+00  0.45593999997E+02  0.45594000000E+02  0.51100000000E-03 0. -1.
         11   -1    0    0    0    0 -0.00000000000E+00 -0.00000000000E+00 -0.45593999997E+02  0.45594000000E+02  0.51100000000E-03 0.  1.
    9900012    2    1    2    0    0 -0.93507195722E+01 -0.37396467863E+01 -0.15787982587E+02  0.72461513176E+02  0.69999925592E+02 0.  0.
         12    1    1    2    0    0  0.93507195722E+01  0.37396467863E+01  0.15787982587E+02  0.18726486824E+02  0.00000000000E+00 0. -1.
         11    1    3    3    0    0 -0.95641715720E+01  0.95778778809E+01 -0.32986910221E+01  0.13931636131E+02  0.51100000000E-03 0. -1.
        -11    1    3    3    0    0 -0.34720276319E+01  0.15741768396E+02 -0.22408120176E+02  0.27604023225E+02  0.51100000000E-03 0.  1.
        -12    1    3    3    0    0  0.36854796317E+01 -0.29059293064E+02  0.99188286110E+01  0.30925853820E+02  0.00000000000E+00 0.  1.
</event>
<event>
 7    1  0.2873608E-013  0.7246160E+02  0.7816164E-02  0.1226708E+00
        -11   -1    0    0    0    0  0.00000000000E+00  0.00000000000E+00  0.45593999997E+02  0.45594000000E+02  0.51100000000E-03 0.  1.
         11   -1    0    0    0    0 -0.00000000000E+00 -0.00000000000E+00 -0.45593999997E+02  0.45594000000E+02  0.51100000000E-03 0. -1.
    9900012    2    1    2    0    0  0.17916756520E+01  0.75453164720E+01  0.17045121337E+02  0.72461599820E+02  0.70000038463E+02 0.  0.
         12    1    1    2    0    0 -0.17916756520E+01 -0.75453164720E+01 -0.17045121337E+02  0.18726400180E+02  0.00000000000E+00 0. -1.
         11    1    3    3    0    0  0.43232516937E+01  0.15387417183E+02  0.16662752743E+02  0.23089184525E+02  0.51100000000E-03 0. -1.
        -11    1    3    3    0    0 -0.17976498078E+02  0.13866286522E+02  0.97168086463E+00  0.22723832182E+02  0.51100000000E-03 0.  1.
         12    1    3    3    0    0  0.15444922037E+02 -0.21708387233E+02 -0.58931227094E+00  0.26648583113E+02  0.00000000000E+00 0. -1.
</event>
<event>
 7    1  0.2873608E-013  0.7246161E+02  0.7816164E-02  0.1226708E+00
        -11   -1    0    0    0    0  0.00000000000E+00  0.00000000000E+00  0.45593999997E+02  0.45594000000E+02  0.51100000000E-03 0.  1.
         11   -1    0    0    0    0 -0.00000000000E+00 -0.00000000000E+00 -0.45593999997E+02  0.45594000000E+02  0.51100000000E-03 0. -1.
    9900012    2    1    2    0    0 -0.79302965836E+01  0.13334257270E+02  0.10487409636E+02  0.72461607349E+02  0.70000048270E+02 0.  0.
         12    1    1    2    0    0  0.79302965836E+01 -0.13334257270E+02 -0.10487409636E+02  0.18726392651E+02  0.00000000000E+00 0. -1.
         11    1    3    3    0    0  0.10765771855E+01  0.12888603062E+02 -0.68465609226E+01  0.14633882057E+02  0.51100000000E-03 0. -1.
        -11    1    3    3    0    0 -0.10124653126E+02 -0.14747181307E+00 -0.18969162262E+02  0.21502545571E+02  0.51100000000E-03 0.  1.
        -12    1    3    3    0    0  0.11177793570E+01  0.59312602105E+00  0.36303132821E+02  0.36325179721E+02  0.00000000000E+00 0.  1.
</event>
<event>
 7    1  0.2873608E-013  0.7246155E+02  0.7816164E-02  0.1226708E+00
        -11   -1    0    0    0    0  0.00000000000E+00  0.00000000000E+00  0.45593999997E+02  0.45594000000E+02  0.51100000000E-03 0. -1.
         11   -1    0    0    0    0 -0.00000000000E+00 -0.00000000000E+00 -0.45593999997E+02  0.45594000000E+02  0.51100000000E-03 0.  1.
    9900012    2    1    2    0    0  0.11580826635E+02  0.12611277652E+02 -0.75841984394E+01  0.72461549842E+02  0.69999973357E+02 0.  0.
         12    1    1    2    0    0 -0.11580826635E+02 -0.12611277652E+02  0.75841984394E+01  0.18726450158E+02  0.00000000000E+00 0. -1.
         11    1    3    3    0    0  0.88698642594E+01 -0.54239381304E+01 -0.31373595881E+02  0.33051416242E+02  0.51100000000E-03 0. -1.
        -11    1    3    3    0    0  0.72096222263E+01  0.96597671575E+01 -0.17301769846E+01  0.12177161691E+02  0.51100000000E-03 0.  1.
         12    1    3    3    0    0 -0.44986598507E+01  0.83754486248E+01  0.25519574426E+02  0.27232971909E+02  0.00000000000E+00 0. -1.
</event>
<event>
 7    1  0.2873608E-013  0.7246172E+02  0.7816164E-02  0.1226708E+00
        -11   -1    0    0    0    0  0.00000000000E+00  0.00000000000E+00  0.45593999997E+02  0.45594000000E+02  0.51100000000E-03 0. -1.
         11   -1    0    0    0    0 -0.00000000000E+00 -0.00000000000E+00 -0.45593999997E+02  0.45594000000E+02  0.51100000000E-03 0.  1.
    9900012    2    1    2    0    0 -0.11883886777E+02  0.56217106833E+01 -0.13335784074E+02  0.72461720796E+02  0.70000196057E+02 0.  0.
         12    1    1    2    0    0  0.11883886777E+02 -0.56217106833E+01  0.13335784074E+02  0.18726279204E+02  0.00000000000E+00 0. -1.
         11    1    3    3    0    0  0.79912342129E+01  0.93178283348E+01 -0.46173378247E+01  0.13114936446E+02  0.51100000000E-03 0. -1.
        -11    1    3    3    0    0  0.88993877468E+00  0.23944842650E+02 -0.13560507307E+01  0.23999715715E+02  0.51100000000E-03 0.  1.
         12    1    3    3    0    0 -0.20765059765E+02 -0.27640960301E+02 -0.73623955186E+01  0.35347068636E+02  0.00000000000E+00 0. -1.
</event>
<event>
 7    1  0.2873608E-013  0.7246219E+02  0.7816164E-02  0.1226706E+00
        -11   -1    0    0    0    0  0.00000000000E+00  0.00000000000E+00  0.45593999997E+02  0.45594000000E+02  0.51100000000E-03 0.  1.
         11   -1    0    0    0    0 -0.00000000000E+00 -0.00000000000E+00 -0.45593999997E+02  0.45594000000E+02  0.51100000000E-03 0. -1.
    9900012    2    1    2    0    0  0.29209177473E+01  0.95467831677E+01  0.15842448942E+02  0.72462188461E+02  0.70000805272E+02 0.  0.
         12    1    1    2    0    0 -0.29209177473E+01 -0.95467831677E+01 -0.15842448942E+02  0.18725811539E+02  0.00000000000E+00 0. -1.
         11    1    3    3    0    0 -0.50409871910E+01 -0.16041403418E+01  0.32245225628E+02  0.32676281828E+02  0.51100000000E-03 0. -1.
        -11    1    3    3    0    0  0.78188710973E+01  0.16408968747E+02  0.40881169972E+01  0.18630665619E+02  0.51100000000E-03 0.  1.
         12    1    3    3    0    0  0.14303384094E+00 -0.52580452370E+01 -0.20490893683E+02  0.21155241013E+02  0.00000000000E+00 0. -1.
</event>
<event>
 7    1  0.2873608E-013  0.7246173E+02  0.7816164E-02  0.1226708E+00
        -11   -1    0    0    0    0  0.00000000000E+00  0.00000000000E+00  0.45593999997E+02  0.45594000000E+02  0.51100000000E-03 0.  1.
         11   -1    0    0    0    0 -0.00000000000E+00 -0.00000000000E+00 -0.45593999997E+02  0.45594000000E+02  0.51100000000E-03 0. -1.
    9900012    2    1    2    0    0 -0.13591761875E+02 -0.11567648128E+02 -0.56680533319E+01  0.72461726941E+02  0.70000204061E+02 0.  0.
         12    1    1    2    0    0  0.13591761875E+02  0.11567648128E+02  0.56680533319E+01  0.18726273059E+02  0.00000000000E+00 0. -1.
         11    1    3    3    0    0 -0.19411355080E+02  0.87666516556E+01 -0.10340686387E+02  0.23676669582E+02  0.51100000000E-03 0. -1.
        -11    1    3    3    0    0  0.18388810979E+02  0.51596335446E+01 -0.30252747508E+01  0.19337075143E+02  0.51100000000E-03 0.  1.
         12    1    3    3    0    0 -0.12569217774E+02 -0.25493933328E+02  0.76979078055E+01  0.29447982216E+02  0.00000000000E+00 0. -1.
</event>
<event>
 7    1  0.2873608E-013  0.7246154E+02  0.7816164E-02  0.1226708E+00
        -11   -1    0    0    0    0  0.00000000000E+00  0.00000000000E+00  0.45593999997E+02  0.45594000000E+02  0.51100000000E-03 0. -1.
         11   -1    0    0    0    0 -0.00000000000E+00 -0.00000000000E+00 -0.45593999997E+02  0.45594000000E+02  0.51100000000E-03 0.  1.
    9900012    2    1    2    0    0  0.49016519487E+01 -0.30402919894E+00 -0.18071020989E+02  0.72461536768E+02  0.69999956326E+02 0.  0.
         12    1    1    2    0    0 -0.49016519487E+01  0.30402919894E+00  0.18071020989E+02  0.18726463232E+02  0.00000000000E+00 0. -1.
         11    1    3    3    0    0  0.16507700049E+01 -0.28304118936E+02 -0.20270318704E+02  0.34853034459E+02  0.51100000000E-03 0. -1.
        -11    1    3    3    0    0  0.14879233208E+01 -0.12433090986E+01 -0.67121775596E+01  0.69866344670E+01  0.51100000000E-03 0.  1.
        -12    1    3    3    0    0  0.17629586230E+01  0.29243398836E+02  0.89114752747E+01  0.30621867842E+02  0.00000000000E+00 0.  1.
</event>
<event>
 7    1  0.2873608E-013  0.7246160E+02  0.7816164E-02  0.1226708E+00
        -11   -1    0    0    0    0  0.00000000000E+00  0.00000000000E+00  0.45593999997E+02  0.45594000000E+02  0.51100000000E-03 0.  1.
         11   -1    0    0    0    0 -0.00000000000E+00 -0.00000000000E+00 -0.45593999997E+02  0.45594000000E+02  0.51100000000E-03 0. -1.
    9900012    2    1    2    0    0  0.11408086918E+02  0.11340584607E+02  0.95877325409E+01  0.72461603613E+02  0.70000043404E+02 0.  0.
         12    1    1    2    0    0 -0.11408086918E+02 -0.11340584607E+02 -0.95877325409E+01  0.18726396387E+02  0.00000000000E+00 0. -1.
         11    1    3    3    0    0  0.64339720205E+01  0.21309008613E+02 -0.61406946023E+01  0.23090646905E+02  0.51100000000E-03 0. -1.
        -11    1    3    3    0    0  0.22195671277E+02 -0.11220328551E+02  0.19611627415E+02  0.31672693702E+02  0.51100000000E-03 0.  1.
         12    1    3    3    0    0 -0.17221556379E+02  0.12519045447E+01 -0.38832002717E+01  0.17698263007E+02  0.00000000000E+00 0. -1.
</event>
<event>
 7    1  0.2873608E-013  0.7246153E+02  0.7816164E-02  0.1226708E+00
        -11   -1    0    0    0    0  0.00000000000E+00  0.00000000000E+00  0.45593999997E+02  0.45594000000E+02  0.51100000000E-03 0. -1.
         11   -1    0    0    0    0 -0.00000000000E+00 -0.00000000000E+00 -0.45593999997E+02  0.45594000000E+02  0.51100000000E-03 0.  1.
    9900012    2    1    2    0    0  0.14130041763E+02  0.11288863972E+02  0.48563400815E+01  0.72461532928E+02  0.69999951323E+02 0.  0.
         12    1    1    2    0    0 -0.14130041763E+02 -0.11288863972E+02 -0.48563400815E+01  0.18726467072E+02  0.00000000000E+00 0. -1.
         11    1    3    3    0    0 -0.12244179402E+02 -0.25041166207E+01  0.17189586592E+01  0.12615282336E+02  0.51100000000E-03 0. -1.
        -11    1    3    3    0    0 -0.83525720293E+01  0.13056283009E+02 -0.14203921585E+02  0.21023400633E+02  0.51100000000E-03 0.  1.
        -12    1    3    3    0    0  0.34726793195E+02  0.73669758344E+00  0.17341303007E+02  0.38822849959E+02  0.00000000000E+00 0.  1.
</event>
<event>
 7    1  0.2873608E-013  0.7246160E+02  0.7816164E-02  0.1226708E+00
        -11   -1    0    0    0    0  0.00000000000E+00  0.00000000000E+00  0.45593999997E+02  0.45594000000E+02  0.51100000000E-03 0.  1.
         11   -1    0    0    0    0 -0.00000000000E+00 -0.00000000000E+00 -0.45593999997E+02  0.45594000000E+02  0.51100000000E-03 0. -1.
    9900012    2    1    2    0    0 -0.17915082610E+02 -0.46912757459E+01 -0.27784338200E+01  0.72461602922E+02  0.70000042503E+02 0.  0.
         12    1    1    2    0    0  0.17915082610E+02  0.46912757459E+01  0.27784338200E+01  0.18726397078E+02  0.00000000000E+00 0. -1.
         11    1    3    3    0    0 -0.89147838700E+01 -0.29752945812E+02 -0.22290624457E+01  0.31139683293E+02  0.51100000000E-03 0. -1.
        -11    1    3    3    0    0  0.56356100360E+01 -0.50268979870E+01  0.18548027886E+01  0.77762521497E+01  0.51100000000E-03 0.  1.
        -12    1    3    3    0    0 -0.14635908776E+02  0.30088568053E+02 -0.24041741629E+01  0.33545667479E+02  0.00000000000E+00 0.  1.
</event>
<event>
 7    1  0.2873608E-013  0.7246149E+02  0.7816164E-02  0.1226708E+00
        -11   -1    0    0    0    0  0.00000000000E+00  0.00000000000E+00  0.45593999997E+02  0.45594000000E+02  0.51100000000E-03 0. -1.
         11   -1    0    0    0    0 -0.00000000000E+00 -0.00000000000E+00 -0.45593999997E+02  0.45594000000E+02  0.51100000000E-03 0.  1.
    9900012    2    1    2    0    0  0.81398157212E+01  0.50015856370E+01 -0.16106199972E+02  0.72461491078E+02  0.69999896807E+02 0.  0.
         12    1    1    2    0    0 -0.81398157212E+01 -0.50015856370E+01  0.16106199972E+02  0.18726508922E+02  0.00000000000E+00 0. -1.
         11    1    3    3    0    0 -0.21432600644E+01  0.14296589295E+02  0.13646995341E+02  0.19880304607E+02  0.51100000000E-03 0. -1.
        -11    1    3    3    0    0  0.72454808533E+01  0.15757958322E+02 -0.17077171971E+02  0.24340091332E+02  0.51100000000E-03 0.  1.
        -12    1    3    3    0    0  0.30375949324E+01 -0.25052961979E+02 -0.12676023342E+02  0.28241095140E+02  0.00000000000E+00 0.  1.
</event>
<event>
 7    1  0.2873608E-013  0.7246158E+02  0.7816164E-02  0.1226708E+00
        -11   -1    0    0    0    0  0.00000000000E+00  0.00000000000E+00  0.45593999997E+02  0.45594000000E+02  0.51100000000E-03 0. -1.
         11   -1    0    0    0    0 -0.00000000000E+00 -0.00000000000E+00 -0.45593999997E+02  0.45594000000E+02  0.51100000000E-03 0.  1.
    9900012    2    1    2    0    0 -0.32318655034E+01  0.10296274399E+02 -0.15304268668E+02  0.72461578542E+02  0.70000010745E+02 0.  0.
         12    1    1    2    0    0  0.32318655034E+01 -0.10296274399E+02  0.15304268668E+02  0.18726421458E+02  0.00000000000E+00 0. -1.
         11    1    3    3    0    0  0.93839162723E+01  0.13822168725E+02  0.23346966272E+02  0.28708728067E+02  0.51100000000E-03 0. -1.
        -11    1    3    3    0    0  0.16172748521E+01  0.40339854419E+01 -0.93891935131E+01  0.10346282984E+02  0.51100000000E-03 0.  1.
        -12    1    3    3    0    0 -0.14233056628E+02 -0.75598797676E+01 -0.29262041427E+02  0.33406567491E+02  0.00000000000E+00 0.  1.
</event>
<event>
 7    1  0.2873608E-013  0.7246137E+02  0.7816164E-02  0.1226709E+00
        -11   -1    0    0    0    0  0.00000000000E+00  0.00000000000E+00  0.45593999997E+02  0.45594000000E+02  0.51100000000E-03 0.  1.
         11   -1    0    0    0    0 -0.00000000000E+00 -0.00000000000E+00 -0.45593999997E+02  0.45594000000E+02  0.51100000000E-03 0. -1.
    9900012    2    1    2    0    0  0.95462086688E+01 -0.15146238577E+02  0.54907308193E+01  0.72461367416E+02  0.69999735713E+02 0.  0.
         12    1    1    2    0    0 -0.95462086688E+01  0.15146238577E+02 -0.54907308193E+01  0.18726632584E+02  0.00000000000E+00 0. -1.
         11    1    3    3    0    0  0.43837233613E+01 -0.18122847948E+02  0.10730140151E+02  0.21512567401E+02  0.51100000000E-03 0. -1.
        -11    1    3    3    0    0  0.13473145657E+02  0.23152528410E+02  0.43069076152E+01  0.27131433415E+02  0.51100000000E-03 0.  1.
         12    1    3    3    0    0 -0.83106603499E+01 -0.20175919039E+02 -0.95463169465E+01  0.23817366600E+02  0.00000000000E+00 0. -1.
</event>
<event>
 7    1  0.2873608E-013  0.7246155E+02  0.7816164E-02  0.1226708E+00
        -11   -1    0    0    0    0  0.00000000000E+00  0.00000000000E+00  0.45593999997E+02  0.45594000000E+02  0.51100000000E-03 0. -1.
         11   -1    0    0    0    0 -0.00000000000E+00 -0.00000000000E+00 -0.45593999997E+02  0.45594000000E+02  0.51100000000E-03 0.  1.
    9900012    2    1    2    0    0  0.17769680730E+01  0.17956789622E+02 -0.50075821216E+01  0.72461553787E+02  0.69999978497E+02 0.  0.
         12    1    1    2    0    0 -0.17769680730E+01 -0.17956789622E+02  0.50075821216E+01  0.18726446213E+02  0.00000000000E+00 0. -1.
         11    1    3    3    0    0  0.13889230669E+02 -0.12586098318E+02  0.97007589241E+01  0.21105101834E+02  0.51100000000E-03 0. -1.
        -11    1    3    3    0    0 -0.10210686887E+02  0.22494473377E+02  0.89652445285E+01  0.26279936624E+02  0.51100000000E-03 0.  1.
        -12    1    3    3    0    0 -0.19015757088E+01  0.80484145620E+01 -0.23673585574E+02  0.25076515330E+02  0.00000000000E+00 0.  1.
</event>
<event>
 7    1  0.2873608E-013  0.7246163E+02  0.7816164E-02  0.1226708E+00
        -11   -1    0    0    0    0  0.00000000000E+00  0.00000000000E+00  0.45593999997E+02  0.45594000000E+02  0.51100000000E-03 0.  1.
         11   -1    0    0    0    0 -0.00000000000E+00 -0.00000000000E+00 -0.45593999997E+02  0.45594000000E+02  0.51100000000E-03 0. -1.
    9900012    2    1    2    0    0  0.89906748061E+00  0.14148149655E+02  0.12235132955E+02  0.72461629838E+02  0.70000077567E+02 0.  0.
         12    1    1    2    0    0 -0.89906748061E+00 -0.14148149655E+02 -0.12235132955E+02  0.18726370162E+02  0.00000000000E+00 0. -1.
         11    1    3    3    0    0  0.14632024940E+02  0.17807665102E+02  0.16013505504E+02  0.28064950544E+02  0.51100000000E-03 0. -1.
        -11    1    3    3    0    0 -0.20286067266E+01  0.18513401063E+02 -0.50346878270E+01  0.19292727799E+02  0.51100000000E-03 0.  1.
         12    1    3    3    0    0 -0.11704350733E+02 -0.22172916509E+02  0.12563152777E+01  0.25103951495E+02  0.00000000000E+00 0. -1.
</event>
<event>
 7    1  0.2873608E-013  0.7246157E+02  0.7816164E-02  0.1226708E+00
        -11   -1    0    0    0    0  0.00000000000E+00  0.00000000000E+00  0.45593999997E+02  0.45594000000E+02  0.51100000000E-03 0.  1.
         11   -1    0    0    0    0 -0.00000000000E+00 -0.00000000000E+00 -0.45593999997E+02  0.45594000000E+02  0.51100000000E-03 0. -1.
    9900012    2    1    2    0    0  0.17349858331E+02  0.66927448256E+01  0.22065342503E+01  0.72461569192E+02  0.69999998564E+02 0.  0.
         12    1    1    2    0    0 -0.17349858331E+02 -0.66927448256E+01 -0.22065342503E+01  0.18726430808E+02  0.00000000000E+00 0. -1.
         11    1    3    3    0    0  0.18583928532E+02  0.48347780245E+01 -0.31690515020E+02  0.37054368444E+02  0.51100000000E-03 0. -1.
        -11    1    3    3    0    0  0.32425858952E+01  0.84541834042E+00  0.42756919272E+01  0.54323693887E+01  0.51100000000E-03 0.  1.
        -12    1    3    3    0    0 -0.44766560965E+01  0.10125484608E+01  0.29621357343E+02  0.29974831360E+02  0.00000000000E+00 0.  1.
</event>
<event>
 7    1  0.2873608E-013  0.7246158E+02  0.7816164E-02  0.1226708E+00
        -11   -1    0    0    0    0  0.00000000000E+00  0.00000000000E+00  0.45593999997E+02  0.45594000000E+02  0.51100000000E-03 0. -1.
         11   -1    0    0    0    0 -0.00000000000E+00 -0.00000000000E+00 -0.45593999997E+02  0.45594000000E+02  0.51100000000E-03 0.  1.
    9900012    2    1    2    0    0 -0.32115888017E+01 -0.18345952391E+02  0.19469239798E+01  0.72461580568E+02  0.70000013384E+02 0.  0.
         12    1    1    2    0    0  0.32115888017E+01  0.18345952391E+02 -0.19469239798E+01  0.18726419432E+02  0.00000000000E+00 0. -1.
         11    1    3    3    0    0 -0.61222615435E+00 -0.98448239533E+01 -0.14888379997E+01  0.99755710807E+01  0.51100000000E-03 0. -1.
        -11    1    3    3    0    0  0.17721914541E+02 -0.25112780014E+02 -0.10859945991E+02  0.32598411038E+02  0.51100000000E-03 0.  1.
         12    1    3    3    0    0 -0.20321277188E+02  0.16611651577E+02  0.14295707971E+02  0.29887598449E+02  0.00000000000E+00 0. -1.
</event>
<event>
 7    1  0.2873608E-013  0.7246156E+02  0.7816164E-02  0.1226708E+00
        -11   -1    0    0    0    0  0.00000000000E+00  0.00000000000E+00  0.45593999997E+02  0.45594000000E+02  0.51100000000E-03 0. -1.
         11   -1    0    0    0    0 -0.00000000000E+00 -0.00000000000E+00 -0.45593999997E+02  0.45594000000E+02  0.51100000000E-03 0.  1.
    9900012    2    1    2    0    0 -0.73756100934E+00 -0.18704620400E+02 -0.52218074657E+00  0.72461561650E+02  0.69999988739E+02 0.  0.
         12    1    1    2    0    0  0.73756100934E+00  0.18704620400E+02  0.52218074657E+00  0.18726438350E+02  0.00000000000E+00 0. -1.
         11    1    3    3    0    0 -0.14785092806E+02 -0.23814202637E+01 -0.66079717983E+01  0.16368733100E+02  0.51100000000E-03 0.  1.
        -11    1    3    3    0    0  0.33024002173E+02 -0.16058558865E+02  0.27567128395E+01  0.36824740302E+02  0.51100000000E-03 0. -1.
         12    1    3    3    0    0 -0.18976470377E+02 -0.26464127147E+00  0.33290782122E+01  0.19268088247E+02  0.00000000000E+00 0. -1.
</event>
<event>
 7    1  0.2873608E-013  0.7246154E+02  0.7816164E-02  0.1226708E+00
        -11   -1    0    0    0    0  0.00000000000E+00  0.00000000000E+00  0.45593999997E+02  0.45594000000E+02  0.51100000000E-03 0.  1.
         11   -1    0    0    0    0 -0.00000000000E+00 -0.00000000000E+00 -0.45593999997E+02  0.45594000000E+02  0.51100000000E-03 0. -1.
    9900012    2    1    2    0    0  0.10470381814E+02  0.89240958324E+01  0.12704795273E+02  0.72461542655E+02  0.69999963995E+02 0.  0.
         12    1    1    2    0    0 -0.10470381814E+02 -0.89240958324E+01 -0.12704795273E+02  0.18726457345E+02  0.00000000000E+00 0. -1.
         11    1    3    3    0    0  0.15909043015E+02 -0.78747852340E+01  0.61033914640E+00  0.17761824407E+02  0.51100000000E-03 0. -1.
        -11    1    3    3    0    0  0.17571737803E+02  0.70947810201E+01 -0.99372105336E+01  0.21397430701E+02  0.51100000000E-03 0.  1.
        -12    1    3    3    0    0 -0.23010399004E+02  0.97041000463E+01  0.22031666660E+02  0.33302287547E+02  0.00000000000E+00 0.  1.
</event>
<event>
 7    1  0.2873608E-013  0.7246160E+02  0.7816164E-02  0.1226708E+00
        -11   -1    0    0    0    0  0.00000000000E+00  0.00000000000E+00  0.45593999997E+02  0.45594000000E+02  0.51100000000E-03 0. -1.
         11   -1    0    0    0    0 -0.00000000000E+00 -0.00000000000E+00 -0.45593999997E+02  0.45594000000E+02  0.51100000000E-03 0.  1.
    9900012    2    1    2    0    0  0.12112160049E+02  0.55973068830E+01  0.13139395605E+02  0.72461601994E+02  0.70000041295E+02 0.  0.
         12    1    1    2    0    0 -0.12112160049E+02 -0.55973068830E+01 -0.13139395605E+02  0.18726398006E+02  0.00000000000E+00 0. -1.
         11    1    3    3    0    0 -0.39825985546E+01 -0.10284826528E+01  0.17289356962E+02  0.17771908514E+02  0.51100000000E-03 0. -1.
        -11    1    3    3    0    0 -0.17248397851E+02  0.25015757878E+01 -0.10712059213E+02  0.20457598165E+02  0.51100000000E-03 0.  1.
         12    1    3    3    0    0  0.33343156455E+02  0.41242137480E+01  0.65620978565E+01  0.34232095315E+02  0.00000000000E+00 0. -1.
</event>
<event>
 7    1  0.2873608E-013  0.7246158E+02  0.7816164E-02  0.1226708E+00
        -11   -1    0    0    0    0  0.00000000000E+00  0.00000000000E+00  0.45593999997E+02  0.45594000000E+02  0.51100000000E-03 0.  1.
         11   -1    0    0    0    0 -0.00000000000E+00 -0.00000000000E+00 -0.45593999997E+02  0.45594000000E+02  0.51100000000E-03 0. -1.
    9900012    2    1    2    0    0  0.11880248031E+02 -0.13998090588E+02  0.36867182026E+01  0.72461582176E+02  0.70000015479E+02 0.  0.
         12    1    1    2    0    0 -0.11880248031E+02  0.13998090588E+02 -0.36867182026E+01  0.18726417824E+02  0.00000000000E+00 0. -1.
         11    1    3    3    0    0 -0.43030828748E+01  0.67277584249E+01 -0.63612878712E+01  0.10210055793E+02  0.51100000000E-03 0. -1.
        -11    1    3    3    0    0  0.60829746362E+01  0.12776963851E+02  0.21231798503E+02  0.25515537494E+02  0.51100000000E-03 0.  1.
         12    1    3    3    0    0  0.10100356270E+02 -0.33502812864E+02 -0.11183792429E+02  0.36735988889E+02  0.00000000000E+00 0. -1.
</event>
<event>
 7    1  0.2873608E-013  0.7246156E+02  0.7816164E-02  0.1226708E+00
        -11   -1    0    0    0    0  0.00000000000E+00  0.00000000000E+00  0.45593999997E+02  0.45594000000E+02  0.51100000000E-03 0. -1.
         11   -1    0    0    0    0 -0.00000000000E+00 -0.00000000000E+00 -0.45593999997E+02  0.45594000000E+02  0.51100000000E-03 0.  1.
    9900012    2    1    2    0    0 -0.10811330103E+02  0.14575114327E+02 -0.46217762138E+01  0.72461557956E+02  0.69999983928E+02 0.  0.
         12    1    1    2    0    0  0.10811330103E+02 -0.14575114327E+02  0.46217762138E+01  0.18726442044E+02  0.00000000000E+00 0. -1.
         11    1    3    3    0    0  0.10361938767E+02  0.44988034299E+01  0.20932411345E+02  0.23786022204E+02  0.51100000000E-03 0. -1.
        -11    1    3    3    0    0  0.58545141661E+01 -0.69134527549E+01 -0.87664436591E+01  0.12606415026E+02  0.51100000000E-03 0.  1.
         12    1    3    3    0    0 -0.27027783035E+02  0.16989763652E+02 -0.16787743900E+02  0.36069120727E+02  0.00000000000E+00 0. -1.
</event>
<event>
 7    1  0.2873608E-013  0.7246129E+02  0.7816164E-02  0.1226709E+00
        -11   -1    0    0    0    0  0.00000000000E+00  0.00000000000E+00  0.45593999997E+02  0.45594000000E+02  0.51100000000E-03 0.  1.
         11   -1    0    0    0    0 -0.00000000000E+00 -0.00000000000E+00 -0.45593999997E+02  0.45594000000E+02  0.51100000000E-03 0. -1.
    9900012    2    1    2    0    0 -0.65423291261E+01 -0.12794606611E+02  0.12007726529E+02  0.72461293800E+02  0.69999639814E+02 0.  0.
         12    1    1    2    0    0  0.65423291261E+01  0.12794606611E+02 -0.12007726529E+02  0.18726706200E+02  0.00000000000E+00 0. -1.
         11    1    3    3    0    0  0.68687373030E+01  0.13964889562E+02  0.17926320314E+02  0.23739221826E+02  0.51100000000E-03 0. -1.
        -11    1    3    3    0    0  0.38495517251E+01 -0.85765966565E+01  0.13888513632E+02  0.16771042599E+02  0.51100000000E-03 0.  1.
         12    1    3    3    0    0 -0.17260618154E+02 -0.18182899516E+02 -0.19807107418E+02  0.31951029375E+02  0.00000000000E+00 0. -1.
</event>
<event>
 7    1  0.2873608E-013  0.7246178E+02  0.7816164E-02  0.1226707E+00
        -11   -1    0    0    0    0  0.00000000000E+00  0.00000000000E+00  0.45593999997E+02  0.45594000000E+02  0.51100000000E-03 0. -1.
         11   -1    0    0    0    0 -0.00000000000E+00 -0.00000000000E+00 -0.45593999997E+02  0.45594000000E+02  0.51100000000E-03 0.  1.
    9900012    2    1    2    0    0  0.10692082272E+01  0.18732940985E-01 -0.18695662765E+02  0.72461778721E+02  0.70000271514E+02 0.  0.
         12    1    1    2    0    0 -0.10692082272E+01 -0.18732940985E-01  0.18695662765E+02  0.18726221279E+02  0.00000000000E+00 0. -1.
         11    1    3    3    0    0  0.41595205771E+01  0.82740005391E+01 -0.11758129227E+02  0.14967107253E+02  0.51100000000E-03 0. -1.
        -11    1    3    3    0    0  0.91247754726E+01 -0.11210663709E+02 -0.28830381194E+02  0.32251068017E+02  0.51100000000E-03 0.  1.
         12    1    3    3    0    0 -0.12215087822E+02  0.29553961104E+01  0.21892847656E+02  0.25243603450E+02  0.00000000000E+00 0. -1.
</event>
<event>
 7    1  0.2873608E-013  0.7246158E+02  0.7816164E-02  0.1226708E+00
        -11   -1    0    0    0    0  0.00000000000E+00  0.00000000000E+00  0.45593999997E+02  0.45594000000E+02  0.51100000000E-03 0. -1.
         11   -1    0    0    0    0 -0.00000000000E+00 -0.00000000000E+00 -0.45593999997E+02  0.45594000000E+02  0.51100000000E-03 0.  1.
    9900012    2    1    2    0    0  0.79318012989E+01  0.37297369449E+01 -0.16548550338E+02  0.72461576748E+02  0.70000008407E+02 0.  0.
         12    1    1    2    0    0 -0.79318012989E+01 -0.37297369449E+01  0.16548550338E+02  0.18726423252E+02  0.00000000000E+00 0. -1.
         11    1    3    3    0    0 -0.21749546255E+02 -0.13367135745E+02 -0.74272734144E+01  0.26587355471E+02  0.51100000000E-03 0. -1.
        -11    1    3    3    0    0  0.33659684669E+01 -0.75262164955E+01 -0.48954884992E+01  0.95885080364E+01  0.51100000000E-03 0.  1.
         12    1    3    3    0    0  0.26315379087E+02  0.24623089186E+02 -0.42257884246E+01  0.36285713240E+02  0.00000000000E+00 0. -1.
</event>
<event>
 7    1  0.2873608E-013  0.7246156E+02  0.7816164E-02  0.1226708E+00
        -11   -1    0    0    0    0  0.00000000000E+00  0.00000000000E+00  0.45593999997E+02  0.45594000000E+02  0.51100000000E-03 0. -1.
         11   -1    0    0    0    0 -0.00000000000E+00 -0.00000000000E+00 -0.45593999997E+02  0.45594000000E+02  0.51100000000E-03 0.  1.
    9900012    2    1    2    0    0 -0.16389820873E+02  0.48510845728E+01 -0.76498541229E+01  0.72461560993E+02  0.69999987884E+02 0.  0.
         12    1    1    2    0    0  0.16389820873E+02 -0.48510845728E+01  0.76498541229E+01  0.18726439007E+02  0.00000000000E+00 0. -1.
         11    1    3    3    0    0 -0.14237025403E+02 -0.72385153690E+01  0.10459078852E+02  0.19091394076E+02  0.51100000000E-03 0. -1.
        -11    1    3    3    0    0 -0.15293277866E+02  0.23224654162E+02 -0.22298636352E+02  0.35644047080E+02  0.51100000000E-03 0.  1.
         12    1    3    3    0    0  0.13140482396E+02 -0.11135054220E+02  0.41897033771E+01  0.17726119837E+02  0.00000000000E+00 0. -1.
</event>
<event>
 7    1  0.2873608E-013  0.7246159E+02  0.7816164E-02  0.1226708E+00
        -11   -1    0    0    0    0  0.00000000000E+00  0.00000000000E+00  0.45593999997E+02  0.45594000000E+02  0.51100000000E-03 0.  1.
         11   -1    0    0    0    0 -0.00000000000E+00 -0.00000000000E+00 -0.45593999997E+02  0.45594000000E+02  0.51100000000E-03 0. -1.
    9900012    2    1    2    0    0 -0.14669303980E+02 -0.31517453767E+01  0.11205201741E+02  0.72461587524E+02  0.70000022445E+02 0.  0.
         12    1    1    2    0    0  0.14669303980E+02  0.31517453767E+01 -0.11205201741E+02  0.18726412476E+02  0.00000000000E+00 0. -1.
         11    1    3    3    0    0 -0.21313567833E+02  0.19153162704E+01  0.16839311780E+02  0.27230479828E+02  0.51100000000E-03 0. -1.
        -11    1    3    3    0    0 -0.13401805340E+02  0.10904349742E+02 -0.88279578078E+01  0.19402218145E+02  0.51100000000E-03 0.  1.
         12    1    3    3    0    0  0.20046069193E+02 -0.15971411389E+02  0.31938477685E+01  0.25828889550E+02  0.00000000000E+00 0. -1.
</event>
<event>
 7    1  0.2873608E-013  0.7246160E+02  0.7816164E-02  0.1226708E+00
        -11   -1    0    0    0    0  0.00000000000E+00  0.00000000000E+00  0.45593999997E+02  0.45594000000E+02  0.51100000000E-03 0.  1.
         11   -1    0    0    0    0 -0.00000000000E+00 -0.00000000000E+00 -0.45593999997E+02  0.45594000000E+02  0.51100000000E-03 0. -1.
    9900012    2    1    2    0    0  0.10977406129E+02 -0.34693575585E+01  0.14769501644E+02  0.72461599759E+02  0.70000038383E+02 0.  0.
         12    1    1    2    0    0 -0.10977406129E+02  0.34693575585E+01 -0.14769501644E+02  0.18726400241E+02  0.00000000000E+00 0. -1.
         11    1    3    3    0    0 -0.94453309945E+01 -0.94032578808E+01  0.40322214375E+01  0.13924595016E+02  0.51100000000E-03 0. -1.
        -11    1    3    3    0    0 -0.11185028567E+02 -0.70745877882E+01  0.19205206453E+02  0.23323692066E+02  0.51100000000E-03 0.  1.
         12    1    3    3    0    0  0.31607765690E+02  0.13008488110E+02 -0.84679262467E+01  0.35213312678E+02  0.00000000000E+00 0. -1.
</event>
<event>
 7    1  0.2873608E-013  0.7246184E+02  0.7816164E-02  0.1226707E+00
        -11   -1    0    0    0    0  0.00000000000E+00  0.00000000000E+00  0.45593999997E+02  0.45594000000E+02  0.51100000000E-03 0. -1.
         11   -1    0    0    0    0 -0.00000000000E+00 -0.00000000000E+00 -0.45593999997E+02  0.45594000000E+02  0.51100000000E-03 0.  1.
    9900012    2    1    2    0    0  0.17499080820E+02  0.24676326862E+01  0.61937158823E+01  0.72461837632E+02  0.70000348256E+02 0.  0.
         12    1    1    2    0    0 -0.17499080820E+02 -0.24676326862E+01 -0.61937158823E+01  0.18726162368E+02  0.00000000000E+00 0. -1.
         11    1    3    3    0    0 -0.42651135022E+01 -0.21223153044E+01  0.90783387201E+01  0.10252397262E+02  0.51100000000E-03 0. -1.
        -11    1    3    3    0    0  0.40136824648E+02  0.99941973763E+01 -0.85525006817E+01  0.42237352453E+02  0.51100000000E-03 0.  1.
         12    1    3    3    0    0 -0.18372630326E+02 -0.54042493858E+01  0.56678778438E+01  0.19972087917E+02  0.00000000000E+00 0. -1.
</event>
<event>
 7    1  0.2873608E-013  0.7246160E+02  0.7816164E-02  0.1226708E+00
        -11   -1    0    0    0    0  0.00000000000E+00  0.00000000000E+00  0.45593999997E+02  0.45594000000E+02  0.51100000000E-03 0.  1.
         11   -1    0    0    0    0 -0.00000000000E+00 -0.00000000000E+00 -0.45593999997E+02  0.45594000000E+02  0.51100000000E-03 0. -1.
    9900012    2    1    2    0    0 -0.12557694554E+02 -0.11418392177E+02 -0.79121893249E+01  0.72461598522E+02  0.70000036772E+02 0.  0.
         12    1    1    2    0    0  0.12557694554E+02  0.11418392177E+02  0.79121893249E+01  0.18726401478E+02  0.00000000000E+00 0. -1.
         11    1    3    3    0    0  0.63445004615E+01 -0.22356784351E+01 -0.13687711745E+02  0.15251373619E+02  0.51100000000E-03 0. -1.
        -11    1    3    3    0    0  0.26096022110E+01  0.20256834270E+02  0.11519162090E+01  0.20456692537E+02  0.51100000000E-03 0.  1.
         12    1    3    3    0    0 -0.21511797226E+02 -0.29439548011E+02  0.46236062115E+01  0.36753532366E+02  0.00000000000E+00 0. -1.
</event>
<event>
 7    1  0.2873608E-013  0.7246157E+02  0.7816164E-02  0.1226708E+00
        -11   -1    0    0    0    0  0.00000000000E+00  0.00000000000E+00  0.45593999997E+02  0.45594000000E+02  0.51100000000E-03 0. -1.
         11   -1    0    0    0    0 -0.00000000000E+00 -0.00000000000E+00 -0.45593999997E+02  0.45594000000E+02  0.51100000000E-03 0.  1.
    9900012    2    1    2    0    0  0.41342525061E+00  0.22615928319E+01 -0.18584763706E+02  0.72461570427E+02  0.70000000172E+02 0.  0.
         12    1    1    2    0    0 -0.41342525061E+00 -0.22615928319E+01  0.18584763706E+02  0.18726429573E+02  0.00000000000E+00 0. -1.
         11    1    3    3    0    0 -0.87730314868E+01  0.15510956750E+02  0.19112277149E+02  0.26131111703E+02  0.51100000000E-03 0. -1.
        -11    1    3    3    0    0  0.35751940237E+01  0.58410980036E+01 -0.73920634288E+01  0.10076856662E+02  0.51100000000E-03 0.  1.
        -12    1    3    3    0    0  0.56112627137E+01 -0.19090461922E+02 -0.30304977426E+02  0.36253602061E+02  0.00000000000E+00 0.  1.
</event>
<event>
 7    1  0.2873608E-013  0.7246155E+02  0.7816164E-02  0.1226708E+00
        -11   -1    0    0    0    0  0.00000000000E+00  0.00000000000E+00  0.45593999997E+02  0.45594000000E+02  0.51100000000E-03 0.  1.
         11   -1    0    0    0    0 -0.00000000000E+00 -0.00000000000E+00 -0.45593999997E+02  0.45594000000E+02  0.51100000000E-03 0. -1.
    9900012    2    1    2    0    0  0.14553759287E+02 -0.10251680782E+02 -0.58112814541E+01  0.72461551848E+02  0.69999975971E+02 0.  0.
         12    1    1    2    0    0 -0.14553759287E+02  0.10251680782E+02  0.58112814541E+01  0.18726448152E+02  0.00000000000E+00 0. -1.
         11    1    3    3    0    0  0.21857210737E+02 -0.72693250333E+01 -0.10534522528E+02  0.25328973781E+02  0.51100000000E-03 0. -1.
        -11    1    3    3    0    0 -0.28673978088E+01 -0.27475845356E+01 -0.20825370823E+02  0.21200642942E+02  0.51100000000E-03 0.  1.
        -12    1    3    3    0    0 -0.44360536419E+01 -0.23477121322E+00  0.25548611897E+02  0.25931935125E+02  0.00000000000E+00 0.  1.
</event>
<event>
 7    1  0.2873608E-013  0.7246166E+02  0.7816164E-02  0.1226708E+00
        -11   -1    0    0    0    0  0.00000000000E+00  0.00000000000E+00  0.45593999997E+02  0.45594000000E+02  0.51100000000E-03 0.  1.
         11   -1    0    0    0    0 -0.00000000000E+00 -0.00000000000E+00 -0.45593999997E+02  0.45594000000E+02  0.51100000000E-03 0. -1.
    9900012    2    1    2    0    0 -0.53309074326E+01 -0.17918354673E+02  0.10907256050E+01  0.72461663183E+02  0.70000121005E+02 0.  0.
         12    1    1    2    0    0  0.53309074326E+01  0.17918354673E+02 -0.10907256050E+01  0.18726336817E+02  0.00000000000E+00 0. -1.
         11    1    3    3    0    0  0.76746690043E+01  0.58360248042E+01  0.21717515741E+01  0.98831288063E+01  0.51100000000E-03 0. -1.
        -11    1    3    3    0    0 -0.10266356608E+02 -0.21006200874E+02  0.26146680001E+02  0.35075738460E+02  0.51100000000E-03 0.  1.
         12    1    3    3    0    0 -0.27392198290E+01 -0.27481786026E+01 -0.27227705970E+02  0.27502795917E+02  0.00000000000E+00 0. -1.
</event>
<event>
 7    1  0.2873608E-013  0.7246154E+02  0.7816164E-02  0.1226708E+00
        -11   -1    0    0    0    0  0.00000000000E+00  0.00000000000E+00  0.45593999997E+02  0.45594000000E+02  0.51100000000E-03 0. -1.
         11   -1    0    0    0    0 -0.00000000000E+00 -0.00000000000E+00 -0.45593999997E+02  0.45594000000E+02  0.51100000000E-03 0.  1.
    9900012    2    1    2    0    0 -0.59292444552E+01 -0.17432093652E+02 -0.34126992860E+01  0.72461538900E+02  0.69999959103E+02 0.  0.
         12    1    1    2    0    0  0.59292444552E+01  0.17432093652E+02  0.34126992860E+01  0.18726461100E+02  0.00000000000E+00 0. -1.
         11    1    3    3    0    0  0.16237113348E+01 -0.21297316820E+02  0.14300823399E+02  0.25704585046E+02  0.51100000000E-03 0. -1.
        -11    1    3    3    0    0 -0.93608711956E+01 -0.50742087983E+01  0.11783812586E+02  0.15881805433E+02  0.51100000000E-03 0.  1.
        -12    1    3    3    0    0  0.18079154057E+01  0.89394319659E+01 -0.29497335271E+02  0.30875148422E+02  0.00000000000E+00 0.  1.
</event>
<event>
 7    1  0.2873608E-013  0.7246157E+02  0.7816164E-02  0.1226708E+00
        -11   -1    0    0    0    0  0.00000000000E+00  0.00000000000E+00  0.45593999997E+02  0.45594000000E+02  0.51100000000E-03 0.  1.
         11   -1    0    0    0    0 -0.00000000000E+00 -0.00000000000E+00 -0.45593999997E+02  0.45594000000E+02  0.51100000000E-03 0. -1.
    9900012    2    1    2    0    0 -0.16500232148E+01 -0.18147253787E+02 -0.43166681954E+01  0.72461574262E+02  0.70000005169E+02 0.  0.
         12    1    1    2    0    0  0.16500232148E+01  0.18147253787E+02  0.43166681954E+01  0.18726425738E+02  0.00000000000E+00 0. -1.
         11    1    3    3    0    0 -0.15807398450E+01 -0.84388369890E+00 -0.40013358682E+01  0.43842407719E+01  0.51100000000E-03 0. -1.
        -11    1    3    3    0    0 -0.23220964272E+02 -0.63900668782E+01  0.23111776579E+02  0.33379639802E+02  0.51100000000E-03 0.  1.
         12    1    3    3    0    0  0.23151680902E+02 -0.10913303210E+02 -0.23427108906E+02  0.34697693688E+02  0.00000000000E+00 0. -1.
</event>
<event>
 7    1  0.2873608E-013  0.7246156E+02  0.7816164E-02  0.1226708E+00
        -11   -1    0    0    0    0  0.00000000000E+00  0.00000000000E+00  0.45593999997E+02  0.45594000000E+02  0.51100000000E-03 0.  1.
         11   -1    0    0    0    0 -0.00000000000E+00 -0.00000000000E+00 -0.45593999997E+02  0.45594000000E+02  0.51100000000E-03 0. -1.
    9900012    2    1    2    0    0  0.15993781851E+02  0.96930750560E+01  0.96071546887E+00  0.72461555165E+02  0.69999980291E+02 0.  0.
         12    1    1    2    0    0 -0.15993781851E+02 -0.96930750560E+01 -0.96071546887E+00  0.18726444835E+02  0.00000000000E+00 0. -1.
         11    1    3    3    0    0  0.49937304581E+01 -0.90224122945E+00 -0.41801773380E+01  0.65745924561E+01  0.51100000000E-03 0. -1.
        -11    1    3    3    0    0  0.36072197300E+02  0.16590782867E+02  0.56393825060E+01  0.40103118700E+02  0.51100000000E-03 0.  1.
         12    1    3    3    0    0 -0.25072145906E+02 -0.59954665814E+01 -0.49848969914E+00  0.25783844009E+02  0.00000000000E+00 0. -1.
</event>
<event>
 7    1  0.2873608E-013  0.7246163E+02  0.7816164E-02  0.1226708E+00
        -11   -1    0    0    0    0  0.00000000000E+00  0.00000000000E+00  0.45593999997E+02  0.45594000000E+02  0.51100000000E-03 0.  1.
         11   -1    0    0    0    0 -0.00000000000E+00 -0.00000000000E+00 -0.45593999997E+02  0.45594000000E+02  0.51100000000E-03 0. -1.
    9900012    2    1    2    0    0 -0.12969578084E+02 -0.10422625223E+02  0.85927746081E+01  0.72461632288E+02  0.70000080758E+02 0.  0.
         12    1    1    2    0    0  0.12969578084E+02  0.10422625223E+02 -0.85927746081E+01  0.18726367712E+02  0.00000000000E+00 0. -1.
         11    1    3    3    0    0 -0.16987321251E+02  0.13338959648E+02 -0.61184775088E+01  0.22448445270E+02  0.51100000000E-03 0. -1.
        -11    1    3    3    0    0  0.11001023221E+01  0.29734302329E+01  0.21937591159E+02  0.22165500639E+02  0.51100000000E-03 0.  1.
         12    1    3    3    0    0  0.29176408443E+01 -0.26735015104E+02 -0.72263390419E+01  0.27847686379E+02  0.00000000000E+00 0. -1.
</event>
<event>
 7    1  0.2873608E-013  0.7246161E+02  0.7816164E-02  0.1226708E+00
        -11   -1    0    0    0    0  0.00000000000E+00  0.00000000000E+00  0.45593999997E+02  0.45594000000E+02  0.51100000000E-03 0.  1.
         11   -1    0    0    0    0 -0.00000000000E+00 -0.00000000000E+00 -0.45593999997E+02  0.45594000000E+02  0.51100000000E-03 0. -1.
    9900012    2    1    2    0    0 -0.13970921021E+02  0.11074969738E+02  0.57302944400E+01  0.72461605172E+02  0.70000045435E+02 0.  0.
         12    1    1    2    0    0  0.13970921021E+02 -0.11074969738E+02 -0.57302944400E+01  0.18726394828E+02  0.00000000000E+00 0. -1.
         11    1    3    3    0    0 -0.38287843917E+02 -0.23497489010E+01  0.34909923295E+01  0.38518402607E+02  0.51100000000E-03 0. -1.
        -11    1    3    3    0    0  0.34053416184E+01  0.68523630311E+01  0.82115289977E+01  0.11224100828E+02  0.51100000000E-03 0.  1.
        -12    1    3    3    0    0  0.20911581277E+02  0.65723556079E+01 -0.59722268872E+01  0.22719101737E+02  0.00000000000E+00 0.  1.
</event>
<event>
 7    1  0.2873608E-013  0.7246155E+02  0.7816164E-02  0.1226708E+00
        -11   -1    0    0    0    0  0.00000000000E+00  0.00000000000E+00  0.45593999997E+02  0.45594000000E+02  0.51100000000E-03 0.  1.
         11   -1    0    0    0    0 -0.00000000000E+00 -0.00000000000E+00 -0.45593999997E+02  0.45594000000E+02  0.51100000000E-03 0. -1.
    9900012    2    1    2    0    0  0.10411614306E+02  0.15175258731E+02  0.34626035729E+01  0.72461553100E+02  0.69999977601E+02 0.  0.
         12    1    1    2    0    0 -0.10411614306E+02 -0.15175258731E+02 -0.34626035729E+01  0.18726446900E+02  0.00000000000E+00 0. -1.
         11    1    3    3    0    0 -0.14412700831E+02 -0.34682859823E+01 -0.53169275643E+01  0.15748799061E+02  0.51100000000E-03 0. -1.
        -11    1    3    3    0    0  0.24355875363E+02  0.32485757162E+01 -0.14699426578E+02  0.28632761845E+02  0.51100000000E-03 0.  1.
         12    1    3    3    0    0  0.46843977293E+00  0.15394968997E+02  0.23478957715E+02  0.28079992194E+02  0.00000000000E+00 0. -1.
</event>
<event>
 7    1  0.2873608E-013  0.7246159E+02  0.7816164E-02  0.1226708E+00
        -11   -1    0    0    0    0  0.00000000000E+00  0.00000000000E+00  0.45593999997E+02  0.45594000000E+02  0.51100000000E-03 0. -1.
         11   -1    0    0    0    0 -0.00000000000E+00 -0.00000000000E+00 -0.45593999997E+02  0.45594000000E+02  0.51100000000E-03 0.  1.
    9900012    2    1    2    0    0  0.10012772001E+02  0.14778061596E+02 -0.56596445097E+01  0.72461593947E+02  0.70000030813E+02 0.  0.
         12    1    1    2    0    0 -0.10012772001E+02 -0.14778061596E+02  0.56596445097E+01  0.18726406053E+02  0.00000000000E+00 0. -1.
         11    1    3    3    0    0 -0.26685324133E+01 -0.57988205222E+01  0.43600397737E+00  0.63982407284E+01  0.51100000000E-03 0. -1.
        -11    1    3    3    0    0  0.24729627588E+02  0.81616329933E-02 -0.25354809353E+02  0.35417804913E+02  0.51100000000E-03 0.  1.
         12    1    3    3    0    0 -0.12048323174E+02  0.20568720485E+02  0.19259160866E+02  0.30645548306E+02  0.00000000000E+00 0. -1.
</event>
<event>
 7    1  0.2873608E-013  0.7246157E+02  0.7816164E-02  0.1226708E+00
        -11   -1    0    0    0    0  0.00000000000E+00  0.00000000000E+00  0.45593999997E+02  0.45594000000E+02  0.51100000000E-03 0.  1.
         11   -1    0    0    0    0 -0.00000000000E+00 -0.00000000000E+00 -0.45593999997E+02  0.45594000000E+02  0.51100000000E-03 0. -1.
    9900012    2    1    2    0    0 -0.15925930036E+02 -0.27789819831E+01  0.94509949618E+01  0.72461566967E+02  0.69999995666E+02 0.  0.
         12    1    1    2    0    0  0.15925930036E+02  0.27789819831E+01 -0.94509949618E+01  0.18726433033E+02  0.00000000000E+00 0. -1.
         11    1    3    3    0    0 -0.28757259462E+02  0.59381954392E+01 -0.20713226122E+01  0.29436924338E+02  0.51100000000E-03 0. -1.
        -11    1    3    3    0    0 -0.52414950636E+01 -0.12910691821E+02  0.18536819287E+02  0.23189931077E+02  0.51100000000E-03 0.  1.
         12    1    3    3    0    0  0.18072824490E+02  0.41935143989E+01 -0.70145017134E+01  0.19834711552E+02  0.00000000000E+00 0. -1.
</event>
<event>
 7    1  0.2873608E-013  0.7246159E+02  0.7816164E-02  0.1226708E+00
        -11   -1    0    0    0    0  0.00000000000E+00  0.00000000000E+00  0.45593999997E+02  0.45594000000E+02  0.51100000000E-03 0.  1.
         11   -1    0    0    0    0 -0.00000000000E+00 -0.00000000000E+00 -0.45593999997E+02  0.45594000000E+02  0.51100000000E-03 0. -1.
    9900012    2    1    2    0    0  0.49946583288E+01  0.15189148391E+02  0.97478971126E+01  0.72461592476E+02  0.70000028895E+02 0.  0.
         12    1    1    2    0    0 -0.49946583288E+01 -0.15189148391E+02 -0.97478971126E+01  0.18726407524E+02  0.00000000000E+00 0. -1.
         11    1    3    3    0    0 -0.40910631764E+01  0.25001797312E+01 -0.34668261660E+01  0.59166359131E+01  0.51100000000E-03 0.  1.
        -11    1    3    3    0    0  0.65502081237E+01  0.33404537987E+02 -0.98523831614E+01  0.35437802398E+02  0.51100000000E-03 0. -1.
         12    1    3    3    0    0  0.25355133815E+01 -0.20715569328E+02  0.23067106440E+02  0.31107154164E+02  0.00000000000E+00 0. -1.
</event>
<event>
 7    1  0.2873608E-013  0.7246158E+02  0.7816164E-02  0.1226708E+00
        -11   -1    0    0    0    0  0.00000000000E+00  0.00000000000E+00  0.45593999997E+02  0.45594000000E+02  0.51100000000E-03 0.  1.
         11   -1    0    0    0    0 -0.00000000000E+00 -0.00000000000E+00 -0.45593999997E+02  0.45594000000E+02  0.51100000000E-03 0. -1.
    9900012    2    1    2    0    0  0.60316033186E+01 -0.24156537067E+01  0.17563118122E+02  0.72461581774E+02  0.70000014954E+02 0.  0.
         12    1    1    2    0    0 -0.60316033186E+01  0.24156537067E+01 -0.17563118122E+02  0.18726418226E+02  0.00000000000E+00 0. -1.
         11    1    3    3    0    0  0.63168982831E+00  0.13708188590E+02 -0.80917189529E+00  0.13746571422E+02  0.51100000000E-03 0. -1.
        -11    1    3    3    0    0 -0.10139792261E+02  0.10963009408E+02  0.22717614292E+02  0.27186264211E+02  0.51100000000E-03 0.  1.
        -12    1    3    3    0    0  0.15539705751E+02 -0.27086851704E+02 -0.43453242752E+01  0.31528746140E+02  0.00000000000E+00 0.  1.
</event>
<event>
 7    1  0.2873608E-013  0.7246156E+02  0.7816164E-02  0.1226708E+00
        -11   -1    0    0    0    0  0.00000000000E+00  0.00000000000E+00  0.45593999997E+02  0.45594000000E+02  0.51100000000E-03 0. -1.
         11   -1    0    0    0    0 -0.00000000000E+00 -0.00000000000E+00 -0.45593999997E+02  0.45594000000E+02  0.51100000000E-03 0.  1.
    9900012    2    1    2    0    0 -0.16895486874E+02 -0.12502079054E+01 -0.79786558672E+01  0.72461562913E+02  0.69999990385E+02 0.  0.
         12    1    1    2    0    0  0.16895486874E+02  0.12502079054E+01  0.79786558672E+01  0.18726437087E+02  0.00000000000E+00 0. -1.
         11    1    3    3    0    0 -0.11817598287E+02 -0.64973559239E+00 -0.28004841907E+01  0.12162257092E+02  0.51100000000E-03 0. -1.
        -11    1    3    3    0    0 -0.13452935513E+01 -0.20538269898E+02 -0.24696936839E+02  0.32149168491E+02  0.51100000000E-03 0.  1.
         12    1    3    3    0    0 -0.37325950356E+01  0.19937797585E+02  0.19518765163E+02  0.28150137330E+02  0.00000000000E+00 0. -1.
</event>
<event>
 7    1  0.2873608E-013  0.7246161E+02  0.7816164E-02  0.1226708E+00
        -11   -1    0    0    0    0  0.00000000000E+00  0.00000000000E+00  0.45593999997E+02  0.45594000000E+02  0.51100000000E-03 0.  1.
         11   -1    0    0    0    0 -0.00000000000E+00 -0.00000000000E+00 -0.45593999997E+02  0.45594000000E+02  0.51100000000E-03 0. -1.
    9900012    2    1    2    0    0 -0.11358989137E+02  0.15400800616E+01  0.14808079519E+02  0.72461609535E+02  0.70000051118E+02 0.  0.
         12    1    1    2    0    0  0.11358989137E+02 -0.15400800616E+01 -0.14808079519E+02  0.18726390465E+02  0.00000000000E+00 0. -1.
         11    1    3    3    0    0  0.79518901060E+01 -0.59075981218E+00 -0.14029763713E+02  0.16137404485E+02  0.51100000000E-03 0. -1.
        -11    1    3    3    0    0  0.10000653069E+02 -0.95538974627E+01  0.18542305056E+02  0.23132381970E+02  0.51100000000E-03 0.  1.
         12    1    3    3    0    0 -0.29311532311E+02  0.11684737337E+02  0.10295538176E+02  0.33191823080E+02  0.00000000000E+00 0. -1.
</event>
<event>
 7    1  0.2873608E-013  0.7246158E+02  0.7816164E-02  0.1226708E+00
        -11   -1    0    0    0    0  0.00000000000E+00  0.00000000000E+00  0.45593999997E+02  0.45594000000E+02  0.51100000000E-03 0. -1.
         11   -1    0    0    0    0 -0.00000000000E+00 -0.00000000000E+00 -0.45593999997E+02  0.45594000000E+02  0.51100000000E-03 0.  1.
    9900012    2    1    2    0    0 -0.14217407204E+02 -0.73879022685E+01 -0.96934555464E+01  0.72461578880E+02  0.70000011185E+02 0.  0.
         12    1    1    2    0    0  0.14217407204E+02  0.73879022685E+01  0.96934555464E+01  0.18726421120E+02  0.00000000000E+00 0. -1.
         11    1    3    3    0    0 -0.14481980338E+02  0.42314515970E+00  0.85524581713E+01  0.16824129914E+02  0.51100000000E-03 0. -1.
        -11    1    3    3    0    0 -0.14605619175E+02  0.16286422299E+02 -0.16249272280E+02  0.27250880952E+02  0.51100000000E-03 0.  1.
         12    1    3    3    0    0  0.14870192309E+02 -0.24097469728E+02 -0.19966414382E+01  0.28386568014E+02  0.00000000000E+00 0. -1.
</event>
<event>
 7    1  0.2873608E-013  0.7246155E+02  0.7816164E-02  0.1226708E+00
        -11   -1    0    0    0    0  0.00000000000E+00  0.00000000000E+00  0.45593999997E+02  0.45594000000E+02  0.51100000000E-03 0.  1.
         11   -1    0    0    0    0 -0.00000000000E+00 -0.00000000000E+00 -0.45593999997E+02  0.45594000000E+02  0.51100000000E-03 0. -1.
    9900012    2    1    2    0    0  0.10056520260E+02  0.60333880158E+01  0.14599470770E+02  0.72461550324E+02  0.69999973985E+02 0.  0.
         12    1    1    2    0    0 -0.10056520260E+02 -0.60333880158E+01 -0.14599470770E+02  0.18726449676E+02  0.00000000000E+00 0. -1.
         11    1    3    3    0    0  0.71828357213E+00  0.97253349910E+01 -0.75168114180E+01  0.12312616543E+02  0.51100000000E-03 0. -1.
        -11    1    3    3    0    0 -0.87272008451E+01 -0.19896938113E+02 -0.64516524877E+01  0.22664421478E+02  0.51100000000E-03 0.  1.
        -12    1    3    3    0    0  0.18065437533E+02  0.16204991137E+02  0.28567934675E+02  0.37484512304E+02  0.00000000000E+00 0.  1.
</event>
<event>
 7    1  0.2873608E-013  0.7246163E+02  0.7816164E-02  0.1226708E+00
        -11   -1    0    0    0    0  0.00000000000E+00  0.00000000000E+00  0.45593999997E+02  0.45594000000E+02  0.51100000000E-03 0.  1.
         11   -1    0    0    0    0 -0.00000000000E+00 -0.00000000000E+00 -0.45593999997E+02  0.45594000000E+02  0.51100000000E-03 0. -1.
    9900012    2    1    2    0    0  0.13785250254E+02  0.74433343335E+01  0.10258674224E+02  0.72461634966E+02  0.70000084246E+02 0.  0.
         12    1    1    2    0    0 -0.13785250254E+02 -0.74433343335E+01 -0.10258674224E+02  0.18726365034E+02  0.00000000000E+00 0. -1.
         11    1    3    3    0    0 -0.53672049719E+01  0.89038745227E+01  0.13237258034E+02  0.16831840994E+02  0.51100000000E-03 0. -1.
        -11    1    3    3    0    0  0.29883242360E+02 -0.72812919300E+01  0.14744588867E+02  0.34109064591E+02  0.51100000000E-03 0.  1.
         12    1    3    3    0    0 -0.10730787134E+02  0.58207517408E+01 -0.17723172677E+02  0.21520729381E+02  0.00000000000E+00 0. -1.
</event>
<event>
 7    1  0.2873608E-013  0.7246098E+02  0.7816164E-02  0.1226710E+00
        -11   -1    0    0    0    0  0.00000000000E+00  0.00000000000E+00  0.45593999997E+02  0.45594000000E+02  0.51100000000E-03 0.  1.
         11   -1    0    0    0    0 -0.00000000000E+00 -0.00000000000E+00 -0.45593999997E+02  0.45594000000E+02  0.51100000000E-03 0. -1.
    9900012    2    1    2    0    0  0.11085068956E+02 -0.12628043626E+02  0.82677033004E+01  0.72460983221E+02  0.69999235224E+02 0.  0.
         12    1    1    2    0    0 -0.11085068956E+02  0.12628043626E+02 -0.82677033004E+01  0.18727016779E+02  0.00000000000E+00 0. -1.
         11    1    3    3    0    0 -0.73252075997E+01 -0.28341650448E+02 -0.11753482622E+02  0.31544447538E+02  0.51100000000E-03 0. -1.
        -11    1    3    3    0    0  0.44429984173E+01  0.80071682408E+01 -0.56009289526E+01  0.10734308714E+02  0.51100000000E-03 0.  1.
        -12    1    3    3    0    0  0.13967278138E+02  0.77064385811E+01  0.25622114875E+02  0.30182226969E+02  0.00000000000E+00 0.  1.
</event>
<event>
 7    1  0.2873608E-013  0.7246159E+02  0.7816164E-02  0.1226708E+00
        -11   -1    0    0    0    0  0.00000000000E+00  0.00000000000E+00  0.45593999997E+02  0.45594000000E+02  0.51100000000E-03 0.  1.
         11   -1    0    0    0    0 -0.00000000000E+00 -0.00000000000E+00 -0.45593999997E+02  0.45594000000E+02  0.51100000000E-03 0. -1.
    9900012    2    1    2    0    0  0.10149309534E+02  0.13313471818E+02 -0.83917530152E+01  0.72461587249E+02  0.70000022086E+02 0.  0.
         12    1    1    2    0    0 -0.10149309534E+02 -0.13313471818E+02  0.83917530152E+01  0.18726412751E+02  0.00000000000E+00 0. -1.
         11    1    3    3    0    0  0.98909962670E+01  0.81997797075E+01 -0.85683452025E+01  0.15442950954E+02  0.51100000000E-03 0. -1.
        -11    1    3    3    0    0  0.22709987628E+02 -0.50680549002E+00  0.17028006612E+02  0.28389318402E+02  0.51100000000E-03 0.  1.
         12    1    3    3    0    0 -0.22451674361E+02  0.56204976002E+01 -0.16851414424E+02  0.28629317893E+02  0.00000000000E+00 0. -1.
</event>
<event>
 7    1  0.2873608E-013  0.7246160E+02  0.7816164E-02  0.1226708E+00
        -11   -1    0    0    0    0  0.00000000000E+00  0.00000000000E+00  0.45593999997E+02  0.45594000000E+02  0.51100000000E-03 0. -1.
         11   -1    0    0    0    0 -0.00000000000E+00 -0.00000000000E+00 -0.45593999997E+02  0.45594000000E+02  0.51100000000E-03 0.  1.
    9900012    2    1    2    0    0  0.89850410623E+01  0.16081111842E+02  0.33682488719E+01  0.72461595608E+02  0.70000032976E+02 0.  0.
         12    1    1    2    0    0 -0.89850410623E+01 -0.16081111842E+02 -0.33682488719E+01  0.18726404392E+02  0.00000000000E+00 0. -1.
         11    1    3    3    0    0 -0.80533703862E+01 -0.50663436131E+01  0.58626872744E+01  0.11175675126E+02  0.51100000000E-03 0. -1.
        -11    1    3    3    0    0  0.11313321480E+02  0.21447004978E+01 -0.27234769240E+02  0.29568964117E+02  0.51100000000E-03 0.  1.
         12    1    3    3    0    0  0.57250899690E+01  0.19002754958E+02  0.24740330838E+02  0.31716956365E+02  0.00000000000E+00 0. -1.
</event>
<event>
 7    1  0.2873608E-013  0.7246157E+02  0.7816164E-02  0.1226708E+00
        -11   -1    0    0    0    0  0.00000000000E+00  0.00000000000E+00  0.45593999997E+02  0.45594000000E+02  0.51100000000E-03 0. -1.
         11   -1    0    0    0    0 -0.00000000000E+00 -0.00000000000E+00 -0.45593999997E+02  0.45594000000E+02  0.51100000000E-03 0.  1.
    9900012    2    1    2    0    0 -0.81997490663E+01  0.13455094147E+02 -0.10119473555E+02  0.72461569793E+02  0.69999999347E+02 0.  0.
         12    1    1    2    0    0  0.81997490663E+01 -0.13455094147E+02  0.10119473555E+02  0.18726430207E+02  0.00000000000E+00 0. -1.
         11    1    3    3    0    0 -0.54892608732E+01 -0.24123846897E+02  0.74323859584E+01  0.25832776377E+02  0.51100000000E-03 0. -1.
        -11    1    3    3    0    0 -0.10053801223E+02  0.86327770841E+01 -0.40615635754E+01  0.13860016528E+02  0.51100000000E-03 0.  1.
        -12    1    3    3    0    0  0.73433130303E+01  0.28946163960E+02 -0.13490295938E+02  0.32768776888E+02  0.00000000000E+00 0.  1.
</event>
<event>
 7    1  0.2873608E-013  0.7246162E+02  0.7816164E-02  0.1226708E+00
        -11   -1    0    0    0    0  0.00000000000E+00  0.00000000000E+00  0.45593999997E+02  0.45594000000E+02  0.51100000000E-03 0. -1.
         11   -1    0    0    0    0 -0.00000000000E+00 -0.00000000000E+00 -0.45593999997E+02  0.45594000000E+02  0.51100000000E-03 0.  1.
    9900012    2    1    2    0    0  0.32585788940E+01 -0.14879533176E+02  0.10893049760E+02  0.72461618154E+02  0.70000062347E+02 0.  0.
         12    1    1    2    0    0 -0.32585788940E+01  0.14879533176E+02 -0.10893049760E+02  0.18726381846E+02  0.00000000000E+00 0. -1.
         11    1    3    3    0    0  0.22156909384E+02  0.24025536437E-01  0.17872905884E+02  0.28466998009E+02  0.51100000000E-03 0. -1.
        -11    1    3    3    0    0 -0.39320498520E+01 -0.89991406629E+01  0.14281328374E+02  0.17332105731E+02  0.51100000000E-03 0.  1.
        -12    1    3    3    0    0 -0.14966280638E+02 -0.59044180500E+01 -0.21261184497E+02  0.26662514414E+02  0.00000000000E+00 0.  1.
</event>
<event>
 7    1  0.2873608E-013  0.7246158E+02  0.7816164E-02  0.1226708E+00
        -11   -1    0    0    0    0  0.00000000000E+00  0.00000000000E+00  0.45593999997E+02  0.45594000000E+02  0.51100000000E-03 0. -1.
         11   -1    0    0    0    0 -0.00000000000E+00 -0.00000000000E+00 -0.45593999997E+02  0.45594000000E+02  0.51100000000E-03 0.  1.
    9900012    2    1    2    0    0 -0.14673221150E+02  0.10610255018E+02 -0.47747247002E+01  0.72461576785E+02  0.70000008455E+02 0.  0.
         12    1    1    2    0    0  0.14673221150E+02 -0.10610255018E+02  0.47747247002E+01  0.18726423215E+02  0.00000000000E+00 0. -1.
         11    1    3    3    0    0 -0.55898368841E+01 -0.11606913434E+02  0.17500500325E+02  0.21730950917E+02  0.51100000000E-03 0. -1.
        -11    1    3    3    0    0 -0.11379169834E+02 -0.86543506853E+01 -0.42785252829E+01  0.14922770210E+02  0.51100000000E-03 0.  1.
        -12    1    3    3    0    0  0.22957855681E+01  0.30871519137E+02 -0.17996699743E+02  0.35807855658E+02  0.00000000000E+00 0.  1.
</event>
<event>
 7    1  0.2873608E-013  0.7246151E+02  0.7816164E-02  0.1226708E+00
        -11   -1    0    0    0    0  0.00000000000E+00  0.00000000000E+00  0.45593999997E+02  0.45594000000E+02  0.51100000000E-03 0.  1.
         11   -1    0    0    0    0 -0.00000000000E+00 -0.00000000000E+00 -0.45593999997E+02  0.45594000000E+02  0.51100000000E-03 0. -1.
    9900012    2    1    2    0    0 -0.12300510501E+02 -0.12945202630E+02  0.56392174282E+01  0.72461505322E+02  0.69999915361E+02 0.  0.
         12    1    1    2    0    0  0.12300510501E+02  0.12945202630E+02 -0.56392174282E+01  0.18726494678E+02  0.00000000000E+00 0. -1.
         11    1    3    3    0    0 -0.15660700509E+02 -0.11324201601E+02 -0.14228062114E+00  0.19326544605E+02  0.51100000000E-03 0. -1.
        -11    1    3    3    0    0  0.58839056395E+01 -0.57743115802E+01  0.28620730466E+02  0.29784379001E+02  0.51100000000E-03 0.  1.
         12    1    3    3    0    0 -0.25237156324E+01  0.41533105509E+01 -0.22839232417E+02  0.23350581717E+02  0.00000000000E+00 0. -1.
</event>
<event>
 7    1  0.2873608E-013  0.7246161E+02  0.7816164E-02  0.1226708E+00
        -11   -1    0    0    0    0  0.00000000000E+00  0.00000000000E+00  0.45593999997E+02  0.45594000000E+02  0.51100000000E-03 0.  1.
         11   -1    0    0    0    0 -0.00000000000E+00 -0.00000000000E+00 -0.45593999997E+02  0.45594000000E+02  0.51100000000E-03 0. -1.
    9900012    2    1    2    0    0  0.54884766103E+01  0.17617941134E+02 -0.31878844805E+01  0.72461605986E+02  0.70000046495E+02 0.  0.
         12    1    1    2    0    0 -0.54884766103E+01 -0.17617941134E+02  0.31878844805E+01  0.18726394014E+02  0.00000000000E+00 0. -1.
         11    1    3    3    0    0 -0.17787315506E+02 -0.68138639433E+01  0.53251199211E+01  0.19778125219E+02  0.51100000000E-03 0. -1.
        -11    1    3    3    0    0 -0.56812094466E+01  0.19334132023E+02 -0.11378215598E+02  0.23141922831E+02  0.51100000000E-03 0.  1.
        -12    1    3    3    0    0  0.28957001563E+02  0.50976730547E+01  0.28652111965E+01  0.29541557936E+02  0.00000000000E+00 0.  1.
</event>
<event>
 7    1  0.2873608E-013  0.7246157E+02  0.7816164E-02  0.1226708E+00
        -11   -1    0    0    0    0  0.00000000000E+00  0.00000000000E+00  0.45593999997E+02  0.45594000000E+02  0.51100000000E-03 0.  1.
         11   -1    0    0    0    0 -0.00000000000E+00 -0.00000000000E+00 -0.45593999997E+02  0.45594000000E+02  0.51100000000E-03 0. -1.
    9900012    2    1    2    0    0  0.65984678539E+01 -0.94083879539E+01  0.14785858485E+02  0.72461570734E+02  0.70000000572E+02 0.  0.
         12    1    1    2    0    0 -0.65984678539E+01  0.94083879539E+01 -0.14785858485E+02  0.18726429266E+02  0.00000000000E+00 0. -1.
         11    1    3    3    0    0 -0.22777529108E+01  0.14405900341E+02  0.62289661197E+01  0.15859323509E+02  0.51100000000E-03 0. -1.
        -11    1    3    3    0    0 -0.54699493630E+01  0.32147377186E+01  0.22206897356E+02  0.23095479538E+02  0.51100000000E-03 0.  1.
         12    1    3    3    0    0  0.14346170128E+02 -0.27029026014E+02 -0.13650004991E+02  0.33506767687E+02  0.00000000000E+00 0. -1.
</event>
<event>
 7    1  0.2873608E-013  0.7246165E+02  0.7816164E-02  0.1226708E+00
        -11   -1    0    0    0    0  0.00000000000E+00  0.00000000000E+00  0.45593999997E+02  0.45594000000E+02  0.51100000000E-03 0.  1.
         11   -1    0    0    0    0 -0.00000000000E+00 -0.00000000000E+00 -0.45593999997E+02  0.45594000000E+02  0.51100000000E-03 0. -1.
    9900012    2    1    2    0    0  0.14999910391E+02 -0.10541098095E+02 -0.38162948701E+01  0.72461650454E+02  0.70000104423E+02 0.  0.
         12    1    1    2    0    0 -0.14999910391E+02  0.10541098095E+02  0.38162948701E+01  0.18726349546E+02  0.00000000000E+00 0. -1.
         11    1    3    3    0    0  0.10238253451E+02  0.16435880808E+02 -0.22913166891E+02  0.29999553812E+02  0.51100000000E-03 0. -1.
        -11    1    3    3    0    0  0.88309973999E+01 -0.12706877968E+01 -0.17792892252E+01  0.90976388675E+01  0.51100000000E-03 0.  1.
        -12    1    3    3    0    0 -0.40693404602E+01 -0.25706291106E+02  0.20876161246E+02  0.33364457775E+02  0.00000000000E+00 0.  1.
</event>
<event>
 7    1  0.2873608E-013  0.7246159E+02  0.7816164E-02  0.1226708E+00
        -11   -1    0    0    0    0  0.00000000000E+00  0.00000000000E+00  0.45593999997E+02  0.45594000000E+02  0.51100000000E-03 0.  1.
         11   -1    0    0    0    0 -0.00000000000E+00 -0.00000000000E+00 -0.45593999997E+02  0.45594000000E+02  0.51100000000E-03 0. -1.
    9900012    2    1    2    0    0 -0.81989724868E+01  0.14430219386E+02  0.86731884487E+01  0.72461586055E+02  0.70000020531E+02 0.  0.
         12    1    1    2    0    0  0.81989724868E+01 -0.14430219386E+02 -0.86731884487E+01  0.18726413945E+02  0.00000000000E+00 0. -1.
         11    1    3    3    0    0  0.15972019108E+02 -0.25040184417E+01 -0.18156078226E+02  0.24310875747E+02  0.51100000000E-03 0. -1.
        -11    1    3    3    0    0 -0.26955565174E+01 -0.60381824301E+01 -0.29881307100E+00  0.66192870847E+01  0.51100000000E-03 0.  1.
        -12    1    3    3    0    0 -0.21475435078E+02  0.22972420258E+02  0.27128079746E+02  0.41531423224E+02  0.00000000000E+00 0.  1.
</event>
<event>
 7    1  0.2873608E-013  0.7246154E+02  0.7816164E-02  0.1226708E+00
        -11   -1    0    0    0    0  0.00000000000E+00  0.00000000000E+00  0.45593999997E+02  0.45594000000E+02  0.51100000000E-03 0.  1.
         11   -1    0    0    0    0 -0.00000000000E+00 -0.00000000000E+00 -0.45593999997E+02  0.45594000000E+02  0.51100000000E-03 0. -1.
    9900012    2    1    2    0    0  0.10494091285E+02 -0.59832353213E+01  0.14309265103E+02  0.72461544793E+02  0.69999966780E+02 0.  0.
         12    1    1    2    0    0 -0.10494091285E+02  0.59832353213E+01 -0.14309265103E+02  0.18726455207E+02  0.00000000000E+00 0. -1.
         11    1    3    3    0    0 -0.55282630515E+01  0.66328401957E+01 -0.17898215454E+02  0.19872150818E+02  0.51100000000E-03 0. -1.
        -11    1    3    3    0    0 -0.28210614931E+01  0.10271023168E+02  0.14721133175E+02  0.18170417361E+02  0.51100000000E-03 0.  1.
         12    1    3    3    0    0  0.18843415830E+02 -0.22887098685E+02  0.17486347383E+02  0.34418976614E+02  0.00000000000E+00 0. -1.
</event>
<event>
 7    1  0.2873608E-013  0.7246157E+02  0.7816164E-02  0.1226708E+00
        -11   -1    0    0    0    0  0.00000000000E+00  0.00000000000E+00  0.45593999997E+02  0.45594000000E+02  0.51100000000E-03 0. -1.
         11   -1    0    0    0    0 -0.00000000000E+00 -0.00000000000E+00 -0.45593999997E+02  0.45594000000E+02  0.51100000000E-03 0.  1.
    9900012    2    1    2    0    0  0.11138510382E+02  0.42775913659E+01 -0.14433122005E+02  0.72461569154E+02  0.69999998515E+02 0.  0.
         12    1    1    2    0    0 -0.11138510382E+02 -0.42775913659E+01  0.14433122005E+02  0.18726430846E+02  0.00000000000E+00 0. -1.
         11    1    3    3    0    0  0.36760194086E+02  0.34885510367E+01 -0.17336423435E+02  0.40792565932E+02  0.51100000000E-03 0. -1.
        -11    1    3    3    0    0  0.28864999903E+00  0.37010790482E+01  0.41470336035E+01  0.55658955175E+01  0.51100000000E-03 0.  1.
        -12    1    3    3    0    0 -0.25910333703E+02 -0.29120387190E+01 -0.12437321730E+01  0.26103107704E+02  0.00000000000E+00 0.  1.
</event>
<event>
 7    1  0.2873608E-013  0.7246157E+02  0.7816164E-02  0.1226708E+00
        -11   -1    0    0    0    0  0.00000000000E+00  0.00000000000E+00  0.45593999997E+02  0.45594000000E+02  0.51100000000E-03 0.  1.
         11   -1    0    0    0    0 -0.00000000000E+00 -0.00000000000E+00 -0.45593999997E+02  0.45594000000E+02  0.51100000000E-03 0. -1.
    9900012    2    1    2    0    0  0.16790670984E+02 -0.75126013655E+01 -0.35090289293E+01  0.72461572273E+02  0.70000002578E+02 0.  0.
         12    1    1    2    0    0 -0.16790670984E+02  0.75126013655E+01  0.35090289293E+01  0.18726427727E+02  0.00000000000E+00 0. -1.
         11    1    3    3    0    0  0.24283511523E+02  0.21331118429E+02 -0.13535066803E+02  0.35041455148E+02  0.51100000000E-03 0. -1.
        -11    1    3    3    0    0  0.26655481984E+00  0.49746741974E+00 -0.39619166460E+01  0.40019131771E+01  0.51100000000E-03 0.  1.
        -12    1    3    3    0    0 -0.77593953586E+01 -0.29341187214E+02  0.13987954519E+02  0.33418203948E+02  0.00000000000E+00 0.  1.
</event>
<event>
 7    1  0.2873608E-013  0.7246158E+02  0.7816164E-02  0.1226708E+00
        -11   -1    0    0    0    0  0.00000000000E+00  0.00000000000E+00  0.45593999997E+02  0.45594000000E+02  0.51100000000E-03 0. -1.
         11   -1    0    0    0    0 -0.00000000000E+00 -0.00000000000E+00 -0.45593999997E+02  0.45594000000E+02  0.51100000000E-03 0.  1.
    9900012    2    1    2    0    0 -0.60543453623E+01 -0.17069125359E+02 -0.47611696770E+01  0.72461578159E+02  0.70000010245E+02 0.  0.
         12    1    1    2    0    0  0.60543453623E+01  0.17069125359E+02  0.47611696770E+01  0.18726421841E+02  0.00000000000E+00 0. -1.
         11    1    3    3    0    0 -0.68568484040E+01  0.97618980169E+01  0.90052460289E+01  0.14946754806E+02  0.51100000000E-03 0. -1.
        -11    1    3    3    0    0 -0.21537351009E+02 -0.22282359977E+02 -0.20966416774E+00  0.30990401965E+02  0.51100000000E-03 0.  1.
         12    1    3    3    0    0  0.22339854050E+02 -0.45486633981E+01 -0.13556751538E+02  0.26524421388E+02  0.00000000000E+00 0. -1.
</event>
<event>
 7    1  0.2873608E-013  0.7246157E+02  0.7816164E-02  0.1226708E+00
        -11   -1    0    0    0    0  0.00000000000E+00  0.00000000000E+00  0.45593999997E+02  0.45594000000E+02  0.51100000000E-03 0. -1.
         11   -1    0    0    0    0 -0.00000000000E+00 -0.00000000000E+00 -0.45593999997E+02  0.45594000000E+02  0.51100000000E-03 0.  1.
    9900012    2    1    2    0    0 -0.13194333395E+02  0.12605901153E+02 -0.42047431132E+01  0.72461573692E+02  0.70000004426E+02 0.  0.
         12    1    1    2    0    0  0.13194333395E+02 -0.12605901153E+02  0.42047431132E+01  0.18726426308E+02  0.00000000000E+00 0. -1.
         11    1    3    3    0    0 -0.61415283549E+01  0.11893886004E+02  0.84029775974E+01  0.15804838739E+02  0.51100000000E-03 0. -1.
        -11    1    3    3    0    0 -0.30608055787E+02  0.16276721603E+01 -0.17441172454E+01  0.30700885019E+02  0.51100000000E-03 0.  1.
         12    1    3    3    0    0  0.23555250747E+02 -0.91565701085E+00 -0.10863603465E+02  0.25955849933E+02  0.00000000000E+00 0. -1.
</event>
<event>
 7    1  0.2873608E-013  0.7246157E+02  0.7816164E-02  0.1226708E+00
        -11   -1    0    0    0    0  0.00000000000E+00  0.00000000000E+00  0.45593999997E+02  0.45594000000E+02  0.51100000000E-03 0. -1.
         11   -1    0    0    0    0 -0.00000000000E+00 -0.00000000000E+00 -0.45593999997E+02  0.45594000000E+02  0.51100000000E-03 0.  1.
    9900012    2    1    2    0    0 -0.55931816928E+01 -0.27255016006E+01 -0.17662594322E+02  0.72461567382E+02  0.69999996206E+02 0.  0.
         12    1    1    2    0    0  0.55931816928E+01  0.27255016006E+01  0.17662594322E+02  0.18726432618E+02  0.00000000000E+00 0. -1.
         11    1    3    3    0    0 -0.11884913907E+02 -0.44095404080E+00  0.16710970453E+02  0.20511025152E+02  0.51100000000E-03 0. -1.
        -11    1    3    3    0    0  0.47359686279E+01 -0.80340269539E+01  0.60330253868E+01  0.11107312164E+02  0.51100000000E-03 0.  1.
        -12    1    3    3    0    0  0.15557635860E+01  0.57494793941E+01 -0.40406590162E+02  0.40843230065E+02  0.00000000000E+00 0.  1.
</event>
<event>
 7    1  0.2873608E-013  0.7246156E+02  0.7816164E-02  0.1226708E+00
        -11   -1    0    0    0    0  0.00000000000E+00  0.00000000000E+00  0.45593999997E+02  0.45594000000E+02  0.51100000000E-03 0.  1.
         11   -1    0    0    0    0 -0.00000000000E+00 -0.00000000000E+00 -0.45593999997E+02  0.45594000000E+02  0.51100000000E-03 0. -1.
    9900012    2    1    2    0    0 -0.16986791752E+02 -0.70700290326E+01  0.34846847180E+01  0.72461563282E+02  0.69999990865E+02 0.  0.
         12    1    1    2    0    0  0.16986791752E+02  0.70700290326E+01 -0.34846847180E+01  0.18726436718E+02  0.00000000000E+00 0. -1.
         11    1    3    3    0    0 -0.83207134568E+01  0.44933092859E+01  0.23532259076E+02  0.25361216813E+02  0.51100000000E-03 0. -1.
        -11    1    3    3    0    0 -0.10241555823E+01 -0.78131958903E+01  0.11769675321E+02  0.14164045400E+02  0.51100000000E-03 0.  1.
         12    1    3    3    0    0 -0.76419227134E+01 -0.37501424282E+01 -0.31817249679E+02  0.32936301069E+02  0.00000000000E+00 0. -1.
</event>
<event>
 7    1  0.2873608E-013  0.7246160E+02  0.7816164E-02  0.1226708E+00
        -11   -1    0    0    0    0  0.00000000000E+00  0.00000000000E+00  0.45593999997E+02  0.45594000000E+02  0.51100000000E-03 0.  1.
         11   -1    0    0    0    0 -0.00000000000E+00 -0.00000000000E+00 -0.45593999997E+02  0.45594000000E+02  0.51100000000E-03 0. -1.
    9900012    2    1    2    0    0 -0.21958171714E+01  0.14649955889E+02 -0.11455787095E+02  0.72461604763E+02  0.70000044902E+02 0.  0.
         12    1    1    2    0    0  0.21958171714E+01 -0.14649955889E+02  0.11455787095E+02  0.18726395237E+02  0.00000000000E+00 0. -1.
         11    1    3    3    0    0 -0.17755408731E+02 -0.11620490285E+01  0.12434381469E+02  0.21707573331E+02  0.51100000000E-03 0. -1.
        -11    1    3    3    0    0  0.17293085819E+02  0.80029314197E+01  0.58690465107E+01  0.19938491308E+02  0.51100000000E-03 0.  1.
         12    1    3    3    0    0 -0.17334942592E+01  0.78090734976E+01 -0.29759215075E+02  0.30815540124E+02  0.00000000000E+00 0. -1.
</event>
<event>
 7    1  0.2873608E-013  0.7246150E+02  0.7816164E-02  0.1226708E+00
        -11   -1    0    0    0    0  0.00000000000E+00  0.00000000000E+00  0.45593999997E+02  0.45594000000E+02  0.51100000000E-03 0.  1.
         11   -1    0    0    0    0 -0.00000000000E+00 -0.00000000000E+00 -0.45593999997E+02  0.45594000000E+02  0.51100000000E-03 0. -1.
    9900012    2    1    2    0    0 -0.66698569114E+01  0.16910393280E+02 -0.44981725923E+01  0.72461496088E+02  0.69999903332E+02 0.  0.
         12    1    1    2    0    0  0.66698569114E+01 -0.16910393280E+02  0.44981725923E+01  0.18726503912E+02  0.00000000000E+00 0. -1.
         11    1    3    3    0    0 -0.32663794179E+01  0.23171455738E+02 -0.16162898920E+02  0.28439846998E+02  0.51100000000E-03 0. -1.
        -11    1    3    3    0    0  0.51677635267E+01  0.62157517639E+01 -0.12867085272E+02  0.15195500437E+02  0.51100000000E-03 0.  1.
        -12    1    3    3    0    0 -0.85712410202E+01 -0.12476814222E+02  0.24531811600E+02  0.28826148652E+02  0.00000000000E+00 0.  1.
</event>
<event>
 7    1  0.2873608E-013  0.7246154E+02  0.7816164E-02  0.1226708E+00
        -11   -1    0    0    0    0  0.00000000000E+00  0.00000000000E+00  0.45593999997E+02  0.45594000000E+02  0.51100000000E-03 0.  1.
         11   -1    0    0    0    0 -0.00000000000E+00 -0.00000000000E+00 -0.45593999997E+02  0.45594000000E+02  0.51100000000E-03 0. -1.
    9900012    2    1    2    0    0 -0.10931343933E+02  0.14866565712E+02  0.31892450305E+01  0.72461539040E+02  0.69999959285E+02 0.  0.
         12    1    1    2    0    0  0.10931343933E+02 -0.14866565712E+02 -0.31892450305E+01  0.18726460960E+02  0.00000000000E+00 0. -1.
         11    1    3    3    0    0 -0.32059280219E+02 -0.81559175660E+01  0.46271060680E+01  0.33402493175E+02  0.51100000000E-03 0. -1.
        -11    1    3    3    0    0  0.78261748766E+01 -0.23546737779E+01 -0.58753608336E+01  0.10065454137E+02  0.51100000000E-03 0.  1.
        -12    1    3    3    0    0  0.13301761409E+02  0.25377157055E+02  0.44374997961E+01  0.28993591727E+02  0.00000000000E+00 0.  1.
</event>
<event>
 7    1  0.2873608E-013  0.7246158E+02  0.7816164E-02  0.1226708E+00
        -11   -1    0    0    0    0  0.00000000000E+00  0.00000000000E+00  0.45593999997E+02  0.45594000000E+02  0.51100000000E-03 0. -1.
         11   -1    0    0    0    0 -0.00000000000E+00 -0.00000000000E+00 -0.45593999997E+02  0.45594000000E+02  0.51100000000E-03 0.  1.
    9900012    2    1    2    0    0 -0.10240333818E+02 -0.14022175930E+02  0.70137691444E+01  0.72461579836E+02  0.70000012430E+02 0.  0.
         12    1    1    2    0    0  0.10240333818E+02  0.14022175930E+02 -0.70137691444E+01  0.18726420164E+02  0.00000000000E+00 0. -1.
         11    1    3    3    0    0 -0.24555548501E+02  0.70396037411E+01  0.11762681351E+02  0.28122796018E+02  0.51100000000E-03 0. -1.
        -11    1    3    3    0    0  0.28364406302E+01  0.51883934390E+01  0.10375012606E+02  0.11941763218E+02  0.51100000000E-03 0.  1.
        -12    1    3    3    0    0  0.11478774053E+02 -0.26250173110E+02 -0.15123924812E+02  0.32397020601E+02  0.00000000000E+00 0.  1.
</event>
<event>
 7    1  0.2873608E-013  0.7246156E+02  0.7816164E-02  0.1226708E+00
        -11   -1    0    0    0    0  0.00000000000E+00  0.00000000000E+00  0.45593999997E+02  0.45594000000E+02  0.51100000000E-03 0.  1.
         11   -1    0    0    0    0 -0.00000000000E+00 -0.00000000000E+00 -0.45593999997E+02  0.45594000000E+02  0.51100000000E-03 0. -1.
    9900012    2    1    2    0    0  0.18133561078E+02  0.22247057576E+01 -0.41114632118E+01  0.72461561929E+02  0.69999989103E+02 0.  0.
         12    1    1    2    0    0 -0.18133561078E+02 -0.22247057576E+01  0.41114632118E+01  0.18726438071E+02  0.00000000000E+00 0. -1.
         11    1    3    3    0    0  0.12760842158E+02 -0.62396258988E+01  0.24969146609E+00  0.14206842366E+02  0.51100000000E-03 0. -1.
        -11    1    3    3    0    0  0.17603107403E+01  0.23981635652E+02  0.18535173719E+02  0.30360668760E+02  0.51100000000E-03 0.  1.
         12    1    3    3    0    0  0.36124081797E+01 -0.15517303996E+02 -0.22896328397E+02  0.27894050803E+02  0.00000000000E+00 0. -1.
</event>
<event>
 7    1  0.2873608E-013  0.7246157E+02  0.7816164E-02  0.1226708E+00
        -11   -1    0    0    0    0  0.00000000000E+00  0.00000000000E+00  0.45593999997E+02  0.45594000000E+02  0.51100000000E-03 0. -1.
         11   -1    0    0    0    0 -0.00000000000E+00 -0.00000000000E+00 -0.45593999997E+02  0.45594000000E+02  0.51100000000E-03 0.  1.
    9900012    2    1    2    0    0  0.17480232951E+02 -0.21549899087E+01 -0.63621167948E+01  0.72461573335E+02  0.70000003961E+02 0.  0.
         12    1    1    2    0    0 -0.17480232951E+02  0.21549899087E+01  0.63621167948E+01  0.18726426665E+02  0.00000000000E+00 0. -1.
         11    1    3    3    0    0 -0.21929636569E+02  0.39246072743E+01  0.14224438507E+01  0.22323414817E+02  0.51100000000E-03 0. -1.
        -11    1    3    3    0    0  0.10259905546E+01 -0.30549928216E+01 -0.11037287086E+02  0.11498145252E+02  0.51100000000E-03 0.  1.
        -12    1    3    3    0    0  0.38383878965E+02 -0.30246043614E+01  0.32527264401E+01  0.38640013267E+02  0.00000000000E+00 0.  1.
</event>
<event>
 7    1  0.2873608E-013  0.7246161E+02  0.7816164E-02  0.1226708E+00
        -11   -1    0    0    0    0  0.00000000000E+00  0.00000000000E+00  0.45593999997E+02  0.45594000000E+02  0.51100000000E-03 0. -1.
         11   -1    0    0    0    0 -0.00000000000E+00 -0.00000000000E+00 -0.45593999997E+02  0.45594000000E+02  0.51100000000E-03 0.  1.
    9900012    2    1    2    0    0  0.36620798353E+01  0.18364042771E+02 -0.16995102991E+00  0.72461607422E+02  0.70000048366E+02 0.  0.
         12    1    1    2    0    0 -0.36620798353E+01 -0.18364042771E+02  0.16995102991E+00  0.18726392578E+02  0.00000000000E+00 0. -1.
         11    1    3    3    0    0  0.51589189710E+01  0.23852935656E+02  0.18173407372E+02  0.30427778758E+02  0.51100000000E-03 0. -1.
        -11    1    3    3    0    0  0.22867032507E+01  0.15692583036E+02 -0.46368982894E+01  0.16522318243E+02  0.51100000000E-03 0.  1.
        -12    1    3    3    0    0 -0.37835423864E+01 -0.21181475921E+02 -0.13706460113E+02  0.25511510422E+02  0.00000000000E+00 0.  1.
</event>
<event>
 7    1  0.2873608E-013  0.7246158E+02  0.7816164E-02  0.1226708E+00
        -11   -1    0    0    0    0  0.00000000000E+00  0.00000000000E+00  0.45593999997E+02  0.45594000000E+02  0.51100000000E-03 0.  1.
         11   -1    0    0    0    0 -0.00000000000E+00 -0.00000000000E+00 -0.45593999997E+02  0.45594000000E+02  0.51100000000E-03 0. -1.
    9900012    2    1    2    0    0 -0.96990393099E+01 -0.82971720127E+01  0.13702711846E+02  0.72461581792E+02  0.70000014978E+02 0.  0.
         12    1    1    2    0    0  0.96990393099E+01  0.82971720127E+01 -0.13702711846E+02  0.18726418208E+02  0.00000000000E+00 0. -1.
         11    1    3    3    0    0  0.19188835647E+02 -0.14217593084E+02  0.63292588653E+01  0.24706494787E+02  0.51100000000E-03 0. -1.
        -11    1    3    3    0    0 -0.16648029400E+02 -0.44897535509E+01 -0.13153496749E+02  0.21687075571E+02  0.51100000000E-03 0.  1.
        -12    1    3    3    0    0 -0.12239845557E+02  0.10410174622E+02  0.20526949730E+02  0.26068011435E+02  0.00000000000E+00 0.  1.
</event>
<event>
 7    1  0.2873608E-013  0.7246158E+02  0.7816164E-02  0.1226708E+00
        -11   -1    0    0    0    0  0.00000000000E+00  0.00000000000E+00  0.45593999997E+02  0.45594000000E+02  0.51100000000E-03 0.  1.
         11   -1    0    0    0    0 -0.00000000000E+00 -0.00000000000E+00 -0.45593999997E+02  0.45594000000E+02  0.51100000000E-03 0. -1.
    9900012    2    1    2    0    0 -0.50236428265E+01 -0.17030882769E+02  0.59490129011E+01  0.72461582573E+02  0.70000015996E+02 0.  0.
         12    1    1    2    0    0  0.50236428265E+01  0.17030882769E+02 -0.59490129011E+01  0.18726417427E+02  0.00000000000E+00 0. -1.
         11    1    3    3    0    0  0.17056856232E+02  0.15285612560E+02  0.16285902647E+01  0.22961676819E+02  0.51100000000E-03 0. -1.
        -11    1    3    3    0    0 -0.13666376484E+02  0.14481494329E+01 -0.26895388903E+01  0.14003592492E+02  0.51100000000E-03 0.  1.
        -12    1    3    3    0    0 -0.84141225746E+01 -0.33764644762E+02  0.70099615267E+01  0.35496313262E+02  0.00000000000E+00 0.  1.
</event>
<event>
 7    1  0.2873608E-013  0.7246161E+02  0.7816164E-02  0.1226708E+00
        -11   -1    0    0    0    0  0.00000000000E+00  0.00000000000E+00  0.45593999997E+02  0.45594000000E+02  0.51100000000E-03 0.  1.
         11   -1    0    0    0    0 -0.00000000000E+00 -0.00000000000E+00 -0.45593999997E+02  0.45594000000E+02  0.51100000000E-03 0. -1.
    9900012    2    1    2    0    0  0.10952163112E+02  0.15152850279E+02 -0.10577710411E+01  0.72461611454E+02  0.70000053618E+02 0.  0.
         12    1    1    2    0    0 -0.10952163112E+02 -0.15152850279E+02  0.10577710411E+01  0.18726388546E+02  0.00000000000E+00 0. -1.
         11    1    3    3    0    0  0.11774626733E+02  0.27563653551E+01  0.13136250420E+02  0.17854984178E+02  0.51100000000E-03 0. -1.
        -11    1    3    3    0    0  0.23087820775E+02  0.16452260013E+02 -0.95410755707E+01  0.29912479853E+02  0.51100000000E-03 0.  1.
         12    1    3    3    0    0 -0.23910284396E+02 -0.40557750890E+01 -0.46529458900E+01  0.24694147422E+02  0.00000000000E+00 0. -1.
</event>
<event>
 7    1  0.2873608E-013  0.7246153E+02  0.7816164E-02  0.1226708E+00
        -11   -1    0    0    0    0  0.00000000000E+00  0.00000000000E+00  0.45593999997E+02  0.45594000000E+02  0.51100000000E-03 0.  1.
         11   -1    0    0    0    0 -0.00000000000E+00 -0.00000000000E+00 -0.45593999997E+02  0.45594000000E+02  0.51100000000E-03 0. -1.
    9900012    2    1    2    0    0  0.13261179130E+02  0.13175763833E+02 -0.11050784911E+01  0.72461526147E+02  0.69999942491E+02 0.  0.
         12    1    1    2    0    0 -0.13261179130E+02 -0.13175763833E+02  0.11050784911E+01  0.18726473853E+02  0.00000000000E+00 0. -1.
         11    1    3    3    0    0  0.91024673133E+01  0.18523202243E+00 -0.11650350335E+02  0.14785800123E+02  0.51100000000E-03 0. -1.
        -11    1    3    3    0    0  0.26045919084E+02 -0.49737747456E+01  0.12454852675E+02  0.29295933021E+02  0.51100000000E-03 0.  1.
         12    1    3    3    0    0 -0.21887207267E+02  0.17964306556E+02 -0.19095808317E+01  0.28379793004E+02  0.00000000000E+00 0. -1.
</event>
<event>
 7    1  0.2873608E-013  0.7246160E+02  0.7816164E-02  0.1226708E+00
        -11   -1    0    0    0    0  0.00000000000E+00  0.00000000000E+00  0.45593999997E+02  0.45594000000E+02  0.51100000000E-03 0. -1.
         11   -1    0    0    0    0 -0.00000000000E+00 -0.00000000000E+00 -0.45593999997E+02  0.45594000000E+02  0.51100000000E-03 0.  1.
    9900012    2    1    2    0    0  0.13519109412E+02  0.63231071387E+01  0.11310609381E+02  0.72461604518E+02  0.70000044582E+02 0.  0.
         12    1    1    2    0    0 -0.13519109412E+02 -0.63231071387E+01 -0.11310609381E+02  0.18726395482E+02  0.00000000000E+00 0. -1.
         11    1    3    3    0    0  0.11683173994E+02  0.12427780752E+02  0.16876398912E+01  0.17140432248E+02  0.51100000000E-03 0. -1.
        -11    1    3    3    0    0  0.21451298862E+02  0.73535269639E+01 -0.97093564964E+01  0.24667877604E+02  0.51100000000E-03 0.  1.
         12    1    3    3    0    0 -0.19615363444E+02 -0.13458200577E+02  0.19332325986E+02  0.30653294665E+02  0.00000000000E+00 0. -1.
</event>
<event>
 7    1  0.2873608E-013  0.7246160E+02  0.7816164E-02  0.1226708E+00
        -11   -1    0    0    0    0  0.00000000000E+00  0.00000000000E+00  0.45593999997E+02  0.45594000000E+02  0.51100000000E-03 0.  1.
         11   -1    0    0    0    0 -0.00000000000E+00 -0.00000000000E+00 -0.45593999997E+02  0.45594000000E+02  0.51100000000E-03 0. -1.
    9900012    2    1    2    0    0 -0.73643268788E+01  0.64191841069E+01  0.15976198151E+02  0.72461597720E+02  0.70000035727E+02 0.  0.
         12    1    1    2    0    0  0.73643268788E+01 -0.64191841069E+01 -0.15976198151E+02  0.18726402280E+02  0.00000000000E+00 0. -1.
         11    1    3    3    0    0  0.41122565206E+01 -0.10058358315E+02 -0.11982175582E+02  0.16175715058E+02  0.51100000000E-03 0. -1.
        -11    1    3    3    0    0 -0.24580625600E+02  0.39595015290E+01  0.24811813956E+01  0.25020812709E+02  0.51100000000E-03 0.  1.
        -12    1    3    3    0    0  0.13104042200E+02  0.12518040893E+02  0.25477192338E+02  0.31265069954E+02  0.00000000000E+00 0.  1.
</event>
<event>
 7    1  0.2873608E-013  0.7246160E+02  0.7816164E-02  0.1226708E+00
        -11   -1    0    0    0    0  0.00000000000E+00  0.00000000000E+00  0.45593999997E+02  0.45594000000E+02  0.51100000000E-03 0.  1.
         11   -1    0    0    0    0 -0.00000000000E+00 -0.00000000000E+00 -0.45593999997E+02  0.45594000000E+02  0.51100000000E-03 0. -1.
    9900012    2    1    2    0    0  0.42349066425E+01 -0.95989947079E+01  0.15511377843E+02  0.72461602154E+02  0.70000041504E+02 0.  0.
         12    1    1    2    0    0 -0.42349066425E+01  0.95989947079E+01 -0.15511377843E+02  0.18726397846E+02  0.00000000000E+00 0. -1.
         11    1    3    3    0    0  0.13434217397E+00 -0.63129934740E+01 -0.29898353025E+01  0.69864905224E+01  0.51100000000E-03 0. -1.
        -11    1    3    3    0    0 -0.23433653858E+02 -0.16914173206E+02  0.19283165450E+02  0.34742853343E+02  0.51100000000E-03 0.  1.
         12    1    3    3    0    0  0.27534218326E+02  0.13628171972E+02 -0.78195230448E+00  0.30732258289E+02  0.00000000000E+00 0. -1.
</event>
<event>
 7    1  0.2873608E-013  0.7246161E+02  0.7816164E-02  0.1226708E+00
        -11   -1    0    0    0    0  0.00000000000E+00  0.00000000000E+00  0.45593999997E+02  0.45594000000E+02  0.51100000000E-03 0.  1.
         11   -1    0    0    0    0 -0.00000000000E+00 -0.00000000000E+00 -0.45593999997E+02  0.45594000000E+02  0.51100000000E-03 0. -1.
    9900012    2    1    2    0    0 -0.10586421242E+02 -0.13913747741E+02  0.67091671610E+01  0.72461611803E+02  0.70000054073E+02 0.  0.
         12    1    1    2    0    0  0.10586421242E+02  0.13913747741E+02 -0.67091671610E+01  0.18726388197E+02  0.00000000000E+00 0. -1.
         11    1    3    3    0    0 -0.22890002563E+02  0.17335490125E+02 -0.14608783617E+02  0.32216269093E+02  0.51100000000E-03 0. -1.
        -11    1    3    3    0    0  0.16992271303E+01 -0.80910228975E+01  0.27057139344E+01  0.86990179057E+01  0.51100000000E-03 0.  1.
        -12    1    3    3    0    0  0.10604354190E+02 -0.23158214969E+02  0.18612236844E+02  0.31546324804E+02  0.00000000000E+00 0.  1.
</event>
<event>
 7    1  0.2873608E-013  0.7246122E+02  0.7816164E-02  0.1226709E+00
        -11   -1    0    0    0    0  0.00000000000E+00  0.00000000000E+00  0.45593999997E+02  0.45594000000E+02  0.51100000000E-03 0.  1.
         11   -1    0    0    0    0 -0.00000000000E+00 -0.00000000000E+00 -0.45593999997E+02  0.45594000000E+02  0.51100000000E-03 0. -1.
    9900012    2    1    2    0    0 -0.12062997829E+02  0.13765738935E+02 -0.39599158646E+01  0.72461216542E+02  0.69999539170E+02 0.  0.
         12    1    1    2    0    0  0.12062997829E+02 -0.13765738935E+02  0.39599158646E+01  0.18726783458E+02  0.00000000000E+00 0. -1.
         11    1    3    3    0    0  0.10280892872E+02 -0.14191673937E+02 -0.29678698578E+00  0.17526792352E+02  0.51100000000E-03 0. -1.
        -11    1    3    3    0    0  0.43488733931E+00  0.13775842464E+02 -0.19422693453E+02  0.23816044672E+02  0.51100000000E-03 0.  1.
        -12    1    3    3    0    0 -0.22778778040E+02  0.14181570408E+02  0.15759564574E+02  0.31118379517E+02  0.00000000000E+00 0.  1.
</event>
<event>
 7    1  0.2873608E-013  0.7246157E+02  0.7816164E-02  0.1226708E+00
        -11   -1    0    0    0    0  0.00000000000E+00  0.00000000000E+00  0.45593999997E+02  0.45594000000E+02  0.51100000000E-03 0. -1.
         11   -1    0    0    0    0 -0.00000000000E+00 -0.00000000000E+00 -0.45593999997E+02  0.45594000000E+02  0.51100000000E-03 0.  1.
    9900012    2    1    2    0    0  0.72440704174E+01  0.46422213509E+01 -0.16632872546E+02  0.72461568829E+02  0.69999998091E+02 0.  0.
         12    1    1    2    0    0 -0.72440704174E+01 -0.46422213509E+01  0.16632872546E+02  0.18726431171E+02  0.00000000000E+00 0. -1.
         11    1    3    3    0    0  0.14875943615E+02  0.14521596842E+02  0.48134205252E+01  0.21338685308E+02  0.51100000000E-03 0. -1.
        -11    1    3    3    0    0  0.90397242600E+01  0.13069468724E+01 -0.28433897309E+02  0.29864883078E+02  0.51100000000E-03 0.  1.
         12    1    3    3    0    0 -0.16671597457E+02 -0.11186322364E+02  0.69876042380E+01  0.21258000442E+02  0.00000000000E+00 0. -1.
</event>
<event>
 7    1  0.2873608E-013  0.7246211E+02  0.7816164E-02  0.1226707E+00
        -11   -1    0    0    0    0  0.00000000000E+00  0.00000000000E+00  0.45593999997E+02  0.45594000000E+02  0.51100000000E-03 0. -1.
         11   -1    0    0    0    0 -0.00000000000E+00 -0.00000000000E+00 -0.45593999997E+02  0.45594000000E+02  0.51100000000E-03 0.  1.
    9900012    2    1    2    0    0 -0.12658636202E+02 -0.13764570198E+02 -0.97705632894E+00  0.72462106101E+02  0.70000697984E+02 0.  0.
         12    1    1    2    0    0  0.12658636202E+02  0.13764570198E+02  0.97705632894E+00  0.18725893899E+02  0.00000000000E+00 0. -1.
         11    1    3    3    0    0 -0.85185356708E+01  0.14879616861E+01  0.49468752555E+00  0.86616508798E+01  0.51100000000E-03 0. -1.
        -11    1    3    3    0    0 -0.26755390375E+02 -0.72803663754E+01 -0.19416213505E+02  0.33850317514E+02  0.51100000000E-03 0.  1.
         12    1    3    3    0    0  0.22615289843E+02 -0.79721655089E+01  0.17944469651E+02  0.29950137707E+02  0.00000000000E+00 0. -1.
</event>
<event>
 7    1  0.2873608E-013  0.7246151E+02  0.7816164E-02  0.1226708E+00
        -11   -1    0    0    0    0  0.00000000000E+00  0.00000000000E+00  0.45593999997E+02  0.45594000000E+02  0.51100000000E-03 0.  1.
         11   -1    0    0    0    0 -0.00000000000E+00 -0.00000000000E+00 -0.45593999997E+02  0.45594000000E+02  0.51100000000E-03 0. -1.
    9900012    2    1    2    0    0  0.34707470519E+01  0.16109713581E+02  0.88945254122E+01  0.72461507027E+02  0.69999917582E+02 0.  0.
         12    1    1    2    0    0 -0.34707470519E+01 -0.16109713581E+02 -0.88945254122E+01  0.18726492973E+02  0.00000000000E+00 0. -1.
         11    1    3    3    0    0  0.66421952915E+00  0.26680496065E+02  0.12292585282E+02  0.29383629984E+02  0.51100000000E-03 0. -1.
        -11    1    3    3    0    0 -0.10171668755E+02  0.12174331064E+02 -0.55383219630E+01  0.16803279220E+02  0.51100000000E-03 0.  1.
         12    1    3    3    0    0  0.12978196278E+02 -0.22745113548E+02  0.21402620930E+01  0.26274597823E+02  0.00000000000E+00 0. -1.
</event>
<event>
 7    1  0.2873608E-013  0.7246157E+02  0.7816164E-02  0.1226708E+00
        -11   -1    0    0    0    0  0.00000000000E+00  0.00000000000E+00  0.45593999997E+02  0.45594000000E+02  0.51100000000E-03 0. -1.
         11   -1    0    0    0    0 -0.00000000000E+00 -0.00000000000E+00 -0.45593999997E+02  0.45594000000E+02  0.51100000000E-03 0.  1.
    9900012    2    1    2    0    0  0.57487213451E+01  0.16301353408E+02  0.72039689712E+01  0.72461572445E+02  0.70000002801E+02 0.  0.
         12    1    1    2    0    0 -0.57487213451E+01 -0.16301353408E+02 -0.72039689712E+01  0.18726427555E+02  0.00000000000E+00 0. -1.
         11    1    3    3    0    0  0.20003181372E+02 -0.53693099228E+01  0.12697381652E+02  0.24293625813E+02  0.51100000000E-03 0. -1.
        -11    1    3    3    0    0  0.13069437795E+02  0.88131463852E+01  0.44427317750E+01  0.16377411864E+02  0.51100000000E-03 0.  1.
        -12    1    3    3    0    0 -0.27323897822E+02  0.12857516946E+02 -0.99361444559E+01  0.31790534768E+02  0.00000000000E+00 0.  1.
</event>
<event>
 7    1  0.2873608E-013  0.7246159E+02  0.7816164E-02  0.1226708E+00
        -11   -1    0    0    0    0  0.00000000000E+00  0.00000000000E+00  0.45593999997E+02  0.45594000000E+02  0.51100000000E-03 0.  1.
         11   -1    0    0    0    0 -0.00000000000E+00 -0.00000000000E+00 -0.45593999997E+02  0.45594000000E+02  0.51100000000E-03 0. -1.
    9900012    2    1    2    0    0  0.13140235177E+02  0.23637734656E+01  0.13131083921E+02  0.72461586289E+02  0.70000020837E+02 0.  0.
         12    1    1    2    0    0 -0.13140235177E+02 -0.23637734656E+01 -0.13131083921E+02  0.18726413711E+02  0.00000000000E+00 0. -1.
         11    1    3    3    0    0  0.12289349421E+02 -0.14894277148E+02 -0.80889124326E+00  0.19326714834E+02  0.51100000000E-03 0. -1.
        -11    1    3    3    0    0  0.20483031263E+02 -0.42137799118E+01  0.89255843334E-01  0.20912161001E+02  0.51100000000E-03 0.  1.
        -12    1    3    3    0    0 -0.19632145507E+02  0.21471830526E+02  0.13850719321E+02  0.32222710455E+02  0.00000000000E+00 0.  1.
</event>
<event>
 7    1  0.2873608E-013  0.7246154E+02  0.7816164E-02  0.1226708E+00
        -11   -1    0    0    0    0  0.00000000000E+00  0.00000000000E+00  0.45593999997E+02  0.45594000000E+02  0.51100000000E-03 0. -1.
         11   -1    0    0    0    0 -0.00000000000E+00 -0.00000000000E+00 -0.45593999997E+02  0.45594000000E+02  0.51100000000E-03 0.  1.
    9900012    2    1    2    0    0  0.72634614564E+01 -0.35817121559E+01 -0.16884725423E+02  0.72461535120E+02  0.69999954179E+02 0.  0.
         12    1    1    2    0    0 -0.72634614564E+01  0.35817121559E+01  0.16884725423E+02  0.18726464880E+02  0.00000000000E+00 0. -1.
         11    1    3    3    0    0  0.16993079148E+02 -0.19223651625E+02 -0.24004848250E+02  0.35136110492E+02  0.51100000000E-03 0. -1.
        -11    1    3    3    0    0 -0.10070514369E+02 -0.39450608071E+01 -0.72580165480E+01  0.13025266557E+02  0.51100000000E-03 0.  1.
         12    1    3    3    0    0  0.34089667688E+00  0.19587000276E+02  0.14378139376E+02  0.24300158071E+02  0.00000000000E+00 0. -1.
</event>
<event>
 7    1  0.2873608E-013  0.7246157E+02  0.7816164E-02  0.1226708E+00
        -11   -1    0    0    0    0  0.00000000000E+00  0.00000000000E+00  0.45593999997E+02  0.45594000000E+02  0.51100000000E-03 0.  1.
         11   -1    0    0    0    0 -0.00000000000E+00 -0.00000000000E+00 -0.45593999997E+02  0.45594000000E+02  0.51100000000E-03 0. -1.
    9900012    2    1    2    0    0  0.56907202184E+01 -0.18170726515E+01  0.17748048956E+02  0.72461567041E+02  0.69999995762E+02 0.  0.
         12    1    1    2    0    0 -0.56907202184E+01  0.18170726515E+01 -0.17748048956E+02  0.18726432959E+02  0.00000000000E+00 0. -1.
         11    1    3    3    0    0  0.25483519614E+02 -0.85121409521E+01  0.36650620622E+01  0.27116397174E+02  0.51100000000E-03 0. -1.
        -11    1    3    3    0    0 -0.26131311596E+01 -0.14479171814E+01  0.23805045108E+02  0.23991771328E+02  0.51100000000E-03 0.  1.
         12    1    3    3    0    0 -0.17179668236E+02  0.81429854819E+01 -0.97220582145E+01  0.21353398539E+02  0.00000000000E+00 0. -1.
</event>
<event>
 7    1  0.2873608E-013  0.7246159E+02  0.7816164E-02  0.1226708E+00
        -11   -1    0    0    0    0  0.00000000000E+00  0.00000000000E+00  0.45593999997E+02  0.45594000000E+02  0.51100000000E-03 0.  1.
         11   -1    0    0    0    0 -0.00000000000E+00 -0.00000000000E+00 -0.45593999997E+02  0.45594000000E+02  0.51100000000E-03 0. -1.
    9900012    2    1    2    0    0 -0.67689321475E+01 -0.57733313426E+01  0.16478131104E+02  0.72461585450E+02  0.70000019743E+02 0.  0.
         12    1    1    2    0    0  0.67689321475E+01  0.57733313426E+01 -0.16478131104E+02  0.18726414550E+02  0.00000000000E+00 0. -1.
         11    1    3    3    0    0 -0.21688222436E+02 -0.25695650921E+02  0.22558672758E+02  0.40491223562E+02  0.51100000000E-03 0. -1.
        -11    1    3    3    0    0 -0.16038213781E+01 -0.10074367947E-01 -0.58636484292E+01  0.60790392061E+01  0.51100000000E-03 0.  1.
        -12    1    3    3    0    0  0.16523111667E+02  0.19932393946E+02 -0.21689322457E+00  0.25891322682E+02  0.00000000000E+00 0.  1.
</event>
<event>
 7    1  0.2873608E-013  0.7246142E+02  0.7816164E-02  0.1226708E+00
        -11   -1    0    0    0    0  0.00000000000E+00  0.00000000000E+00  0.45593999997E+02  0.45594000000E+02  0.51100000000E-03 0. -1.
         11   -1    0    0    0    0 -0.00000000000E+00 -0.00000000000E+00 -0.45593999997E+02  0.45594000000E+02  0.51100000000E-03 0.  1.
    9900012    2    1    2    0    0 -0.11801216035E+02  0.93016707497E+01 -0.11175646160E+02  0.72461418739E+02  0.69999802571E+02 0.  0.
         12    1    1    2    0    0  0.11801216035E+02 -0.93016707497E+01  0.11175646160E+02  0.18726581261E+02  0.00000000000E+00 0. -1.
         11    1    3    3    0    0 -0.21094961877E+02  0.16882430587E+02  0.34142012342E+01  0.27233630853E+02  0.51100000000E-03 0. -1.
        -11    1    3    3    0    0 -0.10555395403E+02 -0.17596927962E+01 -0.21002448703E+02  0.23571502766E+02  0.51100000000E-03 0.  1.
        -12    1    3    3    0    0  0.19849141245E+02 -0.58210670410E+01  0.64126013090E+01  0.21656285120E+02  0.00000000000E+00 0.  1.
</event>
<event>
 7    1  0.2873608E-013  0.7246148E+02  0.7816164E-02  0.1226708E+00
        -11   -1    0    0    0    0  0.00000000000E+00  0.00000000000E+00  0.45593999997E+02  0.45594000000E+02  0.51100000000E-03 0. -1.
         11   -1    0    0    0    0 -0.00000000000E+00 -0.00000000000E+00 -0.45593999997E+02  0.45594000000E+02  0.51100000000E-03 0.  1.
    9900012    2    1    2    0    0 -0.14773560116E+01 -0.18143871179E+02  0.43931821977E+01  0.72461476244E+02  0.69999877482E+02 0.  0.
         12    1    1    2    0    0  0.14773560116E+01  0.18143871179E+02 -0.43931821977E+01  0.18726523756E+02  0.00000000000E+00 0. -1.
         11    1    3    3    0    0 -0.62909712929E+01  0.20527910645E+02  0.14632025958E+02  0.25982063412E+02  0.51100000000E-03 0. -1.
        -11    1    3    3    0    0  0.16222306496E+01 -0.12657060709E+02  0.75277376775E+01  0.14815520675E+02  0.51100000000E-03 0.  1.
        -12    1    3    3    0    0  0.31913846316E+01 -0.26014721115E+02 -0.17766581438E+02  0.31663892157E+02  0.00000000000E+00 0.  1.
</event>
<event>
 7    1  0.2873608E-013  0.7246189E+02  0.7816164E-02  0.1226707E+00
        -11   -1    0    0    0    0  0.00000000000E+00  0.00000000000E+00  0.45593999997E+02  0.45594000000E+02  0.51100000000E-03 0.  1.
         11   -1    0    0    0    0 -0.00000000000E+00 -0.00000000000E+00 -0.45593999997E+02  0.45594000000E+02  0.51100000000E-03 0. -1.
    9900012    2    1    2    0    0 -0.16836005076E+02  0.35737066710E+01 -0.73786727682E+01  0.72461888334E+02  0.70000414305E+02 0.  0.
         12    1    1    2    0    0  0.16836005076E+02 -0.35737066710E+01  0.73786727682E+01  0.18726111666E+02  0.00000000000E+00 0. -1.
         11    1    3    3    0    0 -0.37665214758E+01 -0.46721753823E+01 -0.28732907023E+01  0.66536987121E+01  0.51100000000E-03 0. -1.
        -11    1    3    3    0    0 -0.82957052567E+01 -0.18946001382E+02  0.20089983125E+02  0.28833610878E+02  0.51100000000E-03 0.  1.
         12    1    3    3    0    0 -0.47737783439E+01  0.27191883435E+02 -0.24595365191E+02  0.36974578744E+02  0.00000000000E+00 0. -1.
</event>
<event>
 7    1  0.2873608E-013  0.7246157E+02  0.7816164E-02  0.1226708E+00
        -11   -1    0    0    0    0  0.00000000000E+00  0.00000000000E+00  0.45593999997E+02  0.45594000000E+02  0.51100000000E-03 0.  1.
         11   -1    0    0    0    0 -0.00000000000E+00 -0.00000000000E+00 -0.45593999997E+02  0.45594000000E+02  0.51100000000E-03 0. -1.
    9900012    2    1    2    0    0 -0.43964136246E+01 -0.99658424980E+00  0.18175736557E+02  0.72461573958E+02  0.70000004773E+02 0.  0.
         12    1    1    2    0    0  0.43964136246E+01  0.99658424980E+00 -0.18175736557E+02  0.18726426042E+02  0.00000000000E+00 0. -1.
         11    1    3    3    0    0 -0.55476871545E+01 -0.92958160290E+01 -0.67064001367E+01  0.12734395607E+02  0.51100000000E-03 0. -1.
        -11    1    3    3    0    0  0.18039935521E+02  0.24750298317E+02  0.12315476777E+02  0.33010415158E+02  0.51100000000E-03 0.  1.
         12    1    3    3    0    0 -0.16888661991E+02 -0.16451066538E+02  0.12566659916E+02  0.26716763193E+02  0.00000000000E+00 0. -1.
</event>
<event>
 7    1  0.2873608E-013  0.7246153E+02  0.7816164E-02  0.1226708E+00
        -11   -1    0    0    0    0  0.00000000000E+00  0.00000000000E+00  0.45593999997E+02  0.45594000000E+02  0.51100000000E-03 0. -1.
         11   -1    0    0    0    0 -0.00000000000E+00 -0.00000000000E+00 -0.45593999997E+02  0.45594000000E+02  0.51100000000E-03 0.  1.
    9900012    2    1    2    0    0  0.22283287610E+01 -0.11099053702E+01 -0.18560259481E+02  0.72461532874E+02  0.69999951254E+02 0.  0.
         12    1    1    2    0    0 -0.22283287610E+01  0.11099053702E+01  0.18560259481E+02  0.18726467126E+02  0.00000000000E+00 0. -1.
         11    1    3    3    0    0 -0.85129018433E+01 -0.59035805190E+01  0.23194437145E+01  0.10616100044E+02  0.51100000000E-03 0. -1.
        -11    1    3    3    0    0 -0.14346037265E+02  0.24736877527E+00 -0.31199162057E+02  0.34340321633E+02  0.51100000000E-03 0.  1.
        -12    1    3    3    0    0  0.25087267870E+02  0.45463063735E+01  0.10319458861E+02  0.27505111198E+02  0.00000000000E+00 0.  1.
</event>
<event>
 7    1  0.2873608E-013  0.7246157E+02  0.7816164E-02  0.1226708E+00
        -11   -1    0    0    0    0  0.00000000000E+00  0.00000000000E+00  0.45593999997E+02  0.45594000000E+02  0.51100000000E-03 0. -1.
         11   -1    0    0    0    0 -0.00000000000E+00 -0.00000000000E+00 -0.45593999997E+02  0.45594000000E+02  0.51100000000E-03 0.  1.
    9900012    2    1    2    0    0  0.13570141544E+02  0.76276734085E+01 -0.10409091589E+02  0.72461565987E+02  0.69999994388E+02 0.  0.
         12    1    1    2    0    0 -0.13570141544E+02 -0.76276734085E+01  0.10409091589E+02  0.18726434013E+02  0.00000000000E+00 0. -1.
         11    1    3    3    0    0 -0.14880265596E+02 -0.47361278181E+01  0.28345758938E+01  0.15870980804E+02  0.51100000000E-03 0. -1.
        -11    1    3    3    0    0 -0.77607613055E+01  0.67415887055E+01 -0.16881735540E+02  0.19765409923E+02  0.51100000000E-03 0.  1.
        -12    1    3    3    0    0  0.36211168445E+02  0.56222125211E+01  0.36380680567E+01  0.36825175260E+02  0.00000000000E+00 0.  1.
</event>
<event>
 7    1  0.2873608E-013  0.7246156E+02  0.7816164E-02  0.1226708E+00
        -11   -1    0    0    0    0  0.00000000000E+00  0.00000000000E+00  0.45593999997E+02  0.45594000000E+02  0.51100000000E-03 0.  1.
         11   -1    0    0    0    0 -0.00000000000E+00 -0.00000000000E+00 -0.45593999997E+02  0.45594000000E+02  0.51100000000E-03 0. -1.
    9900012    2    1    2    0    0 -0.58560421750E+01  0.70650301055E+01  0.16323959741E+02  0.72461560349E+02  0.69999987045E+02 0.  0.
         12    1    1    2    0    0  0.58560421750E+01 -0.70650301055E+01 -0.16323959741E+02  0.18726439651E+02  0.00000000000E+00 0. -1.
         11    1    3    3    0    0 -0.83398147659E+01 -0.15680226725E+02  0.12391822475E+02  0.21655929557E+02  0.51100000000E-03 0. -1.
        -11    1    3    3    0    0  0.19222574043E+02 -0.33262634366E+01  0.35027914723E+01  0.19820215176E+02  0.51100000000E-03 0.  1.
        -12    1    3    3    0    0 -0.16738801452E+02  0.26071520267E+02  0.42934579453E+00  0.30985415616E+02  0.00000000000E+00 0.  1.
</event>
<event>
 7    1  0.2873608E-013  0.7246155E+02  0.7816164E-02  0.1226708E+00
        -11   -1    0    0    0    0  0.00000000000E+00  0.00000000000E+00  0.45593999997E+02  0.45594000000E+02  0.51100000000E-03 0.  1.
         11   -1    0    0    0    0 -0.00000000000E+00 -0.00000000000E+00 -0.45593999997E+02  0.45594000000E+02  0.51100000000E-03 0. -1.
    9900012    2    1    2    0    0  0.35180514586E+01 -0.27682813685E+01  0.18183507982E+02  0.72461547310E+02  0.69999970059E+02 0.  0.
         12    1    1    2    0    0 -0.35180514586E+01  0.27682813685E+01 -0.18183507982E+02  0.18726452690E+02  0.00000000000E+00 0. -1.
         11    1    3    3    0    0 -0.69313572067E+01 -0.64156441840E+00  0.62332840062E+01  0.93439363970E+01  0.51100000000E-03 0. -1.
        -11    1    3    3    0    0 -0.77118626294E+01  0.18341713073E+02  0.25693014225E+02  0.32496495871E+02  0.51100000000E-03 0.  1.
         12    1    3    3    0    0  0.18161271295E+02 -0.20468430023E+02 -0.13742790248E+02  0.30621115043E+02  0.00000000000E+00 0. -1.
</event>
<event>
 7    1  0.2873608E-013  0.7246170E+02  0.7816164E-02  0.1226708E+00
        -11   -1    0    0    0    0  0.00000000000E+00  0.00000000000E+00  0.45593999997E+02  0.45594000000E+02  0.51100000000E-03 0.  1.
         11   -1    0    0    0    0 -0.00000000000E+00 -0.00000000000E+00 -0.45593999997E+02  0.45594000000E+02  0.51100000000E-03 0. -1.
    9900012    2    1    2    0    0 -0.18995136378E+00 -0.61819650876E+00  0.18715128027E+02  0.72461701233E+02  0.70000170572E+02 0.  0.
         12    1    1    2    0    0  0.18995136378E+00  0.61819650876E+00 -0.18715128027E+02  0.18726298767E+02  0.00000000000E+00 0. -1.
         11    1    3    3    0    0  0.57259680140E+01  0.26304193770E+02 -0.46436333749E+01  0.27317771703E+02  0.51100000000E-03 0. -1.
        -11    1    3    3    0    0  0.36448756368E+01 -0.11220786343E+00 -0.41741807686E+01  0.55426973905E+01  0.51100000000E-03 0.  1.
        -12    1    3    3    0    0 -0.95607950145E+01 -0.26810182416E+02  0.27532942170E+02  0.39601232140E+02  0.00000000000E+00 0.  1.
</event>
<event>
 7    1  0.2873608E-013  0.7246162E+02  0.7816164E-02  0.1226708E+00
        -11   -1    0    0    0    0  0.00000000000E+00  0.00000000000E+00  0.45593999997E+02  0.45594000000E+02  0.51100000000E-03 0. -1.
         11   -1    0    0    0    0 -0.00000000000E+00 -0.00000000000E+00 -0.45593999997E+02  0.45594000000E+02  0.51100000000E-03 0.  1.
    9900012    2    1    2    0    0  0.53935229437E+01 -0.13729628159E+02 -0.11536229795E+02  0.72461618154E+02  0.70000062346E+02 0.  0.
         12    1    1    2    0    0 -0.53935229437E+01  0.13729628159E+02  0.11536229795E+02  0.18726381846E+02  0.00000000000E+00 0. -1.
         11    1    3    3    0    0  0.15068345092E+02 -0.19577045454E+02  0.84685230175E+01  0.26115735005E+02  0.51100000000E-03 0. -1.
        -11    1    3    3    0    0  0.25702197187E+01 -0.66836402063E+01  0.95811270016E+01  0.11961399195E+02  0.51100000000E-03 0.  1.
        -12    1    3    3    0    0 -0.12245041867E+02  0.12531057501E+02 -0.29585879814E+02  0.34384483954E+02  0.00000000000E+00 0.  1.
</event>
<event>
 7    1  0.2873608E-013  0.7246144E+02  0.7816164E-02  0.1226708E+00
        -11   -1    0    0    0    0  0.00000000000E+00  0.00000000000E+00  0.45593999997E+02  0.45594000000E+02  0.51100000000E-03 0.  1.
         11   -1    0    0    0    0 -0.00000000000E+00 -0.00000000000E+00 -0.45593999997E+02  0.45594000000E+02  0.51100000000E-03 0. -1.
    9900012    2    1    2    0    0 -0.44652196188E+01 -0.79797389096E+01  0.16342259435E+02  0.72461444984E+02  0.69999836760E+02 0.  0.
         12    1    1    2    0    0  0.44652196188E+01  0.79797389096E+01 -0.16342259435E+02  0.18726555016E+02  0.00000000000E+00 0. -1.
         11    1    3    3    0    0  0.70317595291E+00 -0.19174396291E+01  0.15513802641E+01  0.25647245733E+01  0.51100000000E-03 0. -1.
        -11    1    3    3    0    0 -0.15985171162E+02  0.43871809577E+01  0.38444899627E+02  0.41866255642E+02  0.51100000000E-03 0.  1.
         12    1    3    3    0    0  0.10816775591E+02 -0.10449480238E+02 -0.23654020456E+02  0.28030464769E+02  0.00000000000E+00 0. -1.
</event>
<event>
 7    1  0.2873608E-013  0.7246154E+02  0.7816164E-02  0.1226708E+00
        -11   -1    0    0    0    0  0.00000000000E+00  0.00000000000E+00  0.45593999997E+02  0.45594000000E+02  0.51100000000E-03 0.  1.
         11   -1    0    0    0    0 -0.00000000000E+00 -0.00000000000E+00 -0.45593999997E+02  0.45594000000E+02  0.51100000000E-03 0. -1.
    9900012    2    1    2    0    0 -0.44292678102E+01 -0.15226747867E+02  0.99603141420E+01  0.72461544870E+02  0.69999966880E+02 0.  0.
         12    1    1    2    0    0  0.44292678102E+01  0.15226747867E+02 -0.99603141420E+01  0.18726455130E+02  0.00000000000E+00 0. -1.
         11    1    3    3    0    0  0.10198494837E+02 -0.14789495314E+02  0.21140394008E+02  0.27742651777E+02  0.51100000000E-03 0. -1.
        -11    1    3    3    0    0 -0.92291359063E+01  0.13930974791E+02  0.93008835386E+01  0.19124733804E+02  0.51100000000E-03 0.  1.
         12    1    3    3    0    0 -0.53986267409E+01 -0.14368227344E+02 -0.20480963404E+02  0.25594159288E+02  0.00000000000E+00 0. -1.
</event>
<event>
 7    1  0.2873608E-013  0.7246158E+02  0.7816164E-02  0.1226708E+00
        -11   -1    0    0    0    0  0.00000000000E+00  0.00000000000E+00  0.45593999997E+02  0.45594000000E+02  0.51100000000E-03 0. -1.
         11   -1    0    0    0    0 -0.00000000000E+00 -0.00000000000E+00 -0.45593999997E+02  0.45594000000E+02  0.51100000000E-03 0.  1.
    9900012    2    1    2    0    0  0.75502201710E+01 -0.10288918283E+02 -0.13704416427E+02  0.72461583000E+02  0.70000016551E+02 0.  0.
         12    1    1    2    0    0 -0.75502201710E+01  0.10288918283E+02  0.13704416427E+02  0.18726417000E+02  0.00000000000E+00 0. -1.
         11    1    3    3    0    0 -0.19194153101E+01 -0.13220465910E+02 -0.19783953378E+02  0.23871943481E+02  0.51100000000E-03 0. -1.
        -11    1    3    3    0    0  0.21860030959E+02  0.90437777993E+01 -0.11440024022E+02  0.26277842763E+02  0.51100000000E-03 0.  1.
         12    1    3    3    0    0 -0.12390395478E+02 -0.61122301721E+01  0.17519560973E+02  0.22311796756E+02  0.00000000000E+00 0. -1.
</event>
<event>
 7    1  0.2873608E-013  0.7246158E+02  0.7816164E-02  0.1226708E+00
        -11   -1    0    0    0    0  0.00000000000E+00  0.00000000000E+00  0.45593999997E+02  0.45594000000E+02  0.51100000000E-03 0. -1.
         11   -1    0    0    0    0 -0.00000000000E+00 -0.00000000000E+00 -0.45593999997E+02  0.45594000000E+02  0.51100000000E-03 0.  1.
    9900012    2    1    2    0    0  0.43358320990E+01 -0.15716097055E+02 -0.92132306429E+01  0.72461581082E+02  0.70000014053E+02 0.  0.
         12    1    1    2    0    0 -0.43358320990E+01  0.15716097055E+02  0.92132306429E+01  0.18726418918E+02  0.00000000000E+00 0. -1.
         11    1    3    3    0    0  0.75719215279E+01 -0.93682302723E+01 -0.46545413188E+00  0.12054641507E+02  0.51100000000E-03 0. -1.
        -11    1    3    3    0    0  0.55693217293E+01 -0.31375340385E+02 -0.11166395422E+02  0.33765629208E+02  0.51100000000E-03 0.  1.
         12    1    3    3    0    0 -0.88054111582E+01  0.25027473603E+02  0.24186189106E+01  0.26641310367E+02  0.00000000000E+00 0. -1.
</event>
<event>
 7    1  0.2873608E-013  0.7246153E+02  0.7816164E-02  0.1226708E+00
        -11   -1    0    0    0    0  0.00000000000E+00  0.00000000000E+00  0.45593999997E+02  0.45594000000E+02  0.51100000000E-03 0.  1.
         11   -1    0    0    0    0 -0.00000000000E+00 -0.00000000000E+00 -0.45593999997E+02  0.45594000000E+02  0.51100000000E-03 0. -1.
    9900012    2    1    2    0    0 -0.11694126482E+02  0.12888238337E+02  0.69153113892E+01  0.72461526407E+02  0.69999942829E+02 0.  0.
         12    1    1    2    0    0  0.11694126482E+02 -0.12888238337E+02 -0.69153113892E+01  0.18726473593E+02  0.00000000000E+00 0. -1.
         11    1    3    3    0    0  0.86640412106E+01  0.11667047280E+02 -0.26307351426E+02  0.30054323177E+02  0.51100000000E-03 0. -1.
        -11    1    3    3    0    0 -0.11363223376E+01  0.44123617597E+01  0.86790364691E+00  0.46382563270E+01  0.51100000000E-03 0.  1.
        -12    1    3    3    0    0 -0.19221845355E+02 -0.31911707027E+01  0.32354759168E+02  0.37768946903E+02  0.00000000000E+00 0.  1.
</event>
<event>
 7    1  0.2873608E-013  0.7246158E+02  0.7816164E-02  0.1226708E+00
        -11   -1    0    0    0    0  0.00000000000E+00  0.00000000000E+00  0.45593999997E+02  0.45594000000E+02  0.51100000000E-03 0. -1.
         11   -1    0    0    0    0 -0.00000000000E+00 -0.00000000000E+00 -0.45593999997E+02  0.45594000000E+02  0.51100000000E-03 0.  1.
    9900012    2    1    2    0    0 -0.63132045701E+01 -0.12750843713E+02 -0.12175309104E+02  0.72461582320E+02  0.70000015666E+02 0.  0.
         12    1    1    2    0    0  0.63132045701E+01  0.12750843713E+02  0.12175309104E+02  0.18726417680E+02  0.00000000000E+00 0. -1.
         11    1    3    3    0    0 -0.14950074019E+02 -0.67485785337E+01 -0.64922521061E+01  0.17640786918E+02  0.51100000000E-03 0. -1.
        -11    1    3    3    0    0  0.85616478099E+00  0.14837287548E+02 -0.22478678181E+02  0.26947524802E+02  0.51100000000E-03 0.  1.
         12    1    3    3    0    0  0.77807046681E+01 -0.20839552728E+02  0.16795621184E+02  0.27873270600E+02  0.00000000000E+00 0. -1.
</event>
<event>
 7    1  0.2873608E-013  0.7246156E+02  0.7816164E-02  0.1226708E+00
        -11   -1    0    0    0    0  0.00000000000E+00  0.00000000000E+00  0.45593999997E+02  0.45594000000E+02  0.51100000000E-03 0.  1.
         11   -1    0    0    0    0 -0.00000000000E+00 -0.00000000000E+00 -0.45593999997E+02  0.45594000000E+02  0.51100000000E-03 0. -1.
    9900012    2    1    2    0    0  0.42835414594E+01  0.31437898324E+01  0.17956817609E+02  0.72461563057E+02  0.69999990572E+02 0.  0.
         12    1    1    2    0    0 -0.42835414594E+01 -0.31437898324E+01 -0.17956817609E+02  0.18726436943E+02  0.00000000000E+00 0. -1.
         11    1    3    3    0    0  0.19477605987E+01 -0.92553392912E+01  0.66802596726E+01  0.11579332723E+02  0.51100000000E-03 0. -1.
        -11    1    3    3    0    0  0.17702589835E+02  0.24208138364E+02  0.23385435117E+02  0.38030175200E+02  0.51100000000E-03 0.  1.
         12    1    3    3    0    0 -0.15366808975E+02 -0.11809009240E+02 -0.12108877180E+02  0.22852055134E+02  0.00000000000E+00 0. -1.
</event>
<event>
 7    1  0.2873608E-013  0.7246155E+02  0.7816164E-02  0.1226708E+00
        -11   -1    0    0    0    0  0.00000000000E+00  0.00000000000E+00  0.45593999997E+02  0.45594000000E+02  0.51100000000E-03 0.  1.
         11   -1    0    0    0    0 -0.00000000000E+00 -0.00000000000E+00 -0.45593999997E+02  0.45594000000E+02  0.51100000000E-03 0. -1.
    9900012    2    1    2    0    0 -0.25052767802E+01  0.13115982644E+02  0.13129143187E+02  0.72461553106E+02  0.69999977608E+02 0.  0.
         12    1    1    2    0    0  0.25052767802E+01 -0.13115982644E+02 -0.13129143187E+02  0.18726446894E+02  0.00000000000E+00 0. -1.
         11    1    3    3    0    0  0.27589659818E+01  0.89251549781E+01 -0.26638297329E+02  0.28228871205E+02  0.51100000000E-03 0. -1.
        -11    1    3    3    0    0 -0.66404647781E+01  0.38760988551E+01  0.44435661352E+01  0.88806078093E+01  0.51100000000E-03 0.  1.
        -12    1    3    3    0    0  0.13762220161E+01  0.31472881090E+00  0.35323874381E+02  0.35352074091E+02  0.00000000000E+00 0.  1.
</event>
<event>
 7    1  0.2873608E-013  0.7246159E+02  0.7816164E-02  0.1226708E+00
        -11   -1    0    0    0    0  0.00000000000E+00  0.00000000000E+00  0.45593999997E+02  0.45594000000E+02  0.51100000000E-03 0. -1.
         11   -1    0    0    0    0 -0.00000000000E+00 -0.00000000000E+00 -0.45593999997E+02  0.45594000000E+02  0.51100000000E-03 0.  1.
    9900012    2    1    2    0    0 -0.21571351472E+01  0.55616953139E+01 -0.17750849482E+02  0.72461592332E+02  0.70000028708E+02 0.  0.
         12    1    1    2    0    0  0.21571351472E+01 -0.55616953139E+01  0.17750849482E+02  0.18726407668E+02  0.00000000000E+00 0. -1.
         11    1    3    3    0    0  0.92414409936E+01 -0.12071415548E+02  0.99350354513E+01  0.18161173824E+02  0.51100000000E-03 0. -1.
        -11    1    3    3    0    0  0.15266447984E+02  0.10401621631E+02 -0.68740558785E+01  0.19710677591E+02  0.51100000000E-03 0.  1.
        -12    1    3    3    0    0 -0.26665024125E+02  0.72314892310E+01 -0.20811829055E+02  0.34589740917E+02  0.00000000000E+00 0.  1.
</event>
<event>
 7    1  0.2873608E-013  0.7246161E+02  0.7816164E-02  0.1226708E+00
        -11   -1    0    0    0    0  0.00000000000E+00  0.00000000000E+00  0.45593999997E+02  0.45594000000E+02  0.51100000000E-03 0. -1.
         11   -1    0    0    0    0 -0.00000000000E+00 -0.00000000000E+00 -0.45593999997E+02  0.45594000000E+02  0.51100000000E-03 0.  1.
    9900012    2    1    2    0    0 -0.18049558707E+02  0.35750793895E+01 -0.34799067402E+01  0.72461614522E+02  0.70000057615E+02 0.  0.
         12    1    1    2    0    0  0.18049558707E+02 -0.35750793895E+01  0.34799067402E+01  0.18726385478E+02  0.00000000000E+00 0. -1.
         11    1    3    3    0    0 -0.69015665121E+01  0.31577721029E+01  0.64387470444E+01  0.99529196087E+01  0.51100000000E-03 0. -1.
        -11    1    3    3    0    0  0.98569920941E+01 -0.22681500604E+02  0.86298830759E+01  0.26193236626E+02  0.51100000000E-03 0.  1.
        -12    1    3    3    0    0 -0.21004984289E+02  0.23098807891E+02 -0.18548536861E+02  0.36315458287E+02  0.00000000000E+00 0.  1.
</event>
<event>
 7    1  0.2873608E-013  0.7246156E+02  0.7816164E-02  0.1226708E+00
        -11   -1    0    0    0    0  0.00000000000E+00  0.00000000000E+00  0.45593999997E+02  0.45594000000E+02  0.51100000000E-03 0.  1.
         11   -1    0    0    0    0 -0.00000000000E+00 -0.00000000000E+00 -0.45593999997E+02  0.45594000000E+02  0.51100000000E-03 0. -1.
    9900012    2    1    2    0    0 -0.42521509868E+01 -0.11373203681E+02  0.14256544578E+02  0.72461558445E+02  0.69999984565E+02 0.  0.
         12    1    1    2    0    0  0.42521509868E+01  0.11373203681E+02 -0.14256544578E+02  0.18726441555E+02  0.00000000000E+00 0. -1.
         11    1    3    3    0    0  0.45730847146E+01 -0.82359424903E+01 -0.22248519306E+02  0.24160721514E+02  0.51100000000E-03 0. -1.
        -11    1    3    3    0    0  0.15739549241E+01  0.99470496483E+01  0.24485431618E+01  0.10364192910E+02  0.51100000000E-03 0.  1.
        -12    1    3    3    0    0 -0.10399190625E+02 -0.13084310839E+02  0.34056520723E+02  0.37936644020E+02  0.00000000000E+00 0.  1.
</event>
<event>
 7    1  0.2873608E-013  0.7246157E+02  0.7816164E-02  0.1226708E+00
        -11   -1    0    0    0    0  0.00000000000E+00  0.00000000000E+00  0.45593999997E+02  0.45594000000E+02  0.51100000000E-03 0. -1.
         11   -1    0    0    0    0 -0.00000000000E+00 -0.00000000000E+00 -0.45593999997E+02  0.45594000000E+02  0.51100000000E-03 0.  1.
    9900012    2    1    2    0    0  0.17123137662E+02  0.71335531975E+01  0.25670773222E+01  0.72461566528E+02  0.69999995093E+02 0.  0.
         12    1    1    2    0    0 -0.17123137662E+02 -0.71335531975E+01 -0.25670773222E+01  0.18726433472E+02  0.00000000000E+00 0. -1.
         11    1    3    3    0    0  0.28898474425E+02 -0.47761101123E+01  0.12721358601E+02  0.31933775486E+02  0.51100000000E-03 0. -1.
        -11    1    3    3    0    0 -0.40619087865E+01 -0.93766005423E+01  0.67724807166E+01  0.12259128682E+02  0.51100000000E-03 0.  1.
        -12    1    3    3    0    0 -0.77134279764E+01  0.21286263852E+02 -0.16926761996E+02  0.28268662359E+02  0.00000000000E+00 0.  1.
</event>
<event>
 7    1  0.2873608E-013  0.7246156E+02  0.7816164E-02  0.1226708E+00
        -11   -1    0    0    0    0  0.00000000000E+00  0.00000000000E+00  0.45593999997E+02  0.45594000000E+02  0.51100000000E-03 0.  1.
         11   -1    0    0    0    0 -0.00000000000E+00 -0.00000000000E+00 -0.45593999997E+02  0.45594000000E+02  0.51100000000E-03 0. -1.
    9900012    2    1    2    0    0  0.15041595504E+02 -0.80524980804E+01  0.77192646991E+01  0.72461564991E+02  0.69999993092E+02 0.  0.
         12    1    1    2    0    0 -0.15041595504E+02  0.80524980804E+01 -0.77192646991E+01  0.18726435009E+02  0.00000000000E+00 0. -1.
         11    1    3    3    0    0  0.11075146916E+02  0.11154833113E+02  0.66476478223E+01  0.17066938883E+02  0.51100000000E-03 0. -1.
        -11    1    3    3    0    0 -0.28466582856E+01 -0.33171083041E+02  0.13067228057E+02  0.35765579303E+02  0.51100000000E-03 0.  1.
         12    1    3    3    0    0  0.68131068735E+01  0.13963751848E+02 -0.11995611180E+02  0.19629046806E+02  0.00000000000E+00 0. -1.
</event>
<event>
 7    1  0.2873608E-013  0.7246082E+02  0.7816164E-02  0.1226710E+00
        -11   -1    0    0    0    0  0.00000000000E+00  0.00000000000E+00  0.45593999997E+02  0.45594000000E+02  0.51100000000E-03 0. -1.
         11   -1    0    0    0    0 -0.00000000000E+00 -0.00000000000E+00 -0.45593999997E+02  0.45594000000E+02  0.51100000000E-03 0.  1.
    9900012    2    1    2    0    0 -0.16636182524E+02 -0.26193002696E+01 -0.81904772697E+01  0.72460821334E+02  0.69999024333E+02 0.  0.
         12    1    1    2    0    0  0.16636182524E+02  0.26193002696E+01  0.81904772697E+01  0.18727178666E+02  0.00000000000E+00 0. -1.
         11    1    3    3    0    0  0.19302646409E+02  0.10707270320E+02  0.42461048704E+01  0.22478149455E+02  0.51100000000E-03 0. -1.
        -11    1    3    3    0    0  0.45182810840E+01 -0.31646758065E+01 -0.53246481523E+01  0.76669364887E+01  0.51100000000E-03 0.  1.
         12    1    3    3    0    0 -0.40457110017E+02 -0.10161894783E+02 -0.71119339878E+01  0.42315735390E+02  0.00000000000E+00 0. -1.
</event>
<event>
 7    1  0.2873608E-013  0.7246169E+02  0.7816164E-02  0.1226708E+00
        -11   -1    0    0    0    0  0.00000000000E+00  0.00000000000E+00  0.45593999997E+02  0.45594000000E+02  0.51100000000E-03 0.  1.
         11   -1    0    0    0    0 -0.00000000000E+00 -0.00000000000E+00 -0.45593999997E+02  0.45594000000E+02  0.51100000000E-03 0. -1.
    9900012    2    1    2    0    0 -0.28018069578E+01  0.37341548847E+01  0.18135070203E+02  0.72461686797E+02  0.70000151766E+02 0.  0.
         12    1    1    2    0    0  0.28018069578E+01 -0.37341548847E+01 -0.18135070203E+02  0.18726313203E+02  0.00000000000E+00 0. -1.
         11    1    3    3    0    0 -0.14451510964E+02 -0.99405500986E+01  0.14979621624E+01  0.17604107370E+02  0.51100000000E-03 0. -1.
        -11    1    3    3    0    0  0.84663952327E+00 -0.13802983389E+02 -0.83706376198E+01  0.16164984483E+02  0.51100000000E-03 0.  1.
        -12    1    3    3    0    0  0.10803064483E+02  0.27477688372E+02  0.25007745660E+02  0.38692594944E+02  0.00000000000E+00 0.  1.
</event>
<event>
 7    1  0.2873608E-013  0.7246157E+02  0.7816164E-02  0.1226708E+00
        -11   -1    0    0    0    0  0.00000000000E+00  0.00000000000E+00  0.45593999997E+02  0.45594000000E+02  0.51100000000E-03 0. -1.
         11   -1    0    0    0    0 -0.00000000000E+00 -0.00000000000E+00 -0.45593999997E+02  0.45594000000E+02  0.51100000000E-03 0.  1.
    9900012    2    1    2    0    0  0.64142269406E+01 -0.95910094277E+00 -0.17567494045E+02  0.72461574049E+02  0.70000004892E+02 0.  0.
         12    1    1    2    0    0 -0.64142269406E+01  0.95910094277E+00  0.17567494045E+02  0.18726425951E+02  0.00000000000E+00 0. -1.
         11    1    3    3    0    0  0.39109022641E+00 -0.22284567346E+01  0.10954225012E+02  0.11185437715E+02  0.51100000000E-03 0. -1.
        -11    1    3    3    0    0  0.90940572786E+01  0.21907000317E+02  0.25421944906E+01  0.23855424829E+02  0.51100000000E-03 0.  1.
        -12    1    3    3    0    0 -0.30709205645E+01 -0.20637644525E+02 -0.31063913548E+02  0.37420711506E+02  0.00000000000E+00 0.  1.
</event>
<event>
 7    1  0.2873608E-013  0.7246158E+02  0.7816164E-02  0.1226708E+00
        -11   -1    0    0    0    0  0.00000000000E+00  0.00000000000E+00  0.45593999997E+02  0.45594000000E+02  0.51100000000E-03 0. -1.
         11   -1    0    0    0    0 -0.00000000000E+00 -0.00000000000E+00 -0.45593999997E+02  0.45594000000E+02  0.51100000000E-03 0.  1.
    9900012    2    1    2    0    0 -0.12614021645E+02 -0.59319054039E+00 -0.13827998202E+02  0.72461576120E+02  0.70000007589E+02 0.  0.
         12    1    1    2    0    0  0.12614021645E+02  0.59319054039E+00  0.13827998202E+02  0.18726423880E+02  0.00000000000E+00 0. -1.
         11    1    3    3    0    0  0.16182664277E+02 -0.18905485265E+02  0.19538746980E+00  0.24886425471E+02  0.51100000000E-03 0. -1.
        -11    1    3    3    0    0 -0.85115261012E+01  0.12939248651E+02 -0.20427508359E+02  0.25635002053E+02  0.51100000000E-03 0.  1.
        -12    1    3    3    0    0 -0.20285159820E+02  0.53730460733E+01  0.64041226875E+01  0.21940148597E+02  0.00000000000E+00 0.  1.
</event>
<event>
 7    1  0.2873608E-013  0.7246155E+02  0.7816164E-02  0.1226708E+00
        -11   -1    0    0    0    0  0.00000000000E+00  0.00000000000E+00  0.45593999997E+02  0.45594000000E+02  0.51100000000E-03 0. -1.
         11   -1    0    0    0    0 -0.00000000000E+00 -0.00000000000E+00 -0.45593999997E+02  0.45594000000E+02  0.51100000000E-03 0.  1.
    9900012    2    1    2    0    0  0.41310984001E+01 -0.10629825805E+02 -0.14853312668E+02  0.72461546309E+02  0.69999968754E+02 0.  0.
         12    1    1    2    0    0 -0.41310984001E+01  0.10629825805E+02  0.14853312668E+02  0.18726453691E+02  0.00000000000E+00 0. -1.
         11    1    3    3    0    0 -0.63135524269E+01 -0.30626442566E+02  0.10556774182E+02  0.33004324109E+02  0.51100000000E-03 0. -1.
        -11    1    3    3    0    0 -0.47412651771E+00  0.68018851488E+01 -0.20554075881E+02  0.21655495218E+02  0.51100000000E-03 0.  1.
        -12    1    3    3    0    0  0.10918777345E+02  0.13194731612E+02 -0.48560109690E+01  0.17801726982E+02  0.00000000000E+00 0.  1.
</event>
<event>
 7    1  0.2873608E-013  0.7246157E+02  0.7816164E-02  0.1226708E+00
        -11   -1    0    0    0    0  0.00000000000E+00  0.00000000000E+00  0.45593999997E+02  0.45594000000E+02  0.51100000000E-03 0.  1.
         11   -1    0    0    0    0 -0.00000000000E+00 -0.00000000000E+00 -0.45593999997E+02  0.45594000000E+02  0.51100000000E-03 0. -1.
    9900012    2    1    2    0    0  0.42554940522E+01 -0.15416635304E+02  0.97415233540E+01  0.72461570789E+02  0.70000000645E+02 0.  0.
         12    1    1    2    0    0 -0.42554940522E+01  0.15416635304E+02 -0.97415233540E+01  0.18726429211E+02  0.00000000000E+00 0. -1.
         11    1    3    3    0    0  0.52328519773E+01 -0.30312025618E+02 -0.55053061772E+01  0.31249160521E+02  0.51100000000E-03 0. -1.
        -11    1    3    3    0    0 -0.65793582404E+01 -0.61284464116E+01  0.17158058064E+02  0.19371235558E+02  0.51100000000E-03 0.  1.
         12    1    3    3    0    0  0.56020003153E+01  0.21023836726E+02 -0.19112285325E+01  0.21841174710E+02  0.00000000000E+00 0. -1.
</event>
<event>
 7    1  0.2873608E-013  0.7246161E+02  0.7816164E-02  0.1226708E+00
        -11   -1    0    0    0    0  0.00000000000E+00  0.00000000000E+00  0.45593999997E+02  0.45594000000E+02  0.51100000000E-03 0. -1.
         11   -1    0    0    0    0 -0.00000000000E+00 -0.00000000000E+00 -0.45593999997E+02  0.45594000000E+02  0.51100000000E-03 0.  1.
    9900012    2    1    2    0    0 -0.16991064473E+02  0.76485135124E+01  0.18658782550E+01  0.72461614002E+02  0.70000056937E+02 0.  0.
         12    1    1    2    0    0  0.16991064473E+02 -0.76485135124E+01 -0.18658782550E+01  0.18726385998E+02  0.00000000000E+00 0. -1.
         11    1    3    3    0    0 -0.13582525961E+02  0.40228058756E+01  0.79268902391E+01  0.16232792973E+02  0.51100000000E-03 0. -1.
        -11    1    3    3    0    0 -0.19371894667E+02  0.21433415493E+02  0.59036521412E+01  0.29487534851E+02  0.51100000000E-03 0.  1.
        -12    1    3    3    0    0  0.15963356155E+02 -0.17807707856E+02 -0.11964664125E+02  0.26741286178E+02  0.00000000000E+00 0.  1.
</event>
<event>
 7    1  0.2873608E-013  0.7246222E+02  0.7816164E-02  0.1226706E+00
        -11   -1    0    0    0    0  0.00000000000E+00  0.00000000000E+00  0.45593999997E+02  0.45594000000E+02  0.51100000000E-03 0. -1.
         11   -1    0    0    0    0 -0.00000000000E+00 -0.00000000000E+00 -0.45593999997E+02  0.45594000000E+02  0.51100000000E-03 0.  1.
    9900012    2    1    2    0    0  0.13798378811E+02 -0.95076028167E+01 -0.83585310234E+01  0.72462220710E+02  0.70000847282E+02 0.  0.
         12    1    1    2    0    0 -0.13798378811E+02  0.95076028167E+01  0.83585310234E+01  0.18725779290E+02  0.00000000000E+00 0. -1.
         11    1    3    3    0    0  0.11983150303E+02  0.31677052874E+00 -0.92690005110E+01  0.15152907493E+02  0.51100000000E-03 0. -1.
        -11    1    3    3    0    0 -0.11499115074E+02  0.92699807036E+01 -0.20778303801E+02  0.25493138270E+02  0.51100000000E-03 0.  1.
         12    1    3    3    0    0  0.13314343582E+02 -0.19094354049E+02  0.21688773288E+02  0.31816174948E+02  0.00000000000E+00 0. -1.
</event>
<event>
 7    1  0.2873608E-013  0.7246156E+02  0.7816164E-02  0.1226708E+00
        -11   -1    0    0    0    0  0.00000000000E+00  0.00000000000E+00  0.45593999997E+02  0.45594000000E+02  0.51100000000E-03 0.  1.
         11   -1    0    0    0    0 -0.00000000000E+00 -0.00000000000E+00 -0.45593999997E+02  0.45594000000E+02  0.51100000000E-03 0. -1.
    9900012    2    1    2    0    0  0.41579888964E+01  0.83411617499E+01  0.16242399791E+02  0.72461564088E+02  0.69999991915E+02 0.  0.
         12    1    1    2    0    0 -0.41579888964E+01 -0.83411617499E+01 -0.16242399791E+02  0.18726435912E+02  0.00000000000E+00 0. -1.
         11    1    3    3    0    0 -0.82034350538E+01 -0.88934925533E+00 -0.24816658044E+02  0.26152510501E+02  0.51100000000E-03 0. -1.
        -11    1    3    3    0    0 -0.28275999624E+01  0.15200651656E+01  0.22324868219E+01  0.39102323877E+01  0.51100000000E-03 0.  1.
        -12    1    3    3    0    0  0.15189023913E+02  0.77104458396E+01  0.38826571013E+02  0.42398821199E+02  0.00000000000E+00 0.  1.
</event>
<event>
 7    1  0.2873608E-013  0.7246149E+02  0.7816164E-02  0.1226708E+00
        -11   -1    0    0    0    0  0.00000000000E+00  0.00000000000E+00  0.45593999997E+02  0.45594000000E+02  0.51100000000E-03 0.  1.
         11   -1    0    0    0    0 -0.00000000000E+00 -0.00000000000E+00 -0.45593999997E+02  0.45594000000E+02  0.51100000000E-03 0. -1.
    9900012    2    1    2    0    0  0.51389742578E+01  0.16175397561E+02 -0.79138881881E+01  0.72461490210E+02  0.69999895675E+02 0.  0.
         12    1    1    2    0    0 -0.51389742578E+01 -0.16175397561E+02  0.79138881881E+01  0.18726509790E+02  0.00000000000E+00 0. -1.
         11    1    3    3    0    0  0.15953651273E+02  0.73361277566E+01 -0.74209062437E+01  0.19063252848E+02  0.51100000000E-03 0. -1.
        -11    1    3    3    0    0 -0.97680520400E+01  0.28567851909E+02 -0.95482536505E+01  0.31665535704E+02  0.51100000000E-03 0.  1.
        -12    1    3    3    0    0 -0.10466249750E+01 -0.19728582105E+02  0.90552717060E+01  0.21732701659E+02  0.00000000000E+00 0.  1.
</event>
<event>
 7    1  0.2873608E-013  0.7246153E+02  0.7816164E-02  0.1226708E+00
        -11   -1    0    0    0    0  0.00000000000E+00  0.00000000000E+00  0.45593999997E+02  0.45594000000E+02  0.51100000000E-03 0.  1.
         11   -1    0    0    0    0 -0.00000000000E+00 -0.00000000000E+00 -0.45593999997E+02  0.45594000000E+02  0.51100000000E-03 0. -1.
    9900012    2    1    2    0    0 -0.12944031871E+02  0.88365216998E+01  0.10249324033E+02  0.72461528898E+02  0.69999946073E+02 0.  0.
         12    1    1    2    0    0  0.12944031871E+02 -0.88365216998E+01 -0.10249324033E+02  0.18726471102E+02  0.00000000000E+00 0. -1.
         11    1    3    3    0    0 -0.19720368509E+02 -0.69973462231E+01  0.33456257439E+01  0.21190776299E+02  0.51100000000E-03 0.  1.
        -11    1    3    3    0    0 -0.13776342499E+02  0.24240896925E+02  0.80943471275E+01  0.29033207747E+02  0.51100000000E-03 0. -1.
        -12    1    3    3    0    0  0.20552679137E+02 -0.84070290025E+01 -0.11906488385E+01  0.22237544851E+02  0.00000000000E+00 0.  1.
</event>
<event>
 7    1  0.2873608E-013  0.7246156E+02  0.7816164E-02  0.1226708E+00
        -11   -1    0    0    0    0  0.00000000000E+00  0.00000000000E+00  0.45593999997E+02  0.45594000000E+02  0.51100000000E-03 0.  1.
         11   -1    0    0    0    0 -0.00000000000E+00 -0.00000000000E+00 -0.45593999997E+02  0.45594000000E+02  0.51100000000E-03 0. -1.
    9900012    2    1    2    0    0 -0.17323853940E+02  0.34475829707E+01  0.62191418802E+01  0.72461562287E+02  0.69999989569E+02 0.  0.
         12    1    1    2    0    0  0.17323853940E+02 -0.34475829707E+01 -0.62191418802E+01  0.18726437713E+02  0.00000000000E+00 0. -1.
         11    1    3    3    0    0 -0.16202257442E+02 -0.78436656661E+01 -0.20739654247E+02  0.27462146599E+02  0.51100000000E-03 0. -1.
        -11    1    3    3    0    0 -0.92028715869E+01  0.20534368443E+02  0.11537993129E+02  0.25287910521E+02  0.51100000000E-03 0.  1.
        -12    1    3    3    0    0  0.80812750887E+01 -0.92431198066E+01  0.15420802999E+02  0.19711505167E+02  0.00000000000E+00 0.  1.
</event>
<event>
 7    1  0.2873608E-013  0.7246160E+02  0.7816164E-02  0.1226708E+00
        -11   -1    0    0    0    0  0.00000000000E+00  0.00000000000E+00  0.45593999997E+02  0.45594000000E+02  0.51100000000E-03 0.  1.
         11   -1    0    0    0    0 -0.00000000000E+00 -0.00000000000E+00 -0.45593999997E+02  0.45594000000E+02  0.51100000000E-03 0. -1.
    9900012    2    1    2    0    0 -0.82465081758E+01 -0.32828947566E+01  0.16489263624E+02  0.72461598585E+02  0.70000036854E+02 0.  0.
         12    1    1    2    0    0  0.82465081758E+01  0.32828947566E+01 -0.16489263624E+02  0.18726401415E+02  0.00000000000E+00 0. -1.
         11    1    3    3    0    0  0.26567906801E+01  0.17672966979E+02 -0.14731909296E+02  0.23160773958E+02  0.51100000000E-03 0. -1.
        -11    1    3    3    0    0  0.98890342629E+01 -0.11495849604E+02  0.10357488400E+02  0.18363690342E+02  0.51100000000E-03 0.  1.
        -12    1    3    3    0    0 -0.20792333119E+02 -0.94600121317E+01  0.20863684520E+02  0.30937134285E+02  0.00000000000E+00 0.  1.
</event>
<event>
 7    1  0.2873608E-013  0.7246159E+02  0.7816164E-02  0.1226708E+00
        -11   -1    0    0    0    0  0.00000000000E+00  0.00000000000E+00  0.45593999997E+02  0.45594000000E+02  0.51100000000E-03 0. -1.
         11   -1    0    0    0    0 -0.00000000000E+00 -0.00000000000E+00 -0.45593999997E+02  0.45594000000E+02  0.51100000000E-03 0.  1.
    9900012    2    1    2    0    0 -0.13307971731E+02 -0.86996732457E+01 -0.98940332657E+01  0.72461592965E+02  0.70000029533E+02 0.  0.
         12    1    1    2    0    0  0.13307971731E+02  0.86996732457E+01  0.98940332657E+01  0.18726407035E+02  0.00000000000E+00 0. -1.
         11    1    3    3    0    0 -0.21241253335E+02 -0.74862008406E+01  0.15801708226E+02  0.27512325046E+02  0.51100000000E-03 0. -1.
        -11    1    3    3    0    0  0.73318523965E+01 -0.51245084079E+01  0.74051987701E+01  0.11612648926E+02  0.51100000000E-03 0.  1.
        -12    1    3    3    0    0  0.60142920841E+00  0.39110360027E+01 -0.33100940262E+02  0.33336618994E+02  0.00000000000E+00 0.  1.
</event>
<event>
 7    1  0.2873608E-013  0.7246222E+02  0.7816164E-02  0.1226706E+00
        -11   -1    0    0    0    0  0.00000000000E+00  0.00000000000E+00  0.45593999997E+02  0.45594000000E+02  0.51100000000E-03 0. -1.
         11   -1    0    0    0    0 -0.00000000000E+00 -0.00000000000E+00 -0.45593999997E+02  0.45594000000E+02  0.51100000000E-03 0.  1.
    9900012    2    1    2    0    0  0.61787979574E+01 -0.11586670707E+02 -0.13350138567E+02  0.72462224127E+02  0.70000851734E+02 0.  0.
         12    1    1    2    0    0 -0.61787979574E+01  0.11586670707E+02  0.13350138567E+02  0.18725775873E+02  0.00000000000E+00 0. -1.
         11    1    3    3    0    0  0.13461905348E+02 -0.25089414389E+02  0.49036924076E+01  0.28892002518E+02  0.51100000000E-03 0. -1.
        -11    1    3    3    0    0  0.32769481752E+01 -0.82284364566E+01 -0.17246870043E+02  0.19388142830E+02  0.51100000000E-03 0.  1.
        -12    1    3    3    0    0 -0.10560055566E+02  0.21731180139E+02 -0.10069609316E+01  0.24182078779E+02  0.00000000000E+00 0.  1.
</event>
<event>
 7    1  0.2873608E-013  0.7246147E+02  0.7816164E-02  0.1226708E+00
        -11   -1    0    0    0    0  0.00000000000E+00  0.00000000000E+00  0.45593999997E+02  0.45594000000E+02  0.51100000000E-03 0. -1.
         11   -1    0    0    0    0 -0.00000000000E+00 -0.00000000000E+00 -0.45593999997E+02  0.45594000000E+02  0.51100000000E-03 0.  1.
    9900012    2    1    2    0    0  0.30703096094E+01 -0.14648569543E+02 -0.11255025878E+02  0.72461468066E+02  0.69999866829E+02 0.  0.
         12    1    1    2    0    0 -0.30703096094E+01  0.14648569543E+02  0.11255025878E+02  0.18726531934E+02  0.00000000000E+00 0. -1.
         11    1    3    3    0    0 -0.53808330643E+01 -0.11541537398E+02  0.63170740652E-01  0.12734380267E+02  0.51100000000E-03 0. -1.
        -11    1    3    3    0    0  0.73590242611E+01 -0.99431582647E+01 -0.33911349614E+02  0.36097108849E+02  0.51100000000E-03 0.  1.
         12    1    3    3    0    0  0.10921184126E+01  0.68361261204E+01  0.22593152995E+02  0.23629978950E+02  0.00000000000E+00 0. -1.
</event>
<event>
 7    1  0.2873608E-013  0.7246153E+02  0.7816164E-02  0.1226708E+00
        -11   -1    0    0    0    0  0.00000000000E+00  0.00000000000E+00  0.45593999997E+02  0.45594000000E+02  0.51100000000E-03 0.  1.
         11   -1    0    0    0    0 -0.00000000000E+00 -0.00000000000E+00 -0.45593999997E+02  0.45594000000E+02  0.51100000000E-03 0. -1.
    9900012    2    1    2    0    0  0.95432687405E+01 -0.14614688399E+02  0.67836222281E+01  0.72461531411E+02  0.69999949348E+02 0.  0.
         12    1    1    2    0    0 -0.95432687405E+01  0.14614688399E+02 -0.67836222281E+01  0.18726468589E+02  0.00000000000E+00 0. -1.
         11    1    3    3    0    0 -0.18191555555E+02 -0.52017233342E+00 -0.20116018678E+02  0.27126693136E+02  0.51100000000E-03 0. -1.
        -11    1    3    3    0    0  0.30980618570E+01 -0.10731298198E+02  0.11780160688E+02  0.16233635895E+02  0.51100000000E-03 0.  1.
        -12    1    3    3    0    0  0.24636762439E+02 -0.33632178681E+01  0.15119480218E+02  0.29101202380E+02  0.00000000000E+00 0.  1.
</event>
<event>
 7    1  0.2873608E-013  0.7246162E+02  0.7816164E-02  0.1226708E+00
        -11   -1    0    0    0    0  0.00000000000E+00  0.00000000000E+00  0.45593999997E+02  0.45594000000E+02  0.51100000000E-03 0. -1.
         11   -1    0    0    0    0 -0.00000000000E+00 -0.00000000000E+00 -0.45593999997E+02  0.45594000000E+02  0.51100000000E-03 0.  1.
    9900012    2    1    2    0    0 -0.27621278643E+01  0.18077428399E+02  0.40316812451E+01  0.72461622306E+02  0.70000067755E+02 0.  0.
         12    1    1    2    0    0  0.27621278643E+01 -0.18077428399E+02 -0.40316812451E+01  0.18726377694E+02  0.00000000000E+00 0. -1.
         11    1    3    3    0    0 -0.42736759294E+00 -0.99672242051E+01 -0.56233631402E+01  0.11452092153E+02  0.51100000000E-03 0. -1.
        -11    1    3    3    0    0  0.17042055029E+02  0.22545485744E+02 -0.12643243821E+02  0.30960978370E+02  0.51100000000E-03 0.  1.
         12    1    3    3    0    0 -0.19376815300E+02  0.54991668602E+01  0.22298288206E+02  0.30048551783E+02  0.00000000000E+00 0. -1.
</event>
<event>
 7    1  0.2873608E-013  0.7246155E+02  0.7816164E-02  0.1226708E+00
        -11   -1    0    0    0    0  0.00000000000E+00  0.00000000000E+00  0.45593999997E+02  0.45594000000E+02  0.51100000000E-03 0.  1.
         11   -1    0    0    0    0 -0.00000000000E+00 -0.00000000000E+00 -0.45593999997E+02  0.45594000000E+02  0.51100000000E-03 0. -1.
    9900012    2    1    2    0    0  0.10060669968E+02  0.21417116733E+00  0.15792937161E+02  0.72461553095E+02  0.69999977595E+02 0.  0.
         12    1    1    2    0    0 -0.10060669968E+02 -0.21417116733E+00 -0.15792937161E+02  0.18726446905E+02  0.00000000000E+00 0. -1.
         11    1    3    3    0    0 -0.18555851334E+02  0.43060046830E+01 -0.11242320292E+02  0.22119020342E+02  0.51100000000E-03 0. -1.
        -11    1    3    3    0    0  0.21159353282E+02 -0.10013828253E+02  0.19262008619E+01  0.23488406451E+02  0.51100000000E-03 0.  1.
        -12    1    3    3    0    0  0.74571680213E+01  0.59219947377E+01  0.25109056591E+02  0.26854126302E+02  0.00000000000E+00 0.  1.
</event>
<event>
 7    1  0.2873608E-013  0.7246160E+02  0.7816164E-02  0.1226708E+00
        -11   -1    0    0    0    0  0.00000000000E+00  0.00000000000E+00  0.45593999997E+02  0.45594000000E+02  0.51100000000E-03 0. -1.
         11   -1    0    0    0    0 -0.00000000000E+00 -0.00000000000E+00 -0.45593999997E+02  0.45594000000E+02  0.51100000000E-03 0.  1.
    9900012    2    1    2    0    0 -0.12331886217E+02 -0.12017991675E+02 -0.73600535580E+01  0.72461603391E+02  0.70000043115E+02 0.  0.
         12    1    1    2    0    0  0.12331886217E+02  0.12017991675E+02  0.73600535580E+01  0.18726396609E+02  0.00000000000E+00 0. -1.
         11    1    3    3    0    0  0.93614698042E+01  0.16450739935E+01  0.15919045224E+02  0.18540749350E+02  0.51100000000E-03 0. -1.
        -11    1    3    3    0    0  0.45356714580E+01  0.10132682832E+02  0.74502649499E+00  0.11126483797E+02  0.51100000000E-03 0.  1.
        -12    1    3    3    0    0 -0.26229027480E+02 -0.23795748501E+02 -0.24024125277E+02  0.42794370244E+02  0.00000000000E+00 0.  1.
</event>
<event>
 7    1  0.2873608E-013  0.7246158E+02  0.7816164E-02  0.1226708E+00
        -11   -1    0    0    0    0  0.00000000000E+00  0.00000000000E+00  0.45593999997E+02  0.45594000000E+02  0.51100000000E-03 0.  1.
         11   -1    0    0    0    0 -0.00000000000E+00 -0.00000000000E+00 -0.45593999997E+02  0.45594000000E+02  0.51100000000E-03 0. -1.
    9900012    2    1    2    0    0  0.13324536814E+02  0.12867366384E+02 -0.27507008226E+01  0.72461581390E+02  0.70000014454E+02 0.  0.
         12    1    1    2    0    0 -0.13324536814E+02 -0.12867366384E+02  0.27507008226E+01  0.18726418610E+02  0.00000000000E+00 0. -1.
         11    1    3    3    0    0  0.24097040253E+02  0.61523795720E+01 -0.17168464822E+02  0.30220445198E+02  0.51100000000E-03 0. -1.
        -11    1    3    3    0    0 -0.33452305423E+01 -0.57024671113E+01 -0.11092433666E+02  0.12913201905E+02  0.51100000000E-03 0.  1.
        -12    1    3    3    0    0 -0.74272728973E+01  0.12417453923E+02  0.25510197665E+02  0.29327934287E+02  0.00000000000E+00 0.  1.
</event>
<event>
 7    1  0.2873608E-013  0.7246153E+02  0.7816164E-02  0.1226708E+00
        -11   -1    0    0    0    0  0.00000000000E+00  0.00000000000E+00  0.45593999997E+02  0.45594000000E+02  0.51100000000E-03 0.  1.
         11   -1    0    0    0    0 -0.00000000000E+00 -0.00000000000E+00 -0.45593999997E+02  0.45594000000E+02  0.51100000000E-03 0. -1.
    9900012    2    1    2    0    0 -0.62081066908E+01 -0.13314400063E+02  0.11613217587E+02  0.72461530486E+02  0.69999948142E+02 0.  0.
         12    1    1    2    0    0  0.62081066908E+01  0.13314400063E+02 -0.11613217587E+02  0.18726469514E+02  0.00000000000E+00 0. -1.
         11    1    3    3    0    0 -0.49019607604E+01  0.58985856436E+01  0.18679414175E+02  0.20192648318E+02  0.51100000000E-03 0. -1.
        -11    1    3    3    0    0 -0.60961831041E+01 -0.78850471477E+01  0.20107119743E+02  0.22441784278E+02  0.51100000000E-03 0.  1.
         12    1    3    3    0    0  0.47900371737E+01 -0.11327938559E+02 -0.27173316331E+02  0.29827097891E+02  0.00000000000E+00 0. -1.
</event>
<event>
 7    1  0.2873608E-013  0.7246156E+02  0.7816164E-02  0.1226708E+00
        -11   -1    0    0    0    0  0.00000000000E+00  0.00000000000E+00  0.45593999997E+02  0.45594000000E+02  0.51100000000E-03 0. -1.
         11   -1    0    0    0    0 -0.00000000000E+00 -0.00000000000E+00 -0.45593999997E+02  0.45594000000E+02  0.51100000000E-03 0.  1.
    9900012    2    1    2    0    0 -0.59088961778E+01  0.11978965759E+02 -0.13125116977E+02  0.72461564932E+02  0.69999993015E+02 0.  0.
         12    1    1    2    0    0  0.59088961778E+01 -0.11978965759E+02  0.13125116977E+02  0.18726435068E+02  0.00000000000E+00 0. -1.
         11    1    3    3    0    0 -0.17627023115E+02  0.27619098441E+01 -0.31881708025E+02  0.36534687582E+02  0.51100000000E-03 0. -1.
        -11    1    3    3    0    0  0.51760495321E+01 -0.14329722253E+01 -0.60861953208E+01  0.81170605457E+01  0.51100000000E-03 0.  1.
        -12    1    3    3    0    0  0.65420774048E+01  0.10650028140E+02  0.24842786368E+02  0.27809816805E+02  0.00000000000E+00 0.  1.
</event>
<event>
 7    1  0.2873608E-013  0.7246147E+02  0.7816164E-02  0.1226708E+00
        -11   -1    0    0    0    0  0.00000000000E+00  0.00000000000E+00  0.45593999997E+02  0.45594000000E+02  0.51100000000E-03 0. -1.
         11   -1    0    0    0    0 -0.00000000000E+00 -0.00000000000E+00 -0.45593999997E+02  0.45594000000E+02  0.51100000000E-03 0.  1.
    9900012    2    1    2    0    0 -0.62849927037E+00 -0.83007721852E+01 -0.16774535558E+02  0.72461471401E+02  0.69999871173E+02 0.  0.
         12    1    1    2    0    0  0.62849927037E+00  0.83007721852E+01  0.16774535558E+02  0.18726528599E+02  0.00000000000E+00 0. -1.
         11    1    3    3    0    0 -0.71897225189E+01  0.59233166935E+00  0.25200213221E+02  0.26212472477E+02  0.51100000000E-03 0. -1.
        -11    1    3    3    0    0  0.53416863805E+01  0.17171498361E+01 -0.42422433427E+01  0.70341201147E+01  0.51100000000E-03 0.  1.
        -12    1    3    3    0    0  0.12195368680E+01 -0.10610253691E+02 -0.37732505436E+02  0.39214878809E+02  0.00000000000E+00 0.  1.
</event>
<event>
 7    1  0.2873608E-013  0.7246183E+02  0.7816164E-02  0.1226707E+00
        -11   -1    0    0    0    0  0.00000000000E+00  0.00000000000E+00  0.45593999997E+02  0.45594000000E+02  0.51100000000E-03 0.  1.
         11   -1    0    0    0    0 -0.00000000000E+00 -0.00000000000E+00 -0.45593999997E+02  0.45594000000E+02  0.51100000000E-03 0. -1.
    9900012    2    1    2    0    0 -0.12445085588E+02  0.92605002279E+01  0.10489635420E+02  0.72461829249E+02  0.70000337335E+02 0.  0.
         12    1    1    2    0    0  0.12445085588E+02 -0.92605002279E+01 -0.10489635420E+02  0.18726170751E+02  0.00000000000E+00 0. -1.
         11    1    3    3    0    0  0.13478427910E+02  0.27729057010E+01 -0.59788042717E+01  0.15003437130E+02  0.51100000000E-03 0. -1.
        -11    1    3    3    0    0 -0.74980256456E+01 -0.94031202412E+01 -0.14006788450E+02  0.18461559571E+02  0.51100000000E-03 0.  1.
        -12    1    3    3    0    0 -0.18425487852E+02  0.15890714768E+02  0.30475228141E+02  0.38996832547E+02  0.00000000000E+00 0.  1.
</event>
<event>
 7    1  0.2873608E-013  0.7246144E+02  0.7816164E-02  0.1226708E+00
        -11   -1    0    0    0    0  0.00000000000E+00  0.00000000000E+00  0.45593999997E+02  0.45594000000E+02  0.51100000000E-03 0.  1.
         11   -1    0    0    0    0 -0.00000000000E+00 -0.00000000000E+00 -0.45593999997E+02  0.45594000000E+02  0.51100000000E-03 0. -1.
    9900012    2    1    2    0    0 -0.18653159846E+02 -0.16546893882E+01 -0.75161682953E-01  0.72461440826E+02  0.69999831343E+02 0.  0.
         12    1    1    2    0    0  0.18653159846E+02  0.16546893882E+01  0.75161682953E-01  0.18726559174E+02  0.00000000000E+00 0. -1.
         11    1    3    3    0    0  0.45752318412E+01 -0.19545782077E+02  0.34402142030E+01  0.20366772387E+02  0.51100000000E-03 0. -1.
        -11    1    3    3    0    0 -0.64641292666E+01 -0.12525345069E+02 -0.92988461052E+01  0.16886023079E+02  0.51100000000E-03 0.  1.
        -12    1    3    3    0    0 -0.16764262421E+02  0.30416437758E+02  0.57834702192E+01  0.35208645361E+02  0.00000000000E+00 0.  1.
</event>
<event>
 7    1  0.2873608E-013  0.7246160E+02  0.7816164E-02  0.1226708E+00
        -11   -1    0    0    0    0  0.00000000000E+00  0.00000000000E+00  0.45593999997E+02  0.45594000000E+02  0.51100000000E-03 0.  1.
         11   -1    0    0    0    0 -0.00000000000E+00 -0.00000000000E+00 -0.45593999997E+02  0.45594000000E+02  0.51100000000E-03 0. -1.
    9900012    2    1    2    0    0  0.12248298880E+01  0.53028463232E+01  0.17918082729E+02  0.72461599490E+02  0.70000038033E+02 0.  0.
         12    1    1    2    0    0 -0.12248298880E+01 -0.53028463232E+01 -0.17918082729E+02  0.18726400510E+02  0.00000000000E+00 0. -1.
         11    1    3    3    0    0  0.93186600650E+01  0.10266808578E+02 -0.13293332001E+02  0.19208265401E+02  0.51100000000E-03 0. -1.
        -11    1    3    3    0    0  0.79966449889E+01 -0.89246897395E+01 -0.53414775970E+01  0.13119748519E+02  0.51100000000E-03 0.  1.
         12    1    3    3    0    0 -0.16090475166E+02  0.39607274851E+01  0.36552892326E+02  0.40133585570E+02  0.00000000000E+00 0. -1.
</event>
<event>
 7    1  0.2873608E-013  0.7246154E+02  0.7816164E-02  0.1226708E+00
        -11   -1    0    0    0    0  0.00000000000E+00  0.00000000000E+00  0.45593999997E+02  0.45594000000E+02  0.51100000000E-03 0.  1.
         11   -1    0    0    0    0 -0.00000000000E+00 -0.00000000000E+00 -0.45593999997E+02  0.45594000000E+02  0.51100000000E-03 0. -1.
    9900012    2    1    2    0    0 -0.18245644680E+01 -0.30098864205E+01  0.18392717013E+02  0.72461535014E+02  0.69999954040E+02 0.  0.
         12    1    1    2    0    0  0.18245644680E+01  0.30098864205E+01 -0.18392717013E+02  0.18726464986E+02  0.00000000000E+00 0. -1.
         11    1    3    3    0    0  0.45752495190E+00  0.59953116858E+01  0.17862396367E+02  0.18847235753E+02  0.51100000000E-03 0. -1.
        -11    1    3    3    0    0  0.11406108923E+01  0.14761979090E+02  0.18447268882E+02  0.23654148670E+02  0.51100000000E-03 0.  1.
         12    1    3    3    0    0 -0.34227003122E+01 -0.23767177196E+02 -0.17916948236E+02  0.29960150590E+02  0.00000000000E+00 0. -1.
</event>
<event>
 7    1  0.2873608E-013  0.7246147E+02  0.7816164E-02  0.1226708E+00
        -11   -1    0    0    0    0  0.00000000000E+00  0.00000000000E+00  0.45593999997E+02  0.45594000000E+02  0.51100000000E-03 0.  1.
         11   -1    0    0    0    0 -0.00000000000E+00 -0.00000000000E+00 -0.45593999997E+02  0.45594000000E+02  0.51100000000E-03 0. -1.
    9900012    2    1    2    0    0  0.14360748714E+01 -0.43603970649E-01  0.18671337001E+02  0.72461467012E+02  0.69999865456E+02 0.  0.
         12    1    1    2    0    0 -0.14360748714E+01  0.43603970649E-01 -0.18671337001E+02  0.18726532988E+02  0.00000000000E+00 0. -1.
         11    1    3    3    0    0 -0.13251830031E+02 -0.50936452793E+01  0.77102815652E+00  0.14217971236E+02  0.51100000000E-03 0. -1.
        -11    1    3    3    0    0 -0.62535146485E+01  0.25393901181E+02  0.99801072772E+01  0.27992127540E+02  0.51100000000E-03 0.  1.
         12    1    3    3    0    0  0.20941419551E+02 -0.20343859873E+02  0.79202015669E+01  0.30251368237E+02  0.00000000000E+00 0. -1.
</event>
<event>
 7    1  0.2873608E-013  0.7246158E+02  0.7816164E-02  0.1226708E+00
        -11   -1    0    0    0    0  0.00000000000E+00  0.00000000000E+00  0.45593999997E+02  0.45594000000E+02  0.51100000000E-03 0.  1.
         11   -1    0    0    0    0 -0.00000000000E+00 -0.00000000000E+00 -0.45593999997E+02  0.45594000000E+02  0.51100000000E-03 0. -1.
    9900012    2    1    2    0    0  0.80617434598E+01  0.25219684483E+01  0.16713067866E+02  0.72461583633E+02  0.70000017376E+02 0.  0.
         12    1    1    2    0    0 -0.80617434598E+01 -0.25219684483E+01 -0.16713067866E+02  0.18726416367E+02  0.00000000000E+00 0. -1.
         11    1    3    3    0    0 -0.13885874093E+02  0.13671192633E+02 -0.91889206671E+01  0.21544263056E+02  0.51100000000E-03 0. -1.
        -11    1    3    3    0    0 -0.28588037581E+01 -0.17607490653E+02  0.13894954530E+02  0.22611197396E+02  0.51100000000E-03 0.  1.
        -12    1    3    3    0    0  0.24806421311E+02  0.64582664685E+01  0.12007034003E+02  0.28306123182E+02  0.00000000000E+00 0.  1.
</event>
<event>
 7    1  0.2873608E-013  0.7246139E+02  0.7816164E-02  0.1226708E+00
        -11   -1    0    0    0    0  0.00000000000E+00  0.00000000000E+00  0.45593999997E+02  0.45594000000E+02  0.51100000000E-03 0.  1.
         11   -1    0    0    0    0 -0.00000000000E+00 -0.00000000000E+00 -0.45593999997E+02  0.45594000000E+02  0.51100000000E-03 0. -1.
    9900012    2    1    2    0    0 -0.16266153572E+02 -0.64154555769E+01 -0.67037270410E+01  0.72461393833E+02  0.69999770127E+02 0.  0.
         12    1    1    2    0    0  0.16266153572E+02  0.64154555769E+01  0.67037270410E+01  0.18726606167E+02  0.00000000000E+00 0. -1.
         11    1    3    3    0    0  0.11880786622E+02  0.65820579644E+01 -0.17949045524E+02  0.22508771918E+02  0.51100000000E-03 0. -1.
        -11    1    3    3    0    0  0.31934910577E+01 -0.16320042292E+02  0.43888788395E+00  0.16635347558E+02  0.51100000000E-03 0.  1.
        -12    1    3    3    0    0 -0.31340431251E+02  0.33225287504E+01  0.10806430599E+02  0.33317274357E+02  0.00000000000E+00 0.  1.
</event>
<event>
 7    1  0.2873608E-013  0.7246156E+02  0.7816164E-02  0.1226708E+00
        -11   -1    0    0    0    0  0.00000000000E+00  0.00000000000E+00  0.45593999997E+02  0.45594000000E+02  0.51100000000E-03 0. -1.
         11   -1    0    0    0    0 -0.00000000000E+00 -0.00000000000E+00 -0.45593999997E+02  0.45594000000E+02  0.51100000000E-03 0.  1.
    9900012    2    1    2    0    0 -0.47776461598E+01  0.17727411596E+02 -0.36868159797E+01  0.72461557818E+02  0.69999983748E+02 0.  0.
         12    1    1    2    0    0  0.47776461598E+01 -0.17727411596E+02  0.36868159797E+01  0.18726442182E+02  0.00000000000E+00 0. -1.
         11    1    3    3    0    0 -0.17918589061E+02  0.55152229925E+01  0.20916119237E+02  0.28088744414E+02  0.51100000000E-03 0. -1.
        -11    1    3    3    0    0 -0.60244711964E+01 -0.69608242276E+01 -0.99553163746E+01  0.13559338166E+02  0.51100000000E-03 0.  1.
        -12    1    3    3    0    0  0.19165414097E+02  0.19173012831E+02 -0.14647618842E+02  0.30813475238E+02  0.00000000000E+00 0.  1.
</event>
<event>
 7    1  0.2873608E-013  0.7246155E+02  0.7816164E-02  0.1226708E+00
        -11   -1    0    0    0    0  0.00000000000E+00  0.00000000000E+00  0.45593999997E+02  0.45594000000E+02  0.51100000000E-03 0. -1.
         11   -1    0    0    0    0 -0.00000000000E+00 -0.00000000000E+00 -0.45593999997E+02  0.45594000000E+02  0.51100000000E-03 0.  1.
    9900012    2    1    2    0    0 -0.15168643458E+02 -0.10789891650E+02  0.20421406642E+01  0.72461552268E+02  0.69999976517E+02 0.  0.
         12    1    1    2    0    0  0.15168643458E+02  0.10789891650E+02 -0.20421406642E+01  0.18726447732E+02  0.00000000000E+00 0. -1.
         11    1    3    3    0    0  0.86757578066E+00 -0.11829328895E+02  0.14925783472E+02  0.19064750781E+02  0.51100000000E-03 0. -1.
        -11    1    3    3    0    0  0.68206739181E+01 -0.17825512731E+02  0.36922151778E+01  0.19439726079E+02  0.51100000000E-03 0.  1.
        -12    1    3    3    0    0 -0.22856893157E+02  0.18864949975E+02 -0.16575857985E+02  0.33957075408E+02  0.00000000000E+00 0.  1.
</event>
<event>
 7    1  0.2873608E-013  0.7246159E+02  0.7816164E-02  0.1226708E+00
        -11   -1    0    0    0    0  0.00000000000E+00  0.00000000000E+00  0.45593999997E+02  0.45594000000E+02  0.51100000000E-03 0. -1.
         11   -1    0    0    0    0 -0.00000000000E+00 -0.00000000000E+00 -0.45593999997E+02  0.45594000000E+02  0.51100000000E-03 0.  1.
    9900012    2    1    2    0    0  0.14611148301E+02  0.11041543917E+02  0.39086051591E+01  0.72461587075E+02  0.70000021860E+02 0.  0.
         12    1    1    2    0    0 -0.14611148301E+02 -0.11041543917E+02 -0.39086051591E+01  0.18726412925E+02  0.00000000000E+00 0. -1.
         11    1    3    3    0    0  0.26544252957E+02  0.94553877305E+01 -0.82376419113E+01  0.29357460154E+02  0.51100000000E-03 0. -1.
        -11    1    3    3    0    0  0.36350007997E+01 -0.16129510775E+02 -0.90815918767E-01  0.16534285484E+02  0.51100000000E-03 0.  1.
         12    1    3    3    0    0 -0.15568105456E+02  0.17715666962E+02  0.12237062989E+02  0.26569841437E+02  0.00000000000E+00 0. -1.
</event>
<event>
 7    1  0.2873608E-013  0.7246151E+02  0.7816164E-02  0.1226708E+00
        -11   -1    0    0    0    0  0.00000000000E+00  0.00000000000E+00  0.45593999997E+02  0.45594000000E+02  0.51100000000E-03 0.  1.
         11   -1    0    0    0    0 -0.00000000000E+00 -0.00000000000E+00 -0.45593999997E+02  0.45594000000E+02  0.51100000000E-03 0. -1.
    9900012    2    1    2    0    0 -0.14323939520E+02  0.98306883467E+01  0.69902532946E+01  0.72461512933E+02  0.69999925277E+02 0.  0.
         12    1    1    2    0    0  0.14323939520E+02 -0.98306883467E+01 -0.69902532946E+01  0.18726487067E+02  0.00000000000E+00 0. -1.
         11    1    3    3    0    0 -0.17655233643E+02  0.69491415307E+01 -0.23047727390E+02  0.29852899040E+02  0.51100000000E-03 0. -1.
        -11    1    3    3    0    0 -0.91228247625E+01  0.10823143701E+02  0.85608018421E+01  0.16542481666E+02  0.51100000000E-03 0.  1.
        -12    1    3    3    0    0  0.12454118885E+02 -0.79415968853E+01  0.21477178842E+02  0.26066132228E+02  0.00000000000E+00 0.  1.
</event>
<event>
 7    1  0.2873608E-013  0.7246154E+02  0.7816164E-02  0.1226708E+00
        -11   -1    0    0    0    0  0.00000000000E+00  0.00000000000E+00  0.45593999997E+02  0.45594000000E+02  0.51100000000E-03 0. -1.
         11   -1    0    0    0    0 -0.00000000000E+00 -0.00000000000E+00 -0.45593999997E+02  0.45594000000E+02  0.51100000000E-03 0.  1.
    9900012    2    1    2    0    0 -0.54588454626E+01 -0.94981884048E+01 -0.15187686120E+02  0.72461537802E+02  0.69999957673E+02 0.  0.
         12    1    1    2    0    0  0.54588454626E+01  0.94981884048E+01  0.15187686120E+02  0.18726462198E+02  0.00000000000E+00 0. -1.
         11    1    3    3    0    0 -0.43860562770E+01 -0.18421333236E+01 -0.23748835638E+02  0.24220613932E+02  0.51100000000E-03 0. -1.
        -11    1    3    3    0    0  0.43178333499E+01 -0.26179084608E+02 -0.13209837289E+01  0.26565638596E+02  0.51100000000E-03 0.  1.
         12    1    3    3    0    0 -0.53906225355E+01  0.18523029527E+02  0.98821332466E+01  0.21675285273E+02  0.00000000000E+00 0. -1.
</event>
<event>
 7    1  0.2873608E-013  0.7246158E+02  0.7816164E-02  0.1226708E+00
        -11   -1    0    0    0    0  0.00000000000E+00  0.00000000000E+00  0.45593999997E+02  0.45594000000E+02  0.51100000000E-03 0.  1.
         11   -1    0    0    0    0 -0.00000000000E+00 -0.00000000000E+00 -0.45593999997E+02  0.45594000000E+02  0.51100000000E-03 0. -1.
    9900012    2    1    2    0    0  0.14001133896E+02  0.10729928831E+01  0.12389345505E+02  0.72461576258E+02  0.70000007769E+02 0.  0.
         12    1    1    2    0    0 -0.14001133896E+02 -0.10729928831E+01 -0.12389345505E+02  0.18726423742E+02  0.00000000000E+00 0. -1.
         11    1    3    3    0    0  0.15610800871E+02 -0.22610541875E-01  0.27125468949E+02  0.31296783876E+02  0.51100000000E-03 0. -1.
        -11    1    3    3    0    0  0.12650788896E+02 -0.11788399187E+02 -0.59130961986E+00  0.17301978569E+02  0.51100000000E-03 0.  1.
         12    1    3    3    0    0 -0.14260455870E+02  0.12884002612E+02 -0.14144813824E+02  0.23862813813E+02  0.00000000000E+00 0. -1.
</event>
<event>
 7    1  0.2873608E-013  0.7246162E+02  0.7816164E-02  0.1226708E+00
        -11   -1    0    0    0    0  0.00000000000E+00  0.00000000000E+00  0.45593999997E+02  0.45594000000E+02  0.51100000000E-03 0. -1.
         11   -1    0    0    0    0 -0.00000000000E+00 -0.00000000000E+00 -0.45593999997E+02  0.45594000000E+02  0.51100000000E-03 0.  1.
    9900012    2    1    2    0    0 -0.85949094251E+01 -0.21408446525E+01 -0.16499139564E+02  0.72461620472E+02  0.70000065366E+02 0.  0.
         12    1    1    2    0    0  0.85949094251E+01  0.21408446525E+01  0.16499139564E+02  0.18726379528E+02  0.00000000000E+00 0. -1.
         11    1    3    3    0    0  0.51787836282E+01 -0.61665533410E+01 -0.65108203428E+01  0.10355528078E+02  0.51100000000E-03 0. -1.
        -11    1    3    3    0    0  0.67234909711E+01 -0.24925741149E+02 -0.37061222114E+01  0.26081281501E+02  0.51100000000E-03 0.  1.
         12    1    3    3    0    0 -0.20497184024E+02  0.28951449837E+02 -0.62821970102E+01  0.36024810893E+02  0.00000000000E+00 0. -1.
</event>
<event>
 7    1  0.2873608E-013  0.7246159E+02  0.7816164E-02  0.1226708E+00
        -11   -1    0    0    0    0  0.00000000000E+00  0.00000000000E+00  0.45593999997E+02  0.45594000000E+02  0.51100000000E-03 0. -1.
         11   -1    0    0    0    0 -0.00000000000E+00 -0.00000000000E+00 -0.45593999997E+02  0.45594000000E+02  0.51100000000E-03 0.  1.
    9900012    2    1    2    0    0  0.10051505584E+01 -0.15898152891E+01 -0.18631713388E+02  0.72461585926E+02  0.70000020363E+02 0.  0.
         12    1    1    2    0    0 -0.10051505584E+01  0.15898152891E+01  0.18631713388E+02  0.18726414074E+02  0.00000000000E+00 0. -1.
         11    1    3    3    0    0 -0.59275007660E+01 -0.12478390846E+01 -0.19627053449E+02  0.20540535413E+02  0.51100000000E-03 0. -1.
        -11    1    3    3    0    0 -0.19704978960E+02 -0.63115956966E-01 -0.11153271059E+02  0.22642562466E+02  0.51100000000E-03 0.  1.
         12    1    3    3    0    0  0.26637630284E+02 -0.27886024749E+00  0.12148611119E+02  0.29278488047E+02  0.00000000000E+00 0. -1.
</event>
<event>
 7    1  0.2873608E-013  0.7246144E+02  0.7816164E-02  0.1226708E+00
        -11   -1    0    0    0    0  0.00000000000E+00  0.00000000000E+00  0.45593999997E+02  0.45594000000E+02  0.51100000000E-03 0. -1.
         11   -1    0    0    0    0 -0.00000000000E+00 -0.00000000000E+00 -0.45593999997E+02  0.45594000000E+02  0.51100000000E-03 0.  1.
    9900012    2    1    2    0    0  0.11605236725E+02  0.82047799840E+01 -0.12193602433E+02  0.72461444676E+02  0.69999836358E+02 0.  0.
         12    1    1    2    0    0 -0.11605236725E+02 -0.82047799840E+01  0.12193602433E+02  0.18726555324E+02  0.00000000000E+00 0. -1.
         11    1    3    3    0    0 -0.82953865956E+01  0.10206794150E+02 -0.28289627315E+01  0.13453442533E+02  0.51100000000E-03 0. -1.
        -11    1    3    3    0    0 -0.15290032122E+02 -0.91089637367E+01 -0.14218939488E+02  0.22780178732E+02  0.51100000000E-03 0.  1.
         12    1    3    3    0    0  0.35190655442E+02  0.71069495710E+01  0.48542997866E+01  0.36227823411E+02  0.00000000000E+00 0. -1.
</event>
<event>
 7    1  0.2873608E-013  0.7246157E+02  0.7816164E-02  0.1226708E+00
        -11   -1    0    0    0    0  0.00000000000E+00  0.00000000000E+00  0.45593999997E+02  0.45594000000E+02  0.51100000000E-03 0. -1.
         11   -1    0    0    0    0 -0.00000000000E+00 -0.00000000000E+00 -0.45593999997E+02  0.45594000000E+02  0.51100000000E-03 0.  1.
    9900012    2    1    2    0    0  0.16708475136E+02  0.11067724588E+01 -0.83833896419E+01  0.72461566583E+02  0.69999995165E+02 0.  0.
         12    1    1    2    0    0 -0.16708475136E+02 -0.11067724588E+01  0.83833896419E+01  0.18726433417E+02  0.00000000000E+00 0. -1.
         11    1    3    3    0    0  0.54549456749E+01  0.98216138294E+01  0.89467859219E+01  0.14361946565E+02  0.51100000000E-03 0. -1.
        -11    1    3    3    0    0  0.28315248581E+02  0.51855469340E+01  0.19351037851E+01  0.28851132147E+02  0.51100000000E-03 0.  1.
        -12    1    3    3    0    0 -0.17061719120E+02 -0.13900388305E+02 -0.19265279349E+02  0.29248487871E+02  0.00000000000E+00 0.  1.
</event>
<event>
 7    1  0.2873608E-013  0.7246155E+02  0.7816164E-02  0.1226708E+00
        -11   -1    0    0    0    0  0.00000000000E+00  0.00000000000E+00  0.45593999997E+02  0.45594000000E+02  0.51100000000E-03 0. -1.
         11   -1    0    0    0    0 -0.00000000000E+00 -0.00000000000E+00 -0.45593999997E+02  0.45594000000E+02  0.51100000000E-03 0.  1.
    9900012    2    1    2    0    0 -0.16699020252E+02  0.62376275969E+00  0.84518289311E+01  0.72461554271E+02  0.69999979127E+02 0.  0.
         12    1    1    2    0    0  0.16699020252E+02 -0.62376275969E+00 -0.84518289311E+01  0.18726445729E+02  0.00000000000E+00 0. -1.
         11    1    3    3    0    0  0.18326169940E+02 -0.53877852884E+01  0.11728459304E+02  0.22415028282E+02  0.51100000000E-03 0. -1.
        -11    1    3    3    0    0 -0.44525445264E+01 -0.23669831212E+01 -0.15325646149E+02  0.16133914342E+02  0.51100000000E-03 0.  1.
        -12    1    3    3    0    0 -0.30572645666E+02  0.83785311693E+01  0.12049015776E+02  0.33912611647E+02  0.00000000000E+00 0.  1.
</event>
<event>
 7    1  0.2873608E-013  0.7246196E+02  0.7816164E-02  0.1226707E+00
        -11   -1    0    0    0    0  0.00000000000E+00  0.00000000000E+00  0.45593999997E+02  0.45594000000E+02  0.51100000000E-03 0.  1.
         11   -1    0    0    0    0 -0.00000000000E+00 -0.00000000000E+00 -0.45593999997E+02  0.45594000000E+02  0.51100000000E-03 0. -1.
    9900012    2    1    2    0    0  0.10229263739E+01  0.29866140371E+01  0.18458017751E+02  0.72461957677E+02  0.70000504637E+02 0.  0.
         12    1    1    2    0    0 -0.10229263739E+01 -0.29866140371E+01 -0.18458017751E+02  0.18726042323E+02  0.00000000000E+00 0. -1.
         11    1    3    3    0    0 -0.79256181694E+01  0.10270614981E+02  0.11733724981E+02  0.17492319962E+02  0.51100000000E-03 0. -1.
        -11    1    3    3    0    0  0.48323118801E+01  0.17285762740E+02  0.19891169069E+02  0.26791928613E+02  0.51100000000E-03 0.  1.
         12    1    3    3    0    0  0.41162326633E+01 -0.24569763684E+02 -0.13166876299E+02  0.28177709103E+02  0.00000000000E+00 0. -1.
</event>
<event>
 7    1  0.2873608E-013  0.7246158E+02  0.7816164E-02  0.1226708E+00
        -11   -1    0    0    0    0  0.00000000000E+00  0.00000000000E+00  0.45593999997E+02  0.45594000000E+02  0.51100000000E-03 0.  1.
         11   -1    0    0    0    0 -0.00000000000E+00 -0.00000000000E+00 -0.45593999997E+02  0.45594000000E+02  0.51100000000E-03 0. -1.
    9900012    2    1    2    0    0 -0.22919545219E+00 -0.76672221697E+01  0.17083320533E+02  0.72461583718E+02  0.70000017486E+02 0.  0.
         12    1    1    2    0    0  0.22919545219E+00  0.76672221697E+01 -0.17083320533E+02  0.18726416282E+02  0.00000000000E+00 0. -1.
         11    1    3    3    0    0 -0.17013543718E+02  0.21096422450E+01 -0.20778588401E+01  0.17269301024E+02  0.51100000000E-03 0. -1.
        -11    1    3    3    0    0 -0.93081752301E+01 -0.19636295722E+02  0.69782803472E+00  0.21741968633E+02  0.51100000000E-03 0.  1.
        -12    1    3    3    0    0  0.26092523496E+02  0.98594313075E+01  0.18463351338E+02  0.33450314060E+02  0.00000000000E+00 0.  1.
</event>
<event>
 7    1  0.2873608E-013  0.7246159E+02  0.7816164E-02  0.1226708E+00
        -11   -1    0    0    0    0  0.00000000000E+00  0.00000000000E+00  0.45593999997E+02  0.45594000000E+02  0.51100000000E-03 0. -1.
         11   -1    0    0    0    0 -0.00000000000E+00 -0.00000000000E+00 -0.45593999997E+02  0.45594000000E+02  0.51100000000E-03 0.  1.
    9900012    2    1    2    0    0 -0.66148810997E+01 -0.16934800900E+02 -0.44871440770E+01  0.72461585622E+02  0.70000019967E+02 0.  0.
         12    1    1    2    0    0  0.66148810997E+01  0.16934800900E+02  0.44871440770E+01  0.18726414378E+02  0.00000000000E+00 0. -1.
         11    1    3    3    0    0 -0.30102320833E+01 -0.37954327986E+01 -0.47861891803E+01  0.68098762437E+01  0.51100000000E-03 0. -1.
        -11    1    3    3    0    0 -0.16012958535E+02 -0.53606266278E+01 -0.28623157793E+02  0.33233060665E+02  0.51100000000E-03 0.  1.
         12    1    3    3    0    0  0.12408309519E+02 -0.77787414735E+01  0.28922202896E+02  0.32418648713E+02  0.00000000000E+00 0. -1.
</event>
<event>
 7    1  0.2873608E-013  0.7246157E+02  0.7816164E-02  0.1226708E+00
        -11   -1    0    0    0    0  0.00000000000E+00  0.00000000000E+00  0.45593999997E+02  0.45594000000E+02  0.51100000000E-03 0. -1.
         11   -1    0    0    0    0 -0.00000000000E+00 -0.00000000000E+00 -0.45593999997E+02  0.45594000000E+02  0.51100000000E-03 0.  1.
    9900012    2    1    2    0    0 -0.31998692272E+01 -0.13061511490E+02  0.13032149232E+02  0.72461570573E+02  0.70000000363E+02 0.  0.
         12    1    1    2    0    0  0.31998692272E+01  0.13061511490E+02 -0.13032149232E+02  0.18726429427E+02  0.00000000000E+00 0. -1.
         11    1    3    3    0    0 -0.22572878854E+02 -0.28530737135E+02  0.31181697302E+01  0.36513844004E+02  0.51100000000E-03 0. -1.
        -11    1    3    3    0    0 -0.33751748163E+01 -0.10304728111E+01 -0.33562289026E+01  0.48701080032E+01  0.51100000000E-03 0.  1.
        -12    1    3    3    0    0  0.22748184443E+02  0.16499698456E+02  0.13270208404E+02  0.31077618565E+02  0.00000000000E+00 0.  1.
</event>
<event>
 7    1  0.2873608E-013  0.7246149E+02  0.7816164E-02  0.1226708E+00
        -11   -1    0    0    0    0  0.00000000000E+00  0.00000000000E+00  0.45593999997E+02  0.45594000000E+02  0.51100000000E-03 0. -1.
         11   -1    0    0    0    0 -0.00000000000E+00 -0.00000000000E+00 -0.45593999997E+02  0.45594000000E+02  0.51100000000E-03 0.  1.
    9900012    2    1    2    0    0 -0.63656825293E+01  0.40762215782E+01 -0.17133147021E+02  0.72461488759E+02  0.69999893785E+02 0.  0.
         12    1    1    2    0    0  0.63656825293E+01 -0.40762215782E+01  0.17133147021E+02  0.18726511241E+02  0.00000000000E+00 0. -1.
         11    1    3    3    0    0  0.20928941714E+01  0.11191022247E+02  0.16836098853E+02  0.20324207483E+02  0.51100000000E-03 0. -1.
        -11    1    3    3    0    0  0.89671422539E+00  0.19655835050E+01  0.79495237536E+01  0.82378724855E+01  0.51100000000E-03 0.  1.
        -12    1    3    3    0    0 -0.93552909261E+01 -0.90803841742E+01 -0.41918769628E+02  0.43899408791E+02  0.00000000000E+00 0.  1.
</event>
<event>
 7    1  0.2873608E-013  0.7246157E+02  0.7816164E-02  0.1226708E+00
        -11   -1    0    0    0    0  0.00000000000E+00  0.00000000000E+00  0.45593999997E+02  0.45594000000E+02  0.51100000000E-03 0.  1.
         11   -1    0    0    0    0 -0.00000000000E+00 -0.00000000000E+00 -0.45593999997E+02  0.45594000000E+02  0.51100000000E-03 0. -1.
    9900012    2    1    2    0    0 -0.18494615172E+02  0.29108456724E+01  0.39422977902E+00  0.72461568680E+02  0.69999997897E+02 0.  0.
         12    1    1    2    0    0  0.18494615172E+02 -0.29108456724E+01 -0.39422977902E+00  0.18726431320E+02  0.00000000000E+00 0. -1.
         11    1    3    3    0    0  0.12452579905E+02 -0.10668991342E+01  0.23747151893E+02  0.26835279826E+02  0.51100000000E-03 0. -1.
        -11    1    3    3    0    0 -0.75189971021E+01 -0.68253732178E+01  0.92930243589E+00  0.10197285926E+02  0.51100000000E-03 0.  1.
        -12    1    3    3    0    0 -0.23428197975E+02  0.10803118024E+02 -0.24282224549E+02  0.35429002928E+02  0.00000000000E+00 0.  1.
</event>
<event>
 7    1  0.2873608E-013  0.7246160E+02  0.7816164E-02  0.1226708E+00
        -11   -1    0    0    0    0  0.00000000000E+00  0.00000000000E+00  0.45593999997E+02  0.45594000000E+02  0.51100000000E-03 0.  1.
         11   -1    0    0    0    0 -0.00000000000E+00 -0.00000000000E+00 -0.45593999997E+02  0.45594000000E+02  0.51100000000E-03 0. -1.
    9900012    2    1    2    0    0  0.13001778438E+02  0.12128482857E+02 -0.58763722514E+01  0.72461599123E+02  0.70000037555E+02 0.  0.
         12    1    1    2    0    0 -0.13001778438E+02 -0.12128482857E+02  0.58763722514E+01  0.18726400877E+02  0.00000000000E+00 0. -1.
         11    1    3    3    0    0  0.85556510371E+01  0.17829545620E+02  0.26139801179E+02  0.32777752632E+02  0.51100000000E-03 0. -1.
        -11    1    3    3    0    0  0.56664235505E+01 -0.56893751316E+01 -0.39537346278E+00  0.80395065569E+01  0.51100000000E-03 0.  1.
         12    1    3    3    0    0 -0.12202961500E+01 -0.11687631898E-01 -0.31620799967E+02  0.31644339934E+02  0.00000000000E+00 0. -1.
</event>
<event>
 7    1  0.2873608E-013  0.7246154E+02  0.7816164E-02  0.1226708E+00
        -11   -1    0    0    0    0  0.00000000000E+00  0.00000000000E+00  0.45593999997E+02  0.45594000000E+02  0.51100000000E-03 0. -1.
         11   -1    0    0    0    0 -0.00000000000E+00 -0.00000000000E+00 -0.45593999997E+02  0.45594000000E+02  0.51100000000E-03 0.  1.
    9900012    2    1    2    0    0 -0.18150162675E+02  0.45195563758E+01  0.90849933936E+00  0.72461543688E+02  0.69999965340E+02 0.  0.
         12    1    1    2    0    0  0.18150162675E+02 -0.45195563758E+01 -0.90849933936E+00  0.18726456312E+02  0.00000000000E+00 0. -1.
         11    1    3    3    0    0 -0.57491782079E+01  0.10300954599E+02  0.36789934358E+01  0.12357091433E+02  0.51100000000E-03 0. -1.
        -11    1    3    3    0    0 -0.24594911781E+02 -0.31638180849E+01 -0.24621487726E+02  0.34944771977E+02  0.51100000000E-03 0.  1.
         12    1    3    3    0    0  0.12193927314E+02 -0.26175801381E+01  0.21850993630E+02  0.25159680278E+02  0.00000000000E+00 0. -1.
</event>
<event>
 7    1  0.2873608E-013  0.7246162E+02  0.7816164E-02  0.1226708E+00
        -11   -1    0    0    0    0  0.00000000000E+00  0.00000000000E+00  0.45593999997E+02  0.45594000000E+02  0.51100000000E-03 0.  1.
         11   -1    0    0    0    0 -0.00000000000E+00 -0.00000000000E+00 -0.45593999997E+02  0.45594000000E+02  0.51100000000E-03 0. -1.
    9900012    2    1    2    0    0 -0.16638633577E+02 -0.85834973651E+01 -0.39601800892E+00  0.72461617953E+02  0.70000062084E+02 0.  0.
         12    1    1    2    0    0  0.16638633577E+02  0.85834973651E+01  0.39601800892E+00  0.18726382047E+02  0.00000000000E+00 0. -1.
         11    1    3    3    0    0  0.40002834310E+01  0.44353554660E+01 -0.37003837245E+01  0.70261999408E+01  0.51100000000E-03 0. -1.
        -11    1    3    3    0    0 -0.26086968446E+02 -0.77611301045E+01  0.28332377052E+02  0.39287258149E+02  0.51100000000E-03 0.  1.
         12    1    3    3    0    0  0.54480514379E+01 -0.52577227266E+01 -0.25028011337E+02  0.26148159863E+02  0.00000000000E+00 0. -1.
</event>
<event>
 7    1  0.2873608E-013  0.7246156E+02  0.7816164E-02  0.1226708E+00
        -11   -1    0    0    0    0  0.00000000000E+00  0.00000000000E+00  0.45593999997E+02  0.45594000000E+02  0.51100000000E-03 0. -1.
         11   -1    0    0    0    0 -0.00000000000E+00 -0.00000000000E+00 -0.45593999997E+02  0.45594000000E+02  0.51100000000E-03 0.  1.
    9900012    2    1    2    0    0  0.39066565436E+01  0.87792180725E+01 -0.16073050184E+02  0.72461559400E+02  0.69999985808E+02 0.  0.
         12    1    1    2    0    0 -0.39066565436E+01 -0.87792180725E+01  0.16073050184E+02  0.18726440600E+02  0.00000000000E+00 0. -1.
         11    1    3    3    0    0 -0.11478054848E+02 -0.10788549185E+02 -0.60270651454E+01  0.16866062112E+02  0.51100000000E-03 0.  1.
        -11    1    3    3    0    0 -0.34312033530E+01  0.12649379352E+02 -0.26562835768E+02  0.29620334211E+02  0.51100000000E-03 0. -1.
         12    1    3    3    0    0  0.18815914745E+02  0.69183879052E+01  0.16516850729E+02  0.25975163078E+02  0.00000000000E+00 0. -1.
</event>
<event>
 7    1  0.2873608E-013  0.7246152E+02  0.7816164E-02  0.1226708E+00
        -11   -1    0    0    0    0  0.00000000000E+00  0.00000000000E+00  0.45593999997E+02  0.45594000000E+02  0.51100000000E-03 0. -1.
         11   -1    0    0    0    0 -0.00000000000E+00 -0.00000000000E+00 -0.45593999997E+02  0.45594000000E+02  0.51100000000E-03 0.  1.
    9900012    2    1    2    0    0  0.17878091147E+02 -0.55717524762E+01 -0.10219315889E+00  0.72461521095E+02  0.69999935909E+02 0.  0.
         12    1    1    2    0    0 -0.17878091147E+02  0.55717524762E+01  0.10219315889E+00  0.18726478905E+02  0.00000000000E+00 0. -1.
         11    1    3    3    0    0 -0.18564534956E+01 -0.19176005929E+01 -0.16033914062E+02  0.16254538198E+02  0.51100000000E-03 0.  1.
        -11    1    3    3    0    0  0.30371007013E+02 -0.17390698239E+02  0.42115350830E+01  0.35250127379E+02  0.51100000000E-03 0. -1.
        -12    1    3    3    0    0 -0.10636462370E+02  0.13736546356E+02  0.11720185821E+02  0.20956855518E+02  0.00000000000E+00 0.  1.
</event>
<event>
 7    1  0.2873608E-013  0.7246158E+02  0.7816164E-02  0.1226708E+00
        -11   -1    0    0    0    0  0.00000000000E+00  0.00000000000E+00  0.45593999997E+02  0.45594000000E+02  0.51100000000E-03 0.  1.
         11   -1    0    0    0    0 -0.00000000000E+00 -0.00000000000E+00 -0.45593999997E+02  0.45594000000E+02  0.51100000000E-03 0. -1.
    9900012    2    1    2    0    0  0.58564083096E+01 -0.90314279653E+01  0.15323656036E+02  0.72461584334E+02  0.70000018289E+02 0.  0.
         12    1    1    2    0    0 -0.58564083096E+01  0.90314279653E+01 -0.15323656036E+02  0.18726415666E+02  0.00000000000E+00 0. -1.
         11    1    3    3    0    0 -0.31767182444E+01  0.65650872959E+00  0.11963012577E+02  0.12395007571E+02  0.51100000000E-03 0. -1.
        -11    1    3    3    0    0  0.14255487692E+02  0.10876373516E+02  0.24338090423E+02  0.30230069069E+02  0.51100000000E-03 0.  1.
         12    1    3    3    0    0 -0.52223611379E+01 -0.20564310211E+02 -0.20977446963E+02  0.29836507694E+02  0.00000000000E+00 0. -1.
</event>
<event>
 7    1  0.2873608E-013  0.7246160E+02  0.7816164E-02  0.1226708E+00
        -11   -1    0    0    0    0  0.00000000000E+00  0.00000000000E+00  0.45593999997E+02  0.45594000000E+02  0.51100000000E-03 0.  1.
         11   -1    0    0    0    0 -0.00000000000E+00 -0.00000000000E+00 -0.45593999997E+02  0.45594000000E+02  0.51100000000E-03 0. -1.
    9900012    2    1    2    0    0  0.13809362777E+02 -0.72315850770E+01  0.10377082731E+02  0.72461597008E+02  0.70000034799E+02 0.  0.
         12    1    1    2    0    0 -0.13809362777E+02  0.72315850770E+01 -0.10377082731E+02  0.18726402992E+02  0.00000000000E+00 0. -1.
         11    1    3    3    0    0 -0.12078383258E+02 -0.94135016750E+01  0.28878614984E+01  0.15583359722E+02  0.51100000000E-03 0. -1.
        -11    1    3    3    0    0  0.18396242302E+02 -0.21089291531E+02  0.14400090572E+02  0.31472886059E+02  0.51100000000E-03 0.  1.
        -12    1    3    3    0    0  0.74915037330E+01  0.23271208129E+02 -0.69108693396E+01  0.25405351228E+02  0.00000000000E+00 0.  1.
</event>
<event>
 7    1  0.2873608E-013  0.7246173E+02  0.7816164E-02  0.1226708E+00
        -11   -1    0    0    0    0  0.00000000000E+00  0.00000000000E+00  0.45593999997E+02  0.45594000000E+02  0.51100000000E-03 0. -1.
         11   -1    0    0    0    0 -0.00000000000E+00 -0.00000000000E+00 -0.45593999997E+02  0.45594000000E+02  0.51100000000E-03 0.  1.
    9900012    2    1    2    0    0 -0.74046057864E+01 -0.12734216443E+02  0.11562215926E+02  0.72461727216E+02  0.70000204419E+02 0.  0.
         12    1    1    2    0    0  0.74046057864E+01  0.12734216443E+02 -0.11562215926E+02  0.18726272784E+02  0.00000000000E+00 0. -1.
         11    1    3    3    0    0 -0.17853339542E+02 -0.14775755473E+02  0.15360713015E+02  0.27803168654E+02  0.51100000000E-03 0. -1.
        -11    1    3    3    0    0 -0.70356725112E+01 -0.15853109196E+02  0.51423824948E+01  0.18090490785E+02  0.51100000000E-03 0.  1.
        -12    1    3    3    0    0  0.17484406267E+02  0.17894648226E+02 -0.89408795845E+01  0.26568067776E+02  0.00000000000E+00 0.  1.
</event>
<event>
 7    1  0.2873608E-013  0.7246155E+02  0.7816164E-02  0.1226708E+00
        -11   -1    0    0    0    0  0.00000000000E+00  0.00000000000E+00  0.45593999997E+02  0.45594000000E+02  0.51100000000E-03 0. -1.
         11   -1    0    0    0    0 -0.00000000000E+00 -0.00000000000E+00 -0.45593999997E+02  0.45594000000E+02  0.51100000000E-03 0.  1.
    9900012    2    1    2    0    0  0.64992160632E+01  0.17272730216E+02 -0.31769163032E+01  0.72461553040E+02  0.69999977523E+02 0.  0.
         12    1    1    2    0    0 -0.64992160632E+01 -0.17272730216E+02  0.31769163032E+01  0.18726446960E+02  0.00000000000E+00 0. -1.
         11    1    3    3    0    0 -0.16846165942E+02  0.82219939879E+01 -0.72882476554E+01  0.20112509695E+02  0.51100000000E-03 0. -1.
        -11    1    3    3    0    0 -0.65744929671E+01  0.18742136602E+02  0.62612241798E+01  0.20825334827E+02  0.51100000000E-03 0.  1.
         12    1    3    3    0    0  0.29919874972E+02 -0.96914003739E+01 -0.21498928276E+01  0.31523708518E+02  0.00000000000E+00 0. -1.
</event>
<event>
 7    1  0.2873608E-013  0.7246156E+02  0.7816164E-02  0.1226708E+00
        -11   -1    0    0    0    0  0.00000000000E+00  0.00000000000E+00  0.45593999997E+02  0.45594000000E+02  0.51100000000E-03 0. -1.
         11   -1    0    0    0    0 -0.00000000000E+00 -0.00000000000E+00 -0.45593999997E+02  0.45594000000E+02  0.51100000000E-03 0.  1.
    9900012    2    1    2    0    0  0.62421207999E+01  0.15020797779E+02 -0.92785238001E+01  0.72461563022E+02  0.69999990526E+02 0.  0.
         12    1    1    2    0    0 -0.62421207999E+01 -0.15020797779E+02  0.92785238001E+01  0.18726436978E+02  0.00000000000E+00 0. -1.
         11    1    3    3    0    0 -0.99139209856E+01 -0.78819427505E+01  0.12544507425E+02  0.17826259215E+02  0.51100000000E-03 0. -1.
        -11    1    3    3    0    0  0.13008891815E+02  0.14280640923E+02  0.98325255156E+01  0.21675943571E+02  0.51100000000E-03 0.  1.
        -12    1    3    3    0    0  0.31471499702E+01  0.86220996062E+01 -0.31655556740E+02  0.32959360235E+02  0.00000000000E+00 0.  1.
</event>
<event>
 7    1  0.2873608E-013  0.7246159E+02  0.7816164E-02  0.1226708E+00
        -11   -1    0    0    0    0  0.00000000000E+00  0.00000000000E+00  0.45593999997E+02  0.45594000000E+02  0.51100000000E-03 0.  1.
         11   -1    0    0    0    0 -0.00000000000E+00 -0.00000000000E+00 -0.45593999997E+02  0.45594000000E+02  0.51100000000E-03 0. -1.
    9900012    2    1    2    0    0 -0.18710332117E+02  0.60671144858E-01  0.77338628178E+00  0.72461592570E+02  0.70000029018E+02 0.  0.
         12    1    1    2    0    0  0.18710332117E+02 -0.60671144858E-01 -0.77338628178E+00  0.18726407430E+02  0.00000000000E+00 0. -1.
         11    1    3    3    0    0  0.13653486684E+02  0.41098104168E+01 -0.99621061948E+01  0.17394016223E+02  0.51100000000E-03 0. -1.
        -11    1    3    3    0    0  0.66622593206E+01 -0.11677177739E+02 -0.13381013009E+01  0.13510466112E+02  0.51100000000E-03 0.  1.
        -12    1    3    3    0    0 -0.39026078121E+02  0.76280384670E+01  0.12073593777E+02  0.41557110235E+02  0.00000000000E+00 0.  1.
</event>
<event>
 7    1  0.2873608E-013  0.7246156E+02  0.7816164E-02  0.1226708E+00
        -11   -1    0    0    0    0  0.00000000000E+00  0.00000000000E+00  0.45593999997E+02  0.45594000000E+02  0.51100000000E-03 0.  1.
         11   -1    0    0    0    0 -0.00000000000E+00 -0.00000000000E+00 -0.45593999997E+02  0.45594000000E+02  0.51100000000E-03 0. -1.
    9900012    2    1    2    0    0  0.15746852024E+02 -0.81632844863E+01  0.60063987172E+01  0.72461564466E+02  0.69999992407E+02 0.  0.
         12    1    1    2    0    0 -0.15746852024E+02  0.81632844863E+01 -0.60063987172E+01  0.18726435534E+02  0.00000000000E+00 0. -1.
         11    1    3    3    0    0  0.88002284331E+01  0.94104972280E+01 -0.73251726730E+01  0.14820918781E+02  0.51100000000E-03 0. -1.
        -11    1    3    3    0    0  0.29545653785E+02 -0.14235863130E+02  0.43051465332E+01  0.33077783232E+02  0.51100000000E-03 0.  1.
         12    1    3    3    0    0 -0.22599030194E+02 -0.33379185847E+01  0.90264248570E+01  0.24562862453E+02  0.00000000000E+00 0. -1.
</event>
<event>
 7    1  0.2873608E-013  0.7246155E+02  0.7816164E-02  0.1226708E+00
        -11   -1    0    0    0    0  0.00000000000E+00  0.00000000000E+00  0.45593999997E+02  0.45594000000E+02  0.51100000000E-03 0. -1.
         11   -1    0    0    0    0 -0.00000000000E+00 -0.00000000000E+00 -0.45593999997E+02  0.45594000000E+02  0.51100000000E-03 0.  1.
    9900012    2    1    2    0    0 -0.15933682728E+02  0.86973552602E+01  0.45993159423E+01  0.72461549698E+02  0.69999973169E+02 0.  0.
         12    1    1    2    0    0  0.15933682728E+02 -0.86973552602E+01 -0.45993159423E+01  0.18726450302E+02  0.00000000000E+00 0. -1.
         11    1    3    3    0    0 -0.21128352292E+02  0.15505751702E+02  0.13612691428E+02  0.29532033025E+02  0.51100000000E-03 0. -1.
        -11    1    3    3    0    0 -0.12121107121E+02  0.51332175397E+01  0.84064424227E+01  0.15618560581E+02  0.51100000000E-03 0.  1.
        -12    1    3    3    0    0  0.17315776685E+02 -0.11941613982E+02 -0.17419817908E+02  0.27310956092E+02  0.00000000000E+00 0.  1.
</event>
<event>
 7    1  0.2873608E-013  0.7246152E+02  0.7816164E-02  0.1226708E+00
        -11   -1    0    0    0    0  0.00000000000E+00  0.00000000000E+00  0.45593999997E+02  0.45594000000E+02  0.51100000000E-03 0.  1.
         11   -1    0    0    0    0 -0.00000000000E+00 -0.00000000000E+00 -0.45593999997E+02  0.45594000000E+02  0.51100000000E-03 0. -1.
    9900012    2    1    2    0    0 -0.26329247899E+01  0.15838585877E+02  0.96378349728E+01  0.72461522528E+02  0.69999937775E+02 0.  0.
         12    1    1    2    0    0  0.26329247899E+01 -0.15838585877E+02 -0.96378349728E+01  0.18726477472E+02  0.00000000000E+00 0. -1.
         11    1    3    3    0    0  0.73463826404E+00 -0.23026586146E+01  0.10735330214E+02  0.11004055850E+02  0.51100000000E-03 0. -1.
        -11    1    3    3    0    0 -0.64661812537E+01 -0.17891583055E+02  0.12562691730E+02  0.22797839108E+02  0.51100000000E-03 0.  1.
         12    1    3    3    0    0  0.30986181997E+01  0.36032827547E+02 -0.13660186971E+02  0.38659627570E+02  0.00000000000E+00 0. -1.
</event>
<event>
 7    1  0.2873608E-013  0.7246155E+02  0.7816164E-02  0.1226708E+00
        -11   -1    0    0    0    0  0.00000000000E+00  0.00000000000E+00  0.45593999997E+02  0.45594000000E+02  0.51100000000E-03 0.  1.
         11   -1    0    0    0    0 -0.00000000000E+00 -0.00000000000E+00 -0.45593999997E+02  0.45594000000E+02  0.51100000000E-03 0. -1.
    9900012    2    1    2    0    0 -0.37377591060E+01 -0.84941782893E+01  0.16265236867E+02  0.72461552438E+02  0.69999976739E+02 0.  0.
         12    1    1    2    0    0  0.37377591060E+01  0.84941782893E+01 -0.16265236867E+02  0.18726447562E+02  0.00000000000E+00 0. -1.
         11    1    3    3    0    0  0.12883254416E+01 -0.98243782013E+01  0.14819321517E+02  0.17826678882E+02  0.51100000000E-03 0. -1.
        -11    1    3    3    0    0 -0.12668587985E+02 -0.45353555301E+01  0.25439730438E+02  0.28779201801E+02  0.51100000000E-03 0.  1.
         12    1    3    3    0    0  0.76425034370E+01  0.58655554421E+01 -0.23993815087E+02  0.25855671754E+02  0.00000000000E+00 0. -1.
</event>
<event>
 7    1  0.2873608E-013  0.7246158E+02  0.7816164E-02  0.1226708E+00
        -11   -1    0    0    0    0  0.00000000000E+00  0.00000000000E+00  0.45593999997E+02  0.45594000000E+02  0.51100000000E-03 0.  1.
         11   -1    0    0    0    0 -0.00000000000E+00 -0.00000000000E+00 -0.45593999997E+02  0.45594000000E+02  0.51100000000E-03 0. -1.
    9900012    2    1    2    0    0 -0.12020468966E+02  0.30250561536E+01  0.14036952441E+02  0.72461583559E+02  0.70000017279E+02 0.  0.
         12    1    1    2    0    0  0.12020468966E+02 -0.30250561536E+01 -0.14036952441E+02  0.18726416441E+02  0.00000000000E+00 0. -1.
         11    1    3    3    0    0 -0.30505081612E+02  0.18637626077E+02  0.18210984258E+02  0.40119335212E+02  0.51100000000E-03 0. -1.
        -11    1    3    3    0    0  0.61756804067E+01  0.50286945008E+01 -0.20000915674E+01  0.82114044722E+01  0.51100000000E-03 0.  1.
        -12    1    3    3    0    0  0.12308932239E+02 -0.20641264424E+02 -0.21739402488E+01  0.24130843875E+02  0.00000000000E+00 0.  1.
</event>
<event>
 7    1  0.2873608E-013  0.7246200E+02  0.7816164E-02  0.1226707E+00
        -11   -1    0    0    0    0  0.00000000000E+00  0.00000000000E+00  0.45593999997E+02  0.45594000000E+02  0.51100000000E-03 0.  1.
         11   -1    0    0    0    0 -0.00000000000E+00 -0.00000000000E+00 -0.45593999997E+02  0.45594000000E+02  0.51100000000E-03 0. -1.
    9900012    2    1    2    0    0  0.50275324107E+01 -0.52325691757E+01  0.17262887193E+02  0.72461998383E+02  0.70000557663E+02 0.  0.
         12    1    1    2    0    0 -0.50275324107E+01  0.52325691757E+01 -0.17262887193E+02  0.18726001617E+02  0.00000000000E+00 0. -1.
         11    1    3    3    0    0  0.13129960473E+02 -0.55541778093E+01 -0.18897168413E+02  0.23671665075E+02  0.51100000000E-03 0. -1.
        -11    1    3    3    0    0  0.96313783019E+01 -0.51593714416E+01  0.39565742844E+01  0.11620543963E+02  0.51100000000E-03 0.  1.
        -12    1    3    3    0    0 -0.17733806364E+02  0.54809800752E+01  0.32203481321E+02  0.37169789345E+02  0.00000000000E+00 0.  1.
</event>
<event>
 7    1  0.2873608E-013  0.7246159E+02  0.7816164E-02  0.1226708E+00
        -11   -1    0    0    0    0  0.00000000000E+00  0.00000000000E+00  0.45593999997E+02  0.45594000000E+02  0.51100000000E-03 0. -1.
         11   -1    0    0    0    0 -0.00000000000E+00 -0.00000000000E+00 -0.45593999997E+02  0.45594000000E+02  0.51100000000E-03 0.  1.
    9900012    2    1    2    0    0  0.10492528293E+02  0.12970931087E+02 -0.85053028536E+01  0.72461591378E+02  0.70000027465E+02 0.  0.
         12    1    1    2    0    0 -0.10492528293E+02 -0.12970931087E+02  0.85053028536E+01  0.18726408622E+02  0.00000000000E+00 0. -1.
         11    1    3    3    0    0  0.18871831679E+02  0.84822312384E+01  0.22158265086E+02  0.30316381538E+02  0.51100000000E-03 0. -1.
        -11    1    3    3    0    0  0.90238840331E+01  0.96820320241E+00 -0.35714354021E+01  0.97531047147E+01  0.51100000000E-03 0.  1.
         12    1    3    3    0    0 -0.17403187419E+02  0.35204966466E+01 -0.27092132537E+02  0.32392105125E+02  0.00000000000E+00 0. -1.
</event>
<event>
 7    1  0.2873608E-013  0.7246157E+02  0.7816164E-02  0.1226708E+00
        -11   -1    0    0    0    0  0.00000000000E+00  0.00000000000E+00  0.45593999997E+02  0.45594000000E+02  0.51100000000E-03 0. -1.
         11   -1    0    0    0    0 -0.00000000000E+00 -0.00000000000E+00 -0.45593999997E+02  0.45594000000E+02  0.51100000000E-03 0.  1.
    9900012    2    1    2    0    0  0.16768489695E+02 -0.33417074765E+00 -0.83297823800E+01  0.72461569715E+02  0.69999999245E+02 0.  0.
         12    1    1    2    0    0 -0.16768489695E+02  0.33417074765E+00  0.83297823800E+01  0.18726430285E+02  0.00000000000E+00 0. -1.
         11    1    3    3    0    0  0.29668511220E+02  0.65777786522E+01 -0.24550481321E+02  0.39066787216E+02  0.51100000000E-03 0. -1.
        -11    1    3    3    0    0  0.12330199440E+00 -0.99990035341E+00 -0.64834529420E+01  0.65612625622E+01  0.51100000000E-03 0.  1.
        -12    1    3    3    0    0 -0.13023323520E+02 -0.59120490465E+01  0.22704151883E+02  0.26833519936E+02  0.00000000000E+00 0.  1.
</event>
<event>
 7    1  0.2873608E-013  0.7246158E+02  0.7816164E-02  0.1226708E+00
        -11   -1    0    0    0    0  0.00000000000E+00  0.00000000000E+00  0.45593999997E+02  0.45594000000E+02  0.51100000000E-03 0. -1.
         11   -1    0    0    0    0 -0.00000000000E+00 -0.00000000000E+00 -0.45593999997E+02  0.45594000000E+02  0.51100000000E-03 0.  1.
    9900012    2    1    2    0    0  0.10866131081E+02  0.13929382491E+02  0.62111401379E+01  0.72461581147E+02  0.70000014137E+02 0.  0.
         12    1    1    2    0    0 -0.10866131081E+02 -0.13929382491E+02 -0.62111401379E+01  0.18726418853E+02  0.00000000000E+00 0. -1.
         11    1    3    3    0    0  0.37656441351E+02  0.10289090208E+02 -0.14162013298E+01  0.39062495811E+02  0.51100000000E-03 0. -1.
        -11    1    3    3    0    0 -0.58709475409E+00  0.33474079104E+01  0.63029392382E+01  0.71607864980E+01  0.51100000000E-03 0.  1.
        -12    1    3    3    0    0 -0.26203215516E+02  0.29288437256E+00  0.13244022296E+01  0.26238298838E+02  0.00000000000E+00 0.  1.
</event>
<event>
 7    1  0.2873608E-013  0.7246159E+02  0.7816164E-02  0.1226708E+00
        -11   -1    0    0    0    0  0.00000000000E+00  0.00000000000E+00  0.45593999997E+02  0.45594000000E+02  0.51100000000E-03 0.  1.
         11   -1    0    0    0    0 -0.00000000000E+00 -0.00000000000E+00 -0.45593999997E+02  0.45594000000E+02  0.51100000000E-03 0. -1.
    9900012    2    1    2    0    0  0.35979404727E+01  0.16942592064E+02  0.71191169593E+01  0.72461590099E+02  0.70000025799E+02 0.  0.
         12    1    1    2    0    0 -0.35979404727E+01 -0.16942592064E+02 -0.71191169593E+01  0.18726409901E+02  0.00000000000E+00 0. -1.
         11    1    3    3    0    0 -0.11120536343E+01  0.11108197740E+02  0.11395083447E+02  0.15952324198E+02  0.51100000000E-03 0. -1.
        -11    1    3    3    0    0 -0.13363941345E+02  0.10252665987E+02  0.19855613437E+02  0.26037616506E+02  0.51100000000E-03 0.  1.
         12    1    3    3    0    0  0.18073935452E+02 -0.44182716630E+01 -0.24131579924E+02  0.30471649395E+02  0.00000000000E+00 0. -1.
</event>
<event>
 7    1  0.2873608E-013  0.7246159E+02  0.7816164E-02  0.1226708E+00
        -11   -1    0    0    0    0  0.00000000000E+00  0.00000000000E+00  0.45593999997E+02  0.45594000000E+02  0.51100000000E-03 0.  1.
         11   -1    0    0    0    0 -0.00000000000E+00 -0.00000000000E+00 -0.45593999997E+02  0.45594000000E+02  0.51100000000E-03 0. -1.
    9900012    2    1    2    0    0 -0.14951174584E+02  0.65986396717E+01  0.91432414698E+01  0.72461587329E+02  0.70000022190E+02 0.  0.
         12    1    1    2    0    0  0.14951174584E+02 -0.65986396717E+01 -0.91432414698E+01  0.18726412671E+02  0.00000000000E+00 0. -1.
         11    1    3    3    0    0 -0.10041300883E+02 -0.21197221979E+01 -0.50844785136E+01  0.11453072410E+02  0.51100000000E-03 0. -1.
        -11    1    3    3    0    0 -0.24734244783E+02  0.20315694296E+02  0.19450929186E+02  0.37454625164E+02  0.51100000000E-03 0.  1.
         12    1    3    3    0    0  0.19824371081E+02 -0.11597332427E+02 -0.52232092026E+01  0.23553889754E+02  0.00000000000E+00 0. -1.
</event>
<event>
 7    1  0.2873608E-013  0.7246159E+02  0.7816164E-02  0.1226708E+00
        -11   -1    0    0    0    0  0.00000000000E+00  0.00000000000E+00  0.45593999997E+02  0.45594000000E+02  0.51100000000E-03 0. -1.
         11   -1    0    0    0    0 -0.00000000000E+00 -0.00000000000E+00 -0.45593999997E+02  0.45594000000E+02  0.51100000000E-03 0.  1.
    9900012    2    1    2    0    0  0.96923820876E+01 -0.13150973769E+02 -0.91535829463E+01  0.72461589176E+02  0.70000024597E+02 0.  0.
         12    1    1    2    0    0 -0.96923820876E+01  0.13150973769E+02  0.91535829463E+01  0.18726410824E+02  0.00000000000E+00 0. -1.
         11    1    3    3    0    0  0.10866625361E+02 -0.63685065606E+01 -0.39184416735E+01  0.13190739477E+02  0.51100000000E-03 0. -1.
        -11    1    3    3    0    0  0.26274310647E+02 -0.14974168263E+02 -0.55975497242E+00  0.30246957549E+02  0.51100000000E-03 0.  1.
         12    1    3    3    0    0 -0.27448553920E+02  0.81917010547E+01 -0.46753863003E+01  0.29023892149E+02  0.00000000000E+00 0. -1.
</event>
<event>
 7    1  0.2873608E-013  0.7246158E+02  0.7816164E-02  0.1226708E+00
        -11   -1    0    0    0    0  0.00000000000E+00  0.00000000000E+00  0.45593999997E+02  0.45594000000E+02  0.51100000000E-03 0. -1.
         11   -1    0    0    0    0 -0.00000000000E+00 -0.00000000000E+00 -0.45593999997E+02  0.45594000000E+02  0.51100000000E-03 0.  1.
    9900012    2    1    2    0    0 -0.38575077719E+01  0.43486545632E+01 -0.17801336969E+02  0.72461581213E+02  0.70000014223E+02 0.  0.
         12    1    1    2    0    0  0.38575077719E+01 -0.43486545632E+01  0.17801336969E+02  0.18726418787E+02  0.00000000000E+00 0. -1.
         11    1    3    3    0    0  0.17806901020E+02  0.21070261969E+02 -0.12944036421E+02  0.30472770509E+02  0.51100000000E-03 0. -1.
        -11    1    3    3    0    0 -0.25925132822E+01 -0.99170359181E+01 -0.15904868294E+02  0.18921774817E+02  0.51100000000E-03 0.  1.
         12    1    3    3    0    0 -0.19071895510E+02 -0.68045714873E+01  0.11047567746E+02  0.23067035887E+02  0.00000000000E+00 0. -1.
</event>
<event>
 7    1  0.2873608E-013  0.7246156E+02  0.7816164E-02  0.1226708E+00
        -11   -1    0    0    0    0  0.00000000000E+00  0.00000000000E+00  0.45593999997E+02  0.45594000000E+02  0.51100000000E-03 0.  1.
         11   -1    0    0    0    0 -0.00000000000E+00 -0.00000000000E+00 -0.45593999997E+02  0.45594000000E+02  0.51100000000E-03 0. -1.
    9900012    2    1    2    0    0 -0.11881094010E+02 -0.13325755720E+02 -0.56518616774E+01  0.72461556109E+02  0.69999981521E+02 0.  0.
         12    1    1    2    0    0  0.11881094010E+02  0.13325755720E+02  0.56518616774E+01  0.18726443891E+02  0.00000000000E+00 0. -1.
         11    1    3    3    0    0 -0.17792079757E+02 -0.19435965481E+02 -0.23005304496E+02  0.34979406677E+02  0.51100000000E-03 0. -1.
        -11    1    3    3    0    0 -0.88134852419E+01 -0.53512963654E+01 -0.21041828868E+01  0.10523377822E+02  0.51100000000E-03 0.  1.
        -12    1    3    3    0    0  0.14724470989E+02  0.11461506127E+02  0.19457625706E+02  0.26958771610E+02  0.00000000000E+00 0.  1.
</event>
<event>
 7    1  0.2873608E-013  0.7246182E+02  0.7816164E-02  0.1226707E+00
        -11   -1    0    0    0    0  0.00000000000E+00  0.00000000000E+00  0.45593999997E+02  0.45594000000E+02  0.51100000000E-03 0. -1.
         11   -1    0    0    0    0 -0.00000000000E+00 -0.00000000000E+00 -0.45593999997E+02  0.45594000000E+02  0.51100000000E-03 0.  1.
    9900012    2    1    2    0    0 -0.14531359721E+01  0.31687207581E+01 -0.18398840451E+02  0.72461822458E+02  0.70000328489E+02 0.  0.
         12    1    1    2    0    0  0.14531359721E+01 -0.31687207581E+01  0.18398840451E+02  0.18726177542E+02  0.00000000000E+00 0. -1.
         11    1    3    3    0    0  0.76285984050E+01 -0.17681887782E+02  0.15778196189E+02  0.24895705341E+02  0.51100000000E-03 0. -1.
        -11    1    3    3    0    0 -0.29938989956E+01 -0.34425703036E+01  0.71338748878E+00  0.46177530749E+01  0.51100000000E-03 0.  1.
        -12    1    3    3    0    0 -0.60878353815E+01  0.24293178844E+02 -0.34890424129E+02  0.42948364042E+02  0.00000000000E+00 0.  1.
</event>
<event>
 7    1  0.2873608E-013  0.7246156E+02  0.7816164E-02  0.1226708E+00
        -11   -1    0    0    0    0  0.00000000000E+00  0.00000000000E+00  0.45593999997E+02  0.45594000000E+02  0.51100000000E-03 0.  1.
         11   -1    0    0    0    0 -0.00000000000E+00 -0.00000000000E+00 -0.45593999997E+02  0.45594000000E+02  0.51100000000E-03 0. -1.
    9900012    2    1    2    0    0 -0.14300782353E+02 -0.89704327026E+00  0.12056634324E+02  0.72461561637E+02  0.69999988723E+02 0.  0.
         12    1    1    2    0    0  0.14300782353E+02  0.89704327026E+00 -0.12056634324E+02  0.18726438363E+02  0.00000000000E+00 0. -1.
         11    1    3    3    0    0  0.97396361010E+01 -0.28485375963E+02  0.71585964617E+01  0.30943863021E+02  0.51100000000E-03 0.  1.
        -11    1    3    3    0    0 -0.17788658236E+02  0.66432602137E+01  0.50886393259E+01  0.19658675402E+02  0.51100000000E-03 0. -1.
        -12    1    3    3    0    0 -0.62517602181E+01  0.20945072479E+02 -0.19060146403E+00  0.21859023214E+02  0.00000000000E+00 0.  1.
</event>
<event>
 7    1  0.2873608E-013  0.7246160E+02  0.7816164E-02  0.1226708E+00
        -11   -1    0    0    0    0  0.00000000000E+00  0.00000000000E+00  0.45593999997E+02  0.45594000000E+02  0.51100000000E-03 0. -1.
         11   -1    0    0    0    0 -0.00000000000E+00 -0.00000000000E+00 -0.45593999997E+02  0.45594000000E+02  0.51100000000E-03 0.  1.
    9900012    2    1    2    0    0 -0.38806750054E+01 -0.17584357022E+02 -0.51389633496E+01  0.72461596323E+02  0.70000033907E+02 0.  0.
         12    1    1    2    0    0  0.38806750054E+01  0.17584357022E+02  0.51389633496E+01  0.18726403677E+02  0.00000000000E+00 0. -1.
         11    1    3    3    0    0 -0.26984500026E+02 -0.23785696275E+02  0.56677811925E+01  0.36414919097E+02  0.51100000000E-03 0. -1.
        -11    1    3    3    0    0 -0.51905907974E+01 -0.52722060175E+00 -0.73593217185E+00  0.52689458919E+01  0.51100000000E-03 0.  1.
        -12    1    3    3    0    0  0.28294415818E+02  0.67285598547E+01 -0.10070812370E+02  0.30777731333E+02  0.00000000000E+00 0.  1.
</event>
<event>
 7    1  0.2873608E-013  0.7246156E+02  0.7816164E-02  0.1226708E+00
        -11   -1    0    0    0    0  0.00000000000E+00  0.00000000000E+00  0.45593999997E+02  0.45594000000E+02  0.51100000000E-03 0. -1.
         11   -1    0    0    0    0 -0.00000000000E+00 -0.00000000000E+00 -0.45593999997E+02  0.45594000000E+02  0.51100000000E-03 0.  1.
    9900012    2    1    2    0    0 -0.14647606582E+02  0.58197841830E+01 -0.10112234323E+02  0.72461560148E+02  0.69999986783E+02 0.  0.
         12    1    1    2    0    0  0.14647606582E+02 -0.58197841830E+01  0.10112234323E+02  0.18726439852E+02  0.00000000000E+00 0. -1.
         11    1    3    3    0    0 -0.16547962145E+02 -0.70281706266E+01  0.81762566038E+01  0.19750478623E+02  0.51100000000E-03 0. -1.
        -11    1    3    3    0    0 -0.14605281058E+02  0.15314071224E+02  0.71062653516E+01  0.22323396241E+02  0.51100000000E-03 0.  1.
        -12    1    3    3    0    0  0.16505636622E+02 -0.24661164141E+01 -0.25394756279E+02  0.30387685284E+02  0.00000000000E+00 0.  1.
</event>
<event>
 7    1  0.2873608E-013  0.7246157E+02  0.7816164E-02  0.1226708E+00
        -11   -1    0    0    0    0  0.00000000000E+00  0.00000000000E+00  0.45593999997E+02  0.45594000000E+02  0.51100000000E-03 0. -1.
         11   -1    0    0    0    0 -0.00000000000E+00 -0.00000000000E+00 -0.45593999997E+02  0.45594000000E+02  0.51100000000E-03 0.  1.
    9900012    2    1    2    0    0  0.63886302797E+01 -0.69484837874E+01 -0.16173530011E+02  0.72461572236E+02  0.70000002529E+02 0.  0.
         12    1    1    2    0    0 -0.63886302797E+01  0.69484837874E+01  0.16173530011E+02  0.18726427764E+02  0.00000000000E+00 0. -1.
         11    1    3    3    0    0 -0.31265712668E+01 -0.83486072965E+01 -0.44159551627E+01  0.99486356822E+01  0.51100000000E-03 0. -1.
        -11    1    3    3    0    0 -0.25857229708E+01 -0.25138279594E+02 -0.19973058237E+02  0.32210900636E+02  0.51100000000E-03 0.  1.
        -12    1    3    3    0    0  0.12100924517E+02  0.26538403103E+02  0.82154833884E+01  0.30302035917E+02  0.00000000000E+00 0.  1.
</event>
<event>
 7    1  0.2873608E-013  0.7246155E+02  0.7816164E-02  0.1226708E+00
        -11   -1    0    0    0    0  0.00000000000E+00  0.00000000000E+00  0.45593999997E+02  0.45594000000E+02  0.51100000000E-03 0. -1.
         11   -1    0    0    0    0 -0.00000000000E+00 -0.00000000000E+00 -0.45593999997E+02  0.45594000000E+02  0.51100000000E-03 0.  1.
    9900012    2    1    2    0    0 -0.94267915282E+01 -0.15667451524E+02 -0.40430581920E+01  0.72461554653E+02  0.69999979625E+02 0.  0.
         12    1    1    2    0    0  0.94267915282E+01  0.15667451524E+02  0.40430581920E+01  0.18726445347E+02  0.00000000000E+00 0. -1.
         11    1    3    3    0    0 -0.20474815677E+02 -0.86548792288E+01  0.41724111914E+01  0.22617118006E+02  0.51100000000E-03 0. -1.
        -11    1    3    3    0    0  0.10370856102E+02  0.15544410773E+00 -0.27429875281E+02  0.29325362357E+02  0.51100000000E-03 0.  1.
         12    1    3    3    0    0  0.67716804715E+00 -0.71680164032E+01  0.19214405898E+02  0.20519074290E+02  0.00000000000E+00 0. -1.
</event>
<event>
 7    1  0.2873608E-013  0.7246170E+02  0.7816164E-02  0.1226708E+00
        -11   -1    0    0    0    0  0.00000000000E+00  0.00000000000E+00  0.45593999997E+02  0.45594000000E+02  0.51100000000E-03 0.  1.
         11   -1    0    0    0    0 -0.00000000000E+00 -0.00000000000E+00 -0.45593999997E+02  0.45594000000E+02  0.51100000000E-03 0. -1.
    9900012    2    1    2    0    0  0.99346235460E+01 -0.29361986359E+00  0.15871088622E+02  0.72461697330E+02  0.70000165488E+02 0.  0.
         12    1    1    2    0    0 -0.99346235460E+01  0.29361986359E+00 -0.15871088622E+02  0.18726302670E+02  0.00000000000E+00 0. -1.
         11    1    3    3    0    0 -0.47054315601E+01 -0.19504024088E+01 -0.97393799088E+01  0.10990936129E+02  0.51100000000E-03 0. -1.
        -11    1    3    3    0    0  0.88801590996E+00  0.24907451049E+02  0.10245300676E+01  0.24944325048E+02  0.51100000000E-03 0.  1.
        -12    1    3    3    0    0  0.13752039196E+02 -0.23250668503E+02  0.24585938463E+02  0.36526436153E+02  0.00000000000E+00 0.  1.
</event>
<event>
 7    1  0.2873608E-013  0.7246147E+02  0.7816164E-02  0.1226708E+00
        -11   -1    0    0    0    0  0.00000000000E+00  0.00000000000E+00  0.45593999997E+02  0.45594000000E+02  0.51100000000E-03 0. -1.
         11   -1    0    0    0    0 -0.00000000000E+00 -0.00000000000E+00 -0.45593999997E+02  0.45594000000E+02  0.51100000000E-03 0.  1.
    9900012    2    1    2    0    0  0.80314305101E+00  0.15914113213E+02  0.98376351073E+01  0.72461465280E+02  0.69999863199E+02 0.  0.
         12    1    1    2    0    0 -0.80314305101E+00 -0.15914113213E+02 -0.98376351073E+01  0.18726534720E+02  0.00000000000E+00 0. -1.
         11    1    3    3    0    0 -0.75850847389E+01  0.29849827755E+02  0.12980386750E+02  0.33422091017E+02  0.51100000000E-03 0. -1.
        -11    1    3    3    0    0  0.27240363721E+01  0.11319851534E+02 -0.58231629522E+01  0.13018012135E+02  0.51100000000E-03 0.  1.
        -12    1    3    3    0    0  0.56641914179E+01 -0.25255566076E+02  0.26804113094E+01  0.26021362128E+02  0.00000000000E+00 0.  1.
</event>
<event>
 7    1  0.2873608E-013  0.7246156E+02  0.7816164E-02  0.1226708E+00
        -11   -1    0    0    0    0  0.00000000000E+00  0.00000000000E+00  0.45593999997E+02  0.45594000000E+02  0.51100000000E-03 0.  1.
         11   -1    0    0    0    0 -0.00000000000E+00 -0.00000000000E+00 -0.45593999997E+02  0.45594000000E+02  0.51100000000E-03 0. -1.
    9900012    2    1    2    0    0 -0.10065031115E+01 -0.18699368887E+02 -0.59934194010E-02  0.72461561972E+02  0.69999989159E+02 0.  0.
         12    1    1    2    0    0  0.10065031115E+01  0.18699368887E+02  0.59934194010E-02  0.18726438028E+02  0.00000000000E+00 0. -1.
         11    1    3    3    0    0  0.30873018223E+01  0.16660595374E+02 -0.14782332907E+02  0.22486089860E+02  0.51100000000E-03 0. -1.
        -11    1    3    3    0    0  0.74148784623E+01 -0.17541767806E+02 -0.63133604325E+01  0.20063712533E+02  0.51100000000E-03 0.  1.
        -12    1    3    3    0    0 -0.11508683396E+02 -0.17818196455E+02  0.21089699920E+02  0.29911759579E+02  0.00000000000E+00 0.  1.
</event>
<event>
 7    1  0.2873608E-013  0.7246156E+02  0.7816164E-02  0.1226708E+00
        -11   -1    0    0    0    0  0.00000000000E+00  0.00000000000E+00  0.45593999997E+02  0.45594000000E+02  0.51100000000E-03 0. -1.
         11   -1    0    0    0    0 -0.00000000000E+00 -0.00000000000E+00 -0.45593999997E+02  0.45594000000E+02  0.51100000000E-03 0.  1.
    9900012    2    1    2    0    0  0.24487153038E+01  0.15147153279E+02 -0.10735326617E+02  0.72461556220E+02  0.69999981665E+02 0.  0.
         12    1    1    2    0    0 -0.24487153038E+01 -0.15147153279E+02  0.10735326617E+02  0.18726443780E+02  0.00000000000E+00 0. -1.
         11    1    3    3    0    0  0.56128376537E+01  0.45136457659E+01  0.29725749280E+01  0.77918641281E+01  0.51100000000E-03 0. -1.
        -11    1    3    3    0    0  0.19871331362E+02  0.25460777334E+02 -0.17946897163E+02  0.36948776848E+02  0.51100000000E-03 0.  1.
         12    1    3    3    0    0 -0.23035453712E+02 -0.14827269821E+02  0.42389956184E+01  0.27720915243E+02  0.00000000000E+00 0. -1.
</event>
<event>
 7    1  0.2873608E-013  0.7246156E+02  0.7816164E-02  0.1226708E+00
        -11   -1    0    0    0    0  0.00000000000E+00  0.00000000000E+00  0.45593999997E+02  0.45594000000E+02  0.51100000000E-03 0.  1.
         11   -1    0    0    0    0 -0.00000000000E+00 -0.00000000000E+00 -0.45593999997E+02  0.45594000000E+02  0.51100000000E-03 0. -1.
    9900012    2    1    2    0    0  0.32677997611E+01  0.18362962502E+02 -0.16740557817E+01  0.72461564945E+02  0.69999993031E+02 0.  0.
         12    1    1    2    0    0 -0.32677997611E+01 -0.18362962502E+02  0.16740557817E+01  0.18726435055E+02  0.00000000000E+00 0. -1.
         11    1    3    3    0    0 -0.17737995243E+02  0.30756193264E+01  0.20842745323E+02  0.27541168137E+02  0.51100000000E-03 0. -1.
        -11    1    3    3    0    0  0.11570156745E+02  0.14403903198E+02  0.20502472054E+01  0.18588826437E+02  0.51100000000E-03 0.  1.
         12    1    3    3    0    0  0.94356382591E+01  0.88343997786E+00 -0.24567048310E+02  0.26331570371E+02  0.00000000000E+00 0. -1.
</event>
<event>
 7    1  0.2873608E-013  0.7246159E+02  0.7816164E-02  0.1226708E+00
        -11   -1    0    0    0    0  0.00000000000E+00  0.00000000000E+00  0.45593999997E+02  0.45594000000E+02  0.51100000000E-03 0.  1.
         11   -1    0    0    0    0 -0.00000000000E+00 -0.00000000000E+00 -0.45593999997E+02  0.45594000000E+02  0.51100000000E-03 0. -1.
    9900012    2    1    2    0    0  0.16223413131E+02  0.66334639967E+01  0.65936781617E+01  0.72461586304E+02  0.70000020856E+02 0.  0.
         12    1    1    2    0    0 -0.16223413131E+02 -0.66334639967E+01 -0.65936781617E+01  0.18726413696E+02  0.00000000000E+00 0. -1.
         11    1    3    3    0    0 -0.41515406100E+01 -0.18378589071E+02 -0.26343977759E+01  0.19024927794E+02  0.51100000000E-03 0. -1.
        -11    1    3    3    0    0  0.20533775719E+01 -0.10918233838E+02 -0.25926450657E+01  0.11408154903E+02  0.51100000000E-03 0.  1.
         12    1    3    3    0    0  0.18321576169E+02  0.35930286905E+02  0.11820721003E+02  0.42028503607E+02  0.00000000000E+00 0. -1.
</event>
<event>
 7    1  0.2873608E-013  0.7246145E+02  0.7816164E-02  0.1226708E+00
        -11   -1    0    0    0    0  0.00000000000E+00  0.00000000000E+00  0.45593999997E+02  0.45594000000E+02  0.51100000000E-03 0. -1.
         11   -1    0    0    0    0 -0.00000000000E+00 -0.00000000000E+00 -0.45593999997E+02  0.45594000000E+02  0.51100000000E-03 0.  1.
    9900012    2    1    2    0    0 -0.59071648659E+01 -0.13133395270E+02 -0.11970915787E+02  0.72461454860E+02  0.69999849626E+02 0.  0.
         12    1    1    2    0    0  0.59071648659E+01  0.13133395270E+02  0.11970915787E+02  0.18726545140E+02  0.00000000000E+00 0. -1.
         11    1    3    3    0    0  0.72930907917E+01 -0.16076065913E+02  0.10132677406E+01  0.17682075114E+02  0.51100000000E-03 0. -1.
        -11    1    3    3    0    0 -0.82661291185E+01 -0.93030948722E+01 -0.30444278345E+02  0.32889672376E+02  0.51100000000E-03 0.  1.
         12    1    3    3    0    0 -0.49341265391E+01  0.12245765515E+02  0.17460094817E+02  0.21889707371E+02  0.00000000000E+00 0. -1.
</event>
<event>
 7    1  0.2873608E-013  0.7246160E+02  0.7816164E-02  0.1226708E+00
        -11   -1    0    0    0    0  0.00000000000E+00  0.00000000000E+00  0.45593999997E+02  0.45594000000E+02  0.51100000000E-03 0.  1.
         11   -1    0    0    0    0 -0.00000000000E+00 -0.00000000000E+00 -0.45593999997E+02  0.45594000000E+02  0.51100000000E-03 0. -1.
    9900012    2    1    2    0    0  0.28330179554E+01 -0.17050623440E+02  0.72061352753E+01  0.72461597889E+02  0.70000035947E+02 0.  0.
         12    1    1    2    0    0 -0.28330179554E+01  0.17050623440E+02 -0.72061352753E+01  0.18726402111E+02  0.00000000000E+00 0. -1.
         11    1    3    3    0    0 -0.79084477120E+01  0.17573903399E+02 -0.11659595405E+02  0.22524026975E+02  0.51100000000E-03 0. -1.
        -11    1    3    3    0    0  0.12089695899E+01 -0.25533834304E+01 -0.70641226016E+01  0.76081011300E+01  0.51100000000E-03 0.  1.
        -12    1    3    3    0    0  0.95324960774E+01 -0.32071143408E+02  0.25929853282E+02  0.42329469784E+02  0.00000000000E+00 0.  1.
</event>
<event>
 7    1  0.2873608E-013  0.7246150E+02  0.7816164E-02  0.1226708E+00
        -11   -1    0    0    0    0  0.00000000000E+00  0.00000000000E+00  0.45593999997E+02  0.45594000000E+02  0.51100000000E-03 0. -1.
         11   -1    0    0    0    0 -0.00000000000E+00 -0.00000000000E+00 -0.45593999997E+02  0.45594000000E+02  0.51100000000E-03 0.  1.
    9900012    2    1    2    0    0 -0.11081117834E+02  0.71740324641E+01 -0.13282468726E+02  0.72461497665E+02  0.69999905387E+02 0.  0.
         12    1    1    2    0    0  0.11081117834E+02 -0.71740324641E+01  0.13282468726E+02  0.18726502335E+02  0.00000000000E+00 0. -1.
         11    1    3    3    0    0  0.13292599489E+02  0.80578994954E+01  0.77064782723E+01  0.17349719107E+02  0.51100000000E-03 0. -1.
        -11    1    3    3    0    0 -0.15660976797E+01 -0.19952281260E+02 -0.14416203156E+02  0.24665220516E+02  0.51100000000E-03 0.  1.
         12    1    3    3    0    0 -0.22807619643E+02  0.19068414229E+02 -0.65727438423E+01  0.30446558042E+02  0.00000000000E+00 0. -1.
</event>
<event>
 7    1  0.2873608E-013  0.7246156E+02  0.7816164E-02  0.1226708E+00
        -11   -1    0    0    0    0  0.00000000000E+00  0.00000000000E+00  0.45593999997E+02  0.45594000000E+02  0.51100000000E-03 0.  1.
         11   -1    0    0    0    0 -0.00000000000E+00 -0.00000000000E+00 -0.45593999997E+02  0.45594000000E+02  0.51100000000E-03 0. -1.
    9900012    2    1    2    0    0 -0.16715378352E+02 -0.80065027814E+01  0.26779520664E+01  0.72461564474E+02  0.69999992418E+02 0.  0.
         12    1    1    2    0    0  0.16715378352E+02  0.80065027814E+01 -0.26779520664E+01  0.18726435526E+02  0.00000000000E+00 0. -1.
         11    1    3    3    0    0 -0.14414107084E+02 -0.26143134140E+01  0.91077281558E+01  0.17249690724E+02  0.51100000000E-03 0. -1.
        -11    1    3    3    0    0 -0.23694401995E+01 -0.15123487289E+02 -0.27796745617E+02  0.31733155875E+02  0.51100000000E-03 0.  1.
         12    1    3    3    0    0  0.68168931388E-01  0.97312979220E+01  0.21366969528E+02  0.23478717875E+02  0.00000000000E+00 0. -1.
</event>
<event>
 7    1  0.3974817E-013  0.7246153E+02  0.7816164E-02  0.1226708E+00
        -11   -1    0    0    0    0  0.00000000000E+00  0.00000000000E+00  0.45593999997E+02  0.45594000000E+02  0.51100000000E-03 0. -1.
         11   -1    0    0    0    0 -0.00000000000E+00 -0.00000000000E+00 -0.45593999997E+02  0.45594000000E+02  0.51100000000E-03 0.  1.
    9900012    2    1    2    0    0 -0.80934051896E+01  0.13146043575E+02 -0.10599948590E+02  0.72461532652E+02  0.69999950964E+02 0.  0.
         12    1    1    2    0    0  0.80934051896E+01 -0.13146043575E+02  0.10599948590E+02  0.18726467348E+02  0.00000000000E+00 0. -1.
         11    1    3    3    0    0 -0.63388087670E+01 -0.54183271874E+00  0.23036334052E-01  0.63619659079E+01  0.51100000000E-03 0. -1.
        -11    1    3    3    0    0 -0.21982328311E+02 -0.11332818883E+02 -0.20840552572E+02  0.32341678583E+02  0.51100000000E-03 0.  1.
         12    1    3    3    0    0  0.20227731889E+02  0.25020695176E+02  0.10217567648E+02  0.33757888161E+02  0.00000000000E+00 0. -1.
</event>
<event>
 7    1  0.2873608E-013  0.7246156E+02  0.7816164E-02  0.1226708E+00
        -11   -1    0    0    0    0  0.00000000000E+00  0.00000000000E+00  0.45593999997E+02  0.45594000000E+02  0.51100000000E-03 0.  1.
         11   -1    0    0    0    0 -0.00000000000E+00 -0.00000000000E+00 -0.45593999997E+02  0.45594000000E+02  0.51100000000E-03 0. -1.
    9900012    2    1    2    0    0  0.78927887607E+01  0.13453414485E+02 -0.10362871252E+02  0.72461559433E+02  0.69999985851E+02 0.  0.
         12    1    1    2    0    0 -0.78927887607E+01 -0.13453414485E+02  0.10362871252E+02  0.18726440567E+02  0.00000000000E+00 0. -1.
         11    1    3    3    0    0  0.88563821032E+01 -0.48148511970E+01  0.12615239165E+02  0.16148144025E+02  0.51100000000E-03 0. -1.
        -11    1    3    3    0    0 -0.18937435773E+02  0.92040842622E+00  0.41787993338E+01  0.19414839414E+02  0.51100000000E-03 0.  1.
         12    1    3    3    0    0  0.17973842431E+02  0.17347857256E+02 -0.27156909751E+02  0.36898575993E+02  0.00000000000E+00 0. -1.
</event>
<event>
 7    1  0.2873608E-013  0.7246158E+02  0.7816164E-02  0.1226708E+00
        -11   -1    0    0    0    0  0.00000000000E+00  0.00000000000E+00  0.45593999997E+02  0.45594000000E+02  0.51100000000E-03 0.  1.
         11   -1    0    0    0    0 -0.00000000000E+00 -0.00000000000E+00 -0.45593999997E+02  0.45594000000E+02  0.51100000000E-03 0. -1.
    9900012    2    1    2    0    0 -0.15345751702E+02 -0.10708704568E+02  0.71446544892E+00  0.72461577231E+02  0.70000009036E+02 0.  0.
         12    1    1    2    0    0  0.15345751702E+02  0.10708704568E+02 -0.71446544892E+00  0.18726422769E+02  0.00000000000E+00 0. -1.
         11    1    3    3    0    0 -0.26511100865E+02 -0.60696245463E+01  0.19241444440E+02  0.33315341745E+02  0.51100000000E-03 0. -1.
        -11    1    3    3    0    0 -0.61151647919E+01 -0.13661296975E+02 -0.87561663590E+01  0.17340609131E+02  0.51100000000E-03 0.  1.
        -12    1    3    3    0    0  0.17280513954E+02  0.90222169531E+01 -0.97708126316E+01  0.21805626355E+02  0.00000000000E+00 0.  1.
</event>
<event>
 7    1  0.2873608E-013  0.7246157E+02  0.7816164E-02  0.1226708E+00
        -11   -1    0    0    0    0  0.00000000000E+00  0.00000000000E+00  0.45593999997E+02  0.45594000000E+02  0.51100000000E-03 0.  1.
         11   -1    0    0    0    0 -0.00000000000E+00 -0.00000000000E+00 -0.45593999997E+02  0.45594000000E+02  0.51100000000E-03 0. -1.
    9900012    2    1    2    0    0 -0.42788638511E+01 -0.14843374763E+02  0.10585119728E+02  0.72461569217E+02  0.69999998596E+02 0.  0.
         12    1    1    2    0    0  0.42788638511E+01  0.14843374763E+02 -0.10585119728E+02  0.18726430783E+02  0.00000000000E+00 0. -1.
         11    1    3    3    0    0 -0.14544155121E+01  0.12042739761E+01 -0.47722048419E+00  0.19476498512E+01  0.51100000000E-03 0. -1.
        -11    1    3    3    0    0 -0.33272558365E+01  0.28142908571E+01  0.37655506224E+02  0.37906833338E+02  0.51100000000E-03 0.  1.
         12    1    3    3    0    0  0.50280749750E+00 -0.18861939596E+02 -0.26593166012E+02  0.32607086028E+02  0.00000000000E+00 0. -1.
</event>
<event>
 7    1  0.2873608E-013  0.7246157E+02  0.7816164E-02  0.1226708E+00
        -11   -1    0    0    0    0  0.00000000000E+00  0.00000000000E+00  0.45593999997E+02  0.45594000000E+02  0.51100000000E-03 0.  1.
         11   -1    0    0    0    0 -0.00000000000E+00 -0.00000000000E+00 -0.45593999997E+02  0.45594000000E+02  0.51100000000E-03 0. -1.
    9900012    2    1    2    0    0 -0.17953307445E+02 -0.19776664410E+01  0.49443491382E+01  0.72461574789E+02  0.70000005855E+02 0.  0.
         12    1    1    2    0    0  0.17953307445E+02  0.19776664410E+01 -0.49443491382E+01  0.18726425211E+02  0.00000000000E+00 0. -1.
         11    1    3    3    0    0 -0.81935912241E+01 -0.23065769371E+01  0.19879548859E+01  0.87411211640E+01  0.51100000000E-03 0. -1.
        -11    1    3    3    0    0 -0.11195085686E+02  0.26338497318E+02  0.17835174221E+02  0.33721503885E+02  0.51100000000E-03 0.  1.
         12    1    3    3    0    0  0.14353694647E+01 -0.26009586822E+02 -0.14878779969E+02  0.29998949740E+02  0.00000000000E+00 0. -1.
</event>
<event>
 7    1  0.2873608E-013  0.7246182E+02  0.7816164E-02  0.1226707E+00
        -11   -1    0    0    0    0  0.00000000000E+00  0.00000000000E+00  0.45593999997E+02  0.45594000000E+02  0.51100000000E-03 0.  1.
         11   -1    0    0    0    0 -0.00000000000E+00 -0.00000000000E+00 -0.45593999997E+02  0.45594000000E+02  0.51100000000E-03 0. -1.
    9900012    2    1    2    0    0 -0.53369624245E+01  0.74009195954E+00  0.17934299367E+02  0.72461815183E+02  0.70000319012E+02 0.  0.
         12    1    1    2    0    0  0.53369624245E+01 -0.74009195954E+00 -0.17934299367E+02  0.18726184817E+02  0.00000000000E+00 0. -1.
         11    1    3    3    0    0 -0.85391316280E+01 -0.82135459807E+01 -0.11154945849E+02  0.16273042853E+02  0.51100000000E-03 0. -1.
        -11    1    3    3    0    0  0.15198035156E+02 -0.25555506257E+01 -0.66403338504E+01  0.16781094884E+02  0.51100000000E-03 0.  1.
        -12    1    3    3    0    0 -0.11995865953E+02  0.11509188566E+02  0.35729579066E+02  0.39407677446E+02  0.00000000000E+00 0.  1.
</event>
<event>
 7    1  0.2873608E-013  0.7246154E+02  0.7816164E-02  0.1226708E+00
        -11   -1    0    0    0    0  0.00000000000E+00  0.00000000000E+00  0.45593999997E+02  0.45594000000E+02  0.51100000000E-03 0.  1.
         11   -1    0    0    0    0 -0.00000000000E+00 -0.00000000000E+00 -0.45593999997E+02  0.45594000000E+02  0.51100000000E-03 0. -1.
    9900012    2    1    2    0    0  0.58394267509E+01 -0.67810210286E+00  0.17779806051E+02  0.72461541967E+02  0.69999963099E+02 0.  0.
         12    1    1    2    0    0 -0.58394267509E+01  0.67810210286E+00 -0.17779806051E+02  0.18726458033E+02  0.00000000000E+00 0. -1.
         11    1    3    3    0    0 -0.19893431240E+02 -0.79238952495E+01 -0.13400829704E+02  0.25261016596E+02  0.51100000000E-03 0. -1.
        -11    1    3    3    0    0  0.10221321522E+02 -0.13738442839E+00 -0.14494507496E+01  0.10324494945E+02  0.51100000000E-03 0.  1.
        -12    1    3    3    0    0  0.15511536469E+02  0.73831775750E+01  0.32630086504E+02  0.36876030427E+02  0.00000000000E+00 0.  1.
</event>
<event>
 7    1  0.2873608E-013  0.7246160E+02  0.7816164E-02  0.1226708E+00
        -11   -1    0    0    0    0  0.00000000000E+00  0.00000000000E+00  0.45593999997E+02  0.45594000000E+02  0.51100000000E-03 0.  1.
         11   -1    0    0    0    0 -0.00000000000E+00 -0.00000000000E+00 -0.45593999997E+02  0.45594000000E+02  0.51100000000E-03 0. -1.
    9900012    2    1    2    0    0  0.10701519442E+02 -0.11525137421E+02  0.10164975510E+02  0.72461600505E+02  0.70000039355E+02 0.  0.
         12    1    1    2    0    0 -0.10701519442E+02  0.11525137421E+02 -0.10164975510E+02  0.18726399495E+02  0.00000000000E+00 0. -1.
         11    1    3    3    0    0  0.10745574769E+02  0.10326750623E+02 -0.14365282329E+02  0.20699528792E+02  0.51100000000E-03 0. -1.
        -11    1    3    3    0    0 -0.28890320127E+01  0.69750609570E+01 -0.60245410504E+01  0.96588341146E+01  0.51100000000E-03 0.  1.
        -12    1    3    3    0    0  0.28449766856E+01 -0.28826949002E+02  0.30554798890E+02  0.42103237598E+02  0.00000000000E+00 0.  1.
</event>
<event>
 7    1  0.2873608E-013  0.7246156E+02  0.7816164E-02  0.1226708E+00
        -11   -1    0    0    0    0  0.00000000000E+00  0.00000000000E+00  0.45593999997E+02  0.45594000000E+02  0.51100000000E-03 0.  1.
         11   -1    0    0    0    0 -0.00000000000E+00 -0.00000000000E+00 -0.45593999997E+02  0.45594000000E+02  0.51100000000E-03 0. -1.
    9900012    2    1    2    0    0 -0.21645658411E+00 -0.73636262877E+01  0.17216557335E+02  0.72461556343E+02  0.69999981826E+02 0.  0.
         12    1    1    2    0    0  0.21645658411E+00  0.73636262877E+01 -0.17216557335E+02  0.18726443657E+02  0.00000000000E+00 0. -1.
         11    1    3    3    0    0  0.20471678982E+02 -0.59382111572E+01  0.79437787777E+01  0.22747650728E+02  0.51100000000E-03 0. -1.
        -11    1    3    3    0    0 -0.12759333986E+02 -0.12467357980E+02  0.23848926740E+02  0.29782661494E+02  0.51100000000E-03 0.  1.
         12    1    3    3    0    0 -0.79288015803E+01  0.11041942849E+02 -0.14576148183E+02  0.19931244121E+02  0.00000000000E+00 0. -1.
</event>
<event>
 7    1  0.2873608E-013  0.7246154E+02  0.7816164E-02  0.1226708E+00
        -11   -1    0    0    0    0  0.00000000000E+00  0.00000000000E+00  0.45593999997E+02  0.45594000000E+02  0.51100000000E-03 0. -1.
         11   -1    0    0    0    0 -0.00000000000E+00 -0.00000000000E+00 -0.45593999997E+02  0.45594000000E+02  0.51100000000E-03 0.  1.
    9900012    2    1    2    0    0 -0.12994283651E+02  0.12066634907E+02  0.60187481906E+01  0.72461537030E+02  0.69999956667E+02 0.  0.
         12    1    1    2    0    0  0.12994283651E+02 -0.12066634907E+02 -0.60187481906E+01  0.18726462970E+02  0.00000000000E+00 0. -1.
         11    1    3    3    0    0  0.10343093486E+02  0.23078942250E+01 -0.45094787158E+01  0.11517002959E+02  0.51100000000E-03 0. -1.
        -11    1    3    3    0    0  0.39877403609E+01 -0.19375561532E+02  0.62352724468E+00  0.19791494242E+02  0.51100000000E-03 0.  1.
         12    1    3    3    0    0 -0.27325117498E+02  0.29134302213E+02  0.99046996617E+01  0.41153039829E+02  0.00000000000E+00 0. -1.
</event>
<event>
 7    1  0.2873608E-013  0.7246158E+02  0.7816164E-02  0.1226708E+00
        -11   -1    0    0    0    0  0.00000000000E+00  0.00000000000E+00  0.45593999997E+02  0.45594000000E+02  0.51100000000E-03 0. -1.
         11   -1    0    0    0    0 -0.00000000000E+00 -0.00000000000E+00 -0.45593999997E+02  0.45594000000E+02  0.51100000000E-03 0.  1.
    9900012    2    1    2    0    0 -0.14654773261E+02  0.11533888827E+02 -0.16988241719E+01  0.72461575505E+02  0.70000006788E+02 0.  0.
         12    1    1    2    0    0  0.14654773261E+02 -0.11533888827E+02  0.16988241719E+01  0.18726424495E+02  0.00000000000E+00 0. -1.
         11    1    3    3    0    0 -0.12429533876E+02 -0.69661632581E+01 -0.51370418054E+01  0.15146284748E+02  0.51100000000E-03 0. -1.
        -11    1    3    3    0    0 -0.19398987524E+02 -0.79835306047E+01 -0.97174439590E+01  0.23118957486E+02  0.51100000000E-03 0.  1.
         12    1    3    3    0    0  0.17173748139E+02  0.26483582690E+02  0.13155661593E+02  0.34196333271E+02  0.00000000000E+00 0. -1.
</event>
<event>
 7    1  0.2873608E-013  0.7246205E+02  0.7816164E-02  0.1226707E+00
        -11   -1    0    0    0    0  0.00000000000E+00  0.00000000000E+00  0.45593999997E+02  0.45594000000E+02  0.51100000000E-03 0. -1.
         11   -1    0    0    0    0 -0.00000000000E+00 -0.00000000000E+00 -0.45593999997E+02  0.45594000000E+02  0.51100000000E-03 0.  1.
    9900012    2    1    2    0    0 -0.46592786665E+01  0.13860441356E+02  0.11697877930E+02  0.72462053820E+02  0.70000629879E+02 0.  0.
         12    1    1    2    0    0  0.46592786665E+01 -0.13860441356E+02 -0.11697877930E+02  0.18725946180E+02  0.00000000000E+00 0. -1.
         11    1    3    3    0    0  0.19017033507E+01  0.15218332518E+02  0.37283715227E+01  0.15783373364E+02  0.51100000000E-03 0. -1.
        -11    1    3    3    0    0  0.97893187377E+01  0.21735968524E+02 -0.67599132067E+01  0.24778610047E+02  0.51100000000E-03 0.  1.
         12    1    3    3    0    0 -0.16350300755E+02 -0.23093859686E+02  0.14729419614E+02  0.31900070410E+02  0.00000000000E+00 0. -1.
</event>
<event>
 7    1  0.2873608E-013  0.7246156E+02  0.7816164E-02  0.1226708E+00
        -11   -1    0    0    0    0  0.00000000000E+00  0.00000000000E+00  0.45593999997E+02  0.45594000000E+02  0.51100000000E-03 0. -1.
         11   -1    0    0    0    0 -0.00000000000E+00 -0.00000000000E+00 -0.45593999997E+02  0.45594000000E+02  0.51100000000E-03 0.  1.
    9900012    2    1    2    0    0  0.11367527110E+02  0.41537946795E+01 -0.14290025552E+02  0.72461561120E+02  0.69999988049E+02 0.  0.
         12    1    1    2    0    0 -0.11367527110E+02 -0.41537946795E+01  0.14290025552E+02  0.18726438880E+02  0.00000000000E+00 0. -1.
         11    1    3    3    0    0 -0.97826708952E+01  0.10542979094E+02  0.32049767499E+01  0.14735227662E+02  0.51100000000E-03 0. -1.
        -11    1    3    3    0    0  0.17319670691E+02  0.20877721118E+02 -0.11934502135E+02  0.29635832592E+02  0.51100000000E-03 0.  1.
        -12    1    3    3    0    0  0.38305273146E+01 -0.27266905533E+02 -0.55605001669E+01  0.28090500867E+02  0.00000000000E+00 0.  1.
</event>
<event>
 7    1  0.2873608E-013  0.7246156E+02  0.7816164E-02  0.1226708E+00
        -11   -1    0    0    0    0  0.00000000000E+00  0.00000000000E+00  0.45593999997E+02  0.45594000000E+02  0.51100000000E-03 0.  1.
         11   -1    0    0    0    0 -0.00000000000E+00 -0.00000000000E+00 -0.45593999997E+02  0.45594000000E+02  0.51100000000E-03 0. -1.
    9900012    2    1    2    0    0 -0.62878661944E+01 -0.57478777788E+01  0.16676450789E+02  0.72461564911E+02  0.69999992987E+02 0.  0.
         12    1    1    2    0    0  0.62878661944E+01  0.57478777788E+01 -0.16676450789E+02  0.18726435089E+02  0.00000000000E+00 0. -1.
         11    1    3    3    0    0  0.20829814872E+02  0.12680874398E+02  0.15285046000E+02  0.28780521096E+02  0.51100000000E-03 0. -1.
        -11    1    3    3    0    0 -0.10128480693E+02 -0.14472810597E+02 -0.12283678992E+02  0.21515974009E+02  0.51100000000E-03 0.  1.
        -12    1    3    3    0    0 -0.16989200373E+02 -0.39559415796E+01  0.13675083781E+02  0.22165069806E+02  0.00000000000E+00 0.  1.
</event>
<event>
 7    1  0.2873608E-013  0.7246159E+02  0.7816164E-02  0.1226708E+00
        -11   -1    0    0    0    0  0.00000000000E+00  0.00000000000E+00  0.45593999997E+02  0.45594000000E+02  0.51100000000E-03 0.  1.
         11   -1    0    0    0    0 -0.00000000000E+00 -0.00000000000E+00 -0.45593999997E+02  0.45594000000E+02  0.51100000000E-03 0. -1.
    9900012    2    1    2    0    0  0.74818232326E+01  0.44870466094E+01  0.16570070906E+02  0.72461587744E+02  0.70000022732E+02 0.  0.
         12    1    1    2    0    0 -0.74818232326E+01 -0.44870466094E+01 -0.16570070906E+02  0.18726412256E+02  0.00000000000E+00 0. -1.
         11    1    3    3    0    0 -0.14085468489E+00  0.40426161643E+01 -0.16910599443E+01  0.43843208699E+01  0.51100000000E-03 0. -1.
        -11    1    3    3    0    0  0.35971811734E+02  0.21463104060E+01  0.38815495002E+01  0.36244231466E+02  0.51100000000E-03 0.  1.
         12    1    3    3    0    0 -0.28349133816E+02 -0.17018799609E+01  0.14379581350E+02  0.31833035409E+02  0.00000000000E+00 0. -1.
</event>
<event>
 7    1  0.2873608E-013  0.7246159E+02  0.7816164E-02  0.1226708E+00
        -11   -1    0    0    0    0  0.00000000000E+00  0.00000000000E+00  0.45593999997E+02  0.45594000000E+02  0.51100000000E-03 0. -1.
         11   -1    0    0    0    0 -0.00000000000E+00 -0.00000000000E+00 -0.45593999997E+02  0.45594000000E+02  0.51100000000E-03 0.  1.
    9900012    2    1    2    0    0  0.11564670471E+02  0.95707745222E+01 -0.11195399471E+02  0.72461593581E+02  0.70000030335E+02 0.  0.
         12    1    1    2    0    0 -0.11564670471E+02 -0.95707745222E+01  0.11195399471E+02  0.18726406419E+02  0.00000000000E+00 0. -1.
         11    1    3    3    0    0 -0.73332772320E+01  0.34720729299E+01 -0.36325561098E+01  0.88897530643E+01  0.51100000000E-03 0. -1.
        -11    1    3    3    0    0  0.75508507256E+01 -0.13733069405E+01 -0.33459078266E+02  0.34327994950E+02  0.51100000000E-03 0.  1.
         12    1    3    3    0    0  0.11347096977E+02  0.74720085328E+01  0.25896234904E+02  0.29243845567E+02  0.00000000000E+00 0. -1.
</event>
<event>
 7    1  0.2873608E-013  0.7246154E+02  0.7816164E-02  0.1226708E+00
        -11   -1    0    0    0    0  0.00000000000E+00  0.00000000000E+00  0.45593999997E+02  0.45594000000E+02  0.51100000000E-03 0.  1.
         11   -1    0    0    0    0 -0.00000000000E+00 -0.00000000000E+00 -0.45593999997E+02  0.45594000000E+02  0.51100000000E-03 0. -1.
    9900012    2    1    2    0    0 -0.71021508529E+01 -0.71778984212E+01 -0.15770775861E+02  0.72461544282E+02  0.69999966114E+02 0.  0.
         12    1    1    2    0    0  0.71021508529E+01  0.71778984212E+01  0.15770775861E+02  0.18726455718E+02  0.00000000000E+00 0. -1.
         11    1    3    3    0    0 -0.13687397776E+02  0.20822392335E+02 -0.55457229465E+01  0.25527865632E+02  0.51100000000E-03 0. -1.
        -11    1    3    3    0    0 -0.97449483435E+01 -0.38961788735E+01  0.74529041569E+01  0.12872063108E+02  0.51100000000E-03 0.  1.
        -12    1    3    3    0    0  0.16330195266E+02 -0.24104111883E+02 -0.17677957072E+02  0.34061615542E+02  0.00000000000E+00 0.  1.
</event>
<event>
 7    1  0.2873608E-013  0.7246159E+02  0.7816164E-02  0.1226708E+00
        -11   -1    0    0    0    0  0.00000000000E+00  0.00000000000E+00  0.45593999997E+02  0.45594000000E+02  0.51100000000E-03 0.  1.
         11   -1    0    0    0    0 -0.00000000000E+00 -0.00000000000E+00 -0.45593999997E+02  0.45594000000E+02  0.51100000000E-03 0. -1.
    9900012    2    1    2    0    0  0.10086684422E+02  0.52729707551E+01  0.14870543363E+02  0.72461588621E+02  0.70000023874E+02 0.  0.
         12    1    1    2    0    0 -0.10086684422E+02 -0.52729707551E+01 -0.14870543363E+02  0.18726411379E+02  0.00000000000E+00 0. -1.
         11    1    3    3    0    0 -0.17942358042E+01 -0.18871277741E+01 -0.17817978239E+02  0.18007245268E+02  0.51100000000E-03 0. -1.
        -11    1    3    3    0    0  0.85805932546E+01  0.70251710778E+01 -0.79733869696E+01  0.13658495865E+02  0.51100000000E-03 0.  1.
        -12    1    3    3    0    0  0.33003269714E+01  0.13492745141E+00  0.40661908572E+02  0.40795847488E+02  0.00000000000E+00 0.  1.
</event>
<event>
 7    1  0.2873608E-013  0.7246163E+02  0.7816164E-02  0.1226708E+00
        -11   -1    0    0    0    0  0.00000000000E+00  0.00000000000E+00  0.45593999997E+02  0.45594000000E+02  0.51100000000E-03 0.  1.
         11   -1    0    0    0    0 -0.00000000000E+00 -0.00000000000E+00 -0.45593999997E+02  0.45594000000E+02  0.51100000000E-03 0. -1.
    9900012    2    1    2    0    0 -0.14780252403E+02 -0.16937523704E+01  0.11373317014E+02  0.72461628272E+02  0.70000075527E+02 0.  0.
         12    1    1    2    0    0  0.14780252403E+02  0.16937523704E+01 -0.11373317014E+02  0.18726371728E+02  0.00000000000E+00 0. -1.
         11    1    3    3    0    0  0.80265615878E+01 -0.37510651390E+01 -0.13530367272E+02  0.16173033710E+02  0.51100000000E-03 0. -1.
        -11    1    3    3    0    0 -0.27642405045E+02  0.17001826092E+02  0.84359917702E+01  0.33531039420E+02  0.51100000000E-03 0.  1.
         12    1    3    3    0    0  0.48355910543E+01 -0.14944513323E+02  0.16467692515E+02  0.22757555143E+02  0.00000000000E+00 0. -1.
</event>
<event>
 7    1  0.2873608E-013  0.7246160E+02  0.7816164E-02  0.1226708E+00
        -11   -1    0    0    0    0  0.00000000000E+00  0.00000000000E+00  0.45593999997E+02  0.45594000000E+02  0.51100000000E-03 0. -1.
         11   -1    0    0    0    0 -0.00000000000E+00 -0.00000000000E+00 -0.45593999997E+02  0.45594000000E+02  0.51100000000E-03 0.  1.
    9900012    2    1    2    0    0 -0.55341235548E+01 -0.14413343292E+02 -0.10597504295E+02  0.72461599233E+02  0.70000037698E+02 0.  0.
         12    1    1    2    0    0  0.55341235548E+01  0.14413343292E+02  0.10597504295E+02  0.18726400767E+02  0.00000000000E+00 0. -1.
         11    1    3    3    0    0 -0.10922697968E+02 -0.87026938840E+01  0.68423442512E+01  0.15551845127E+02  0.51100000000E-03 0. -1.
        -11    1    3    3    0    0  0.19499392661E+02 -0.20090725497E+02 -0.22749341014E+02  0.36074867733E+02  0.51100000000E-03 0.  1.
         12    1    3    3    0    0 -0.14110818248E+02  0.14380076089E+02  0.53094924674E+01  0.20834886374E+02  0.00000000000E+00 0. -1.
</event>
<event>
 7    1  0.2873608E-013  0.7246156E+02  0.7816164E-02  0.1226708E+00
        -11   -1    0    0    0    0  0.00000000000E+00  0.00000000000E+00  0.45593999997E+02  0.45594000000E+02  0.51100000000E-03 0.  1.
         11   -1    0    0    0    0 -0.00000000000E+00 -0.00000000000E+00 -0.45593999997E+02  0.45594000000E+02  0.51100000000E-03 0. -1.
    9900012    2    1    2    0    0 -0.11449387350E+02  0.12762906842E+02  0.75298968624E+01  0.72461558574E+02  0.69999984732E+02 0.  0.
         12    1    1    2    0    0  0.11449387350E+02 -0.12762906842E+02 -0.75298968624E+01  0.18726441426E+02  0.00000000000E+00 0. -1.
         11    1    3    3    0    0  0.20199160952E+01  0.66063061257E+01 -0.86103350721E+01  0.11039076591E+02  0.51100000000E-03 0. -1.
        -11    1    3    3    0    0 -0.23047821672E+02  0.26928341802E+02  0.15093511460E+02  0.38524690323E+02  0.51100000000E-03 0.  1.
         12    1    3    3    0    0  0.95785182269E+01 -0.20771741086E+02  0.10467204749E+01  0.22897791661E+02  0.00000000000E+00 0. -1.
</event>
<event>
 7    1  0.2873608E-013  0.7246152E+02  0.7816164E-02  0.1226708E+00
        -11   -1    0    0    0    0  0.00000000000E+00  0.00000000000E+00  0.45593999997E+02  0.45594000000E+02  0.51100000000E-03 0.  1.
         11   -1    0    0    0    0 -0.00000000000E+00 -0.00000000000E+00 -0.45593999997E+02  0.45594000000E+02  0.51100000000E-03 0. -1.
    9900012    2    1    2    0    0  0.55584266103E+01  0.17862439436E+02 -0.84739511147E+00  0.72461523357E+02  0.69999938856E+02 0.  0.
         12    1    1    2    0    0 -0.55584266103E+01 -0.17862439436E+02  0.84739511147E+00  0.18726476643E+02  0.00000000000E+00 0. -1.
         11    1    3    3    0    0  0.24369804338E+01  0.37006145361E+01 -0.41758239024E+01  0.60885899110E+01  0.51100000000E-03 0. -1.
        -11    1    3    3    0    0 -0.13549480981E+02  0.28197618250E+02 -0.17821765857E+02  0.36004297637E+02  0.51100000000E-03 0.  1.
         12    1    3    3    0    0  0.16670927158E+02 -0.14035793350E+02  0.21150194648E+02  0.30368635809E+02  0.00000000000E+00 0. -1.
</event>
<event>
 7    1  0.2873608E-013  0.7246158E+02  0.7816164E-02  0.1226708E+00
        -11   -1    0    0    0    0  0.00000000000E+00  0.00000000000E+00  0.45593999997E+02  0.45594000000E+02  0.51100000000E-03 0. -1.
         11   -1    0    0    0    0 -0.00000000000E+00 -0.00000000000E+00 -0.45593999997E+02  0.45594000000E+02  0.51100000000E-03 0.  1.
    9900012    2    1    2    0    0 -0.61524172712E+01  0.61037201233E+01 -0.16600338744E+02  0.72461577917E+02  0.70000009929E+02 0.  0.
         12    1    1    2    0    0  0.61524172712E+01 -0.61037201233E+01  0.16600338744E+02  0.18726422083E+02  0.00000000000E+00 0. -1.
         11    1    3    3    0    0 -0.20908424861E+02  0.10196053299E+01 -0.16159273209E+02  0.26444733617E+02  0.51100000000E-03 0. -1.
        -11    1    3    3    0    0 -0.15251672310E+02  0.13104556771E+01  0.29292226714E+01  0.15585607080E+02  0.51100000000E-03 0.  1.
         12    1    3    3    0    0  0.30007679900E+02  0.37736591163E+01 -0.33702882069E+01  0.30431237219E+02  0.00000000000E+00 0. -1.
</event>
<event>
 7    1  0.2873608E-013  0.7246141E+02  0.7816164E-02  0.1226708E+00
        -11   -1    0    0    0    0  0.00000000000E+00  0.00000000000E+00  0.45593999997E+02  0.45594000000E+02  0.51100000000E-03 0. -1.
         11   -1    0    0    0    0 -0.00000000000E+00 -0.00000000000E+00 -0.45593999997E+02  0.45594000000E+02  0.51100000000E-03 0.  1.
    9900012    2    1    2    0    0  0.43644533463E+01  0.12936545584E+02 -0.12817270606E+02  0.72461412205E+02  0.69999794059E+02 0.  0.
         12    1    1    2    0    0 -0.43644533463E+01 -0.12936545584E+02  0.12817270606E+02  0.18726587795E+02  0.00000000000E+00 0. -1.
         11    1    3    3    0    0 -0.11703621412E+02  0.93660765529E+01 -0.18082449901E+02  0.23487723151E+02  0.51100000000E-03 0.  1.
        -11    1    3    3    0    0  0.26679301192E+02  0.16392584212E+02  0.74511498778E+01  0.32187288858E+02  0.51100000000E-03 0. -1.
         12    1    3    3    0    0 -0.10611226434E+02 -0.12822115181E+02 -0.21859705833E+01  0.16786400196E+02  0.00000000000E+00 0. -1.
</event>
<event>
 7    1  0.2873608E-013  0.7246156E+02  0.7816164E-02  0.1226708E+00
        -11   -1    0    0    0    0  0.00000000000E+00  0.00000000000E+00  0.45593999997E+02  0.45594000000E+02  0.51100000000E-03 0. -1.
         11   -1    0    0    0    0 -0.00000000000E+00 -0.00000000000E+00 -0.45593999997E+02  0.45594000000E+02  0.51100000000E-03 0.  1.
    9900012    2    1    2    0    0  0.24454665842E+01  0.11432278837E+02 -0.14628814992E+02  0.72461560554E+02  0.69999987312E+02 0.  0.
         12    1    1    2    0    0 -0.24454665842E+01 -0.11432278837E+02  0.14628814992E+02  0.18726439446E+02  0.00000000000E+00 0. -1.
         11    1    3    3    0    0  0.52344595325E+01 -0.12304444118E+02  0.70234646588E+01  0.15103905711E+02  0.51100000000E-03 0. -1.
        -11    1    3    3    0    0 -0.45660967580E+01 -0.28929242915E+01 -0.29140962053E+02  0.29638048522E+02  0.51100000000E-03 0.  1.
        -12    1    3    3    0    0  0.17771038096E+01  0.26629647247E+02  0.74886824022E+01  0.27719606321E+02  0.00000000000E+00 0.  1.
</event>
<event>
 7    1  0.2873608E-013  0.7246151E+02  0.7816164E-02  0.1226708E+00
        -11   -1    0    0    0    0  0.00000000000E+00  0.00000000000E+00  0.45593999997E+02  0.45594000000E+02  0.51100000000E-03 0. -1.
         11   -1    0    0    0    0 -0.00000000000E+00 -0.00000000000E+00 -0.45593999997E+02  0.45594000000E+02  0.51100000000E-03 0.  1.
    9900012    2    1    2    0    0 -0.12191130632E+02 -0.13042783548E+02 -0.56518560015E+01  0.72461512208E+02  0.69999924332E+02 0.  0.
         12    1    1    2    0    0  0.12191130632E+02  0.13042783548E+02  0.56518560015E+01  0.18726487792E+02  0.00000000000E+00 0. -1.
         11    1    3    3    0    0 -0.74660764420E+01  0.10448519520E+02  0.25374184765E+02  0.28438760704E+02  0.51100000000E-03 0. -1.
        -11    1    3    3    0    0  0.52882602280E+01 -0.35446561467E+01 -0.75158948178E+00  0.64105514933E+01  0.51100000000E-03 0.  1.
        -12    1    3    3    0    0 -0.10013314419E+02 -0.19946646921E+02 -0.30274451285E+02  0.37612200011E+02  0.00000000000E+00 0.  1.
</event>
<event>
 7    1  0.2873608E-013  0.7246140E+02  0.7816164E-02  0.1226708E+00
        -11   -1    0    0    0    0  0.00000000000E+00  0.00000000000E+00  0.45593999997E+02  0.45594000000E+02  0.51100000000E-03 0.  1.
         11   -1    0    0    0    0 -0.00000000000E+00 -0.00000000000E+00 -0.45593999997E+02  0.45594000000E+02  0.51100000000E-03 0. -1.
    9900012    2    1    2    0    0  0.84573276970E+01  0.71503138578E+00  0.16692753008E+02  0.72461396873E+02  0.69999774087E+02 0.  0.
         12    1    1    2    0    0 -0.84573276970E+01 -0.71503138578E+00 -0.16692753008E+02  0.18726603127E+02  0.00000000000E+00 0. -1.
         11    1    3    3    0    0 -0.19458743747E+01  0.18203300164E+02 -0.11090660204E+02  0.21404422626E+02  0.51100000000E-03 0. -1.
        -11    1    3    3    0    0 -0.71905801914E+01  0.83956422489E+01  0.10774961764E+02  0.15436678837E+02  0.51100000000E-03 0.  1.
        -12    1    3    3    0    0  0.17593782263E+02 -0.25883911027E+02  0.17008451449E+02  0.35620295410E+02  0.00000000000E+00 0.  1.
</event>
<event>
 7    1  0.2873608E-013  0.7246158E+02  0.7816164E-02  0.1226708E+00
        -11   -1    0    0    0    0  0.00000000000E+00  0.00000000000E+00  0.45593999997E+02  0.45594000000E+02  0.51100000000E-03 0.  1.
         11   -1    0    0    0    0 -0.00000000000E+00 -0.00000000000E+00 -0.45593999997E+02  0.45594000000E+02  0.51100000000E-03 0. -1.
    9900012    2    1    2    0    0  0.37716333667E+01  0.83771375101E+01  0.16317999304E+02  0.72461581431E+02  0.70000014508E+02 0.  0.
         12    1    1    2    0    0 -0.37716333667E+01 -0.83771375101E+01 -0.16317999304E+02  0.18726418569E+02  0.00000000000E+00 0. -1.
         11    1    3    3    0    0  0.11007846525E+02  0.12478733703E+02 -0.55927386787E+01  0.17554777302E+02  0.51100000000E-03 0. -1.
        -11    1    3    3    0    0  0.12124261603E+02 -0.65418070282E+01 -0.10330961665E+02  0.17219806264E+02  0.51100000000E-03 0.  1.
        -12    1    3    3    0    0 -0.19360474761E+02  0.24402108351E+01  0.32241699648E+02  0.37686997865E+02  0.00000000000E+00 0.  1.
</event>
<event>
 7    1  0.2873608E-013  0.7246157E+02  0.7816164E-02  0.1226708E+00
        -11   -1    0    0    0    0  0.00000000000E+00  0.00000000000E+00  0.45593999997E+02  0.45594000000E+02  0.51100000000E-03 0.  1.
         11   -1    0    0    0    0 -0.00000000000E+00 -0.00000000000E+00 -0.45593999997E+02  0.45594000000E+02  0.51100000000E-03 0. -1.
    9900012    2    1    2    0    0 -0.76968654030E+01  0.12188525555E+02  0.11953136222E+02  0.72461565268E+02  0.69999993452E+02 0.  0.
         12    1    1    2    0    0  0.76968654030E+01 -0.12188525555E+02 -0.11953136222E+02  0.18726434732E+02  0.00000000000E+00 0. -1.
         11    1    3    3    0    0  0.59766113351E+01 -0.11896600847E+01  0.70814673994E+01  0.93425026068E+01  0.51100000000E-03 0. -1.
        -11    1    3    3    0    0  0.18419937858E+02  0.21943145886E+02  0.80272572901E+01  0.29752859055E+02  0.51100000000E-03 0.  1.
         12    1    3    3    0    0 -0.32093414596E+02 -0.85649602466E+01 -0.31555884677E+01  0.33366203606E+02  0.00000000000E+00 0. -1.
</event>
<event>
 7    1  0.2873608E-013  0.7246155E+02  0.7816164E-02  0.1226708E+00
        -11   -1    0    0    0    0  0.00000000000E+00  0.00000000000E+00  0.45593999997E+02  0.45594000000E+02  0.51100000000E-03 0.  1.
         11   -1    0    0    0    0 -0.00000000000E+00 -0.00000000000E+00 -0.45593999997E+02  0.45594000000E+02  0.51100000000E-03 0. -1.
    9900012    2    1    2    0    0  0.18363083391E+01  0.10546966789E+02  0.15364555922E+02  0.72461545038E+02  0.69999967099E+02 0.  0.
         12    1    1    2    0    0 -0.18363083391E+01 -0.10546966789E+02 -0.15364555922E+02  0.18726454962E+02  0.00000000000E+00 0. -1.
         11    1    3    3    0    0 -0.22731935809E+02  0.22545532918E+02  0.93867579793E+01  0.33363950393E+02  0.51100000000E-03 0. -1.
        -11    1    3    3    0    0  0.10293372457E+02  0.74512935408E+01 -0.34938447137E+01  0.13178855911E+02  0.51100000000E-03 0.  1.
        -12    1    3    3    0    0  0.14274871691E+02 -0.19449859670E+02  0.94716426563E+01  0.25918738734E+02  0.00000000000E+00 0.  1.
</event>
<event>
 7    1  0.2873608E-013  0.7246151E+02  0.7816164E-02  0.1226708E+00
        -11   -1    0    0    0    0  0.00000000000E+00  0.00000000000E+00  0.45593999997E+02  0.45594000000E+02  0.51100000000E-03 0.  1.
         11   -1    0    0    0    0 -0.00000000000E+00 -0.00000000000E+00 -0.45593999997E+02  0.45594000000E+02  0.51100000000E-03 0. -1.
    9900012    2    1    2    0    0 -0.16835278957E+02  0.81539515071E+00  0.81602746300E+01  0.72461506232E+02  0.69999916547E+02 0.  0.
         12    1    1    2    0    0  0.16835278957E+02 -0.81539515071E+00 -0.81602746300E+01  0.18726493768E+02  0.00000000000E+00 0. -1.
         11    1    3    3    0    0  0.26538979397E+02  0.30764802315E+01  0.66007451838E+01  0.27520028984E+02  0.51100000000E-03 0.  1.
        -11    1    3    3    0    0 -0.23177312262E+02  0.33256486710E+01  0.43045141877E+01  0.23807070072E+02  0.51100000000E-03 0. -1.
        -12    1    3    3    0    0 -0.20196946092E+02 -0.55867337518E+01 -0.27449847415E+01  0.21134407176E+02  0.00000000000E+00 0.  1.
</event>
<event>
 7    1  0.2873608E-013  0.7246138E+02  0.7816164E-02  0.1226709E+00
        -11   -1    0    0    0    0  0.00000000000E+00  0.00000000000E+00  0.45593999997E+02  0.45594000000E+02  0.51100000000E-03 0. -1.
         11   -1    0    0    0    0 -0.00000000000E+00 -0.00000000000E+00 -0.45593999997E+02  0.45594000000E+02  0.51100000000E-03 0.  1.
    9900012    2    1    2    0    0  0.16862235040E+02  0.57988923935E+01  0.57204962015E+01  0.72461382572E+02  0.69999755456E+02 0.  0.
         12    1    1    2    0    0 -0.16862235040E+02 -0.57988923935E+01 -0.57204962015E+01  0.18726617428E+02  0.00000000000E+00 0. -1.
         11    1    3    3    0    0 -0.17022709728E+02 -0.11694735572E+02  0.10698074081E+02  0.23259154668E+02  0.51100000000E-03 0. -1.
        -11    1    3    3    0    0  0.13504146400E+02 -0.58691315146E+01 -0.99941523619E+01  0.17795835368E+02  0.51100000000E-03 0.  1.
        -12    1    3    3    0    0  0.20380798367E+02  0.23362759480E+02  0.50165744820E+01  0.31406392536E+02  0.00000000000E+00 0.  1.
</event>
<event>
 7    1  0.2873608E-013  0.7246157E+02  0.7816164E-02  0.1226708E+00
        -11   -1    0    0    0    0  0.00000000000E+00  0.00000000000E+00  0.45593999997E+02  0.45594000000E+02  0.51100000000E-03 0.  1.
         11   -1    0    0    0    0 -0.00000000000E+00 -0.00000000000E+00 -0.45593999997E+02  0.45594000000E+02  0.51100000000E-03 0. -1.
    9900012    2    1    2    0    0 -0.87867386391E+01  0.16475496467E+02 -0.14249396625E+01  0.72461569139E+02  0.69999998495E+02 0.  0.
         12    1    1    2    0    0  0.87867386391E+01 -0.16475496467E+02  0.14249396625E+01  0.18726430861E+02  0.00000000000E+00 0. -1.
         11    1    3    3    0    0  0.10129372644E+02  0.50727350289E+01 -0.26278548199E+02  0.28616410092E+02  0.51100000000E-03 0. -1.
        -11    1    3    3    0    0  0.44624301535E+00 -0.80351306845E+01  0.24154325023E+01  0.84021885470E+01  0.51100000000E-03 0.  1.
        -12    1    3    3    0    0 -0.19362354298E+02  0.19437892122E+02  0.22438176034E+02  0.35442970500E+02  0.00000000000E+00 0.  1.
</event>
<event>
 7    1  0.2873608E-013  0.7246149E+02  0.7816164E-02  0.1226708E+00
        -11   -1    0    0    0    0  0.00000000000E+00  0.00000000000E+00  0.45593999997E+02  0.45594000000E+02  0.51100000000E-03 0. -1.
         11   -1    0    0    0    0 -0.00000000000E+00 -0.00000000000E+00 -0.45593999997E+02  0.45594000000E+02  0.51100000000E-03 0.  1.
    9900012    2    1    2    0    0  0.11777048899E+02  0.63205709280E+01  0.13116163595E+02  0.72461488177E+02  0.69999893027E+02 0.  0.
         12    1    1    2    0    0 -0.11777048899E+02 -0.63205709280E+01 -0.13116163595E+02  0.18726511823E+02  0.00000000000E+00 0. -1.
         11    1    3    3    0    0 -0.10023774803E+02  0.70613327672E+01 -0.91109383910E+01  0.15275721927E+02  0.51100000000E-03 0. -1.
        -11    1    3    3    0    0  0.27330771678E+02 -0.40921002169E+01 -0.59563671009E+01  0.28270031376E+02  0.51100000000E-03 0.  1.
         12    1    3    3    0    0 -0.55299479765E+01  0.33513383777E+01  0.28183469087E+02  0.28915734874E+02  0.00000000000E+00 0. -1.
</event>
<event>
 7    1  0.2873608E-013  0.7246154E+02  0.7816164E-02  0.1226708E+00
        -11   -1    0    0    0    0  0.00000000000E+00  0.00000000000E+00  0.45593999997E+02  0.45594000000E+02  0.51100000000E-03 0.  1.
         11   -1    0    0    0    0 -0.00000000000E+00 -0.00000000000E+00 -0.45593999997E+02  0.45594000000E+02  0.51100000000E-03 0. -1.
    9900012    2    1    2    0    0 -0.10083698485E+02  0.39145845710E+01  0.15286442255E+02  0.72461541063E+02  0.69999961921E+02 0.  0.
         12    1    1    2    0    0  0.10083698485E+02 -0.39145845710E+01 -0.15286442255E+02  0.18726458937E+02  0.00000000000E+00 0. -1.
         11    1    3    3    0    0 -0.12822363954E+02  0.91793690136E+01  0.12614153320E+02  0.20193828193E+02  0.51100000000E-03 0. -1.
        -11    1    3    3    0    0 -0.23472848055E+01 -0.28638364554E+01  0.27023216622E+02  0.27275731742E+02  0.51100000000E-03 0.  1.
        -12    1    3    3    0    0  0.50859502746E+01 -0.24009479871E+01 -0.24350927688E+02  0.24991981128E+02  0.00000000000E+00 0.  1.
</event>
<event>
 7    1  0.2873608E-013  0.7246161E+02  0.7816164E-02  0.1226708E+00
        -11   -1    0    0    0    0  0.00000000000E+00  0.00000000000E+00  0.45593999997E+02  0.45594000000E+02  0.51100000000E-03 0. -1.
         11   -1    0    0    0    0 -0.00000000000E+00 -0.00000000000E+00 -0.45593999997E+02  0.45594000000E+02  0.51100000000E-03 0.  1.
    9900012    2    1    2    0    0  0.18125087125E+02  0.46878627248E+01  0.42766410101E+00  0.72461608548E+02  0.70000049833E+02 0.  0.
         12    1    1    2    0    0 -0.18125087125E+02 -0.46878627248E+01 -0.42766410101E+00  0.18726391452E+02  0.00000000000E+00 0. -1.
         11    1    3    3    0    0 -0.19768360815E+01 -0.87839253214E+01 -0.99848012896E+01  0.13444756673E+02  0.51100000000E-03 0. -1.
        -11    1    3    3    0    0  0.16889444294E+02 -0.12398958775E+02  0.22094879846E+02  0.30449486415E+02  0.51100000000E-03 0.  1.
         12    1    3    3    0    0  0.32124789129E+01  0.25870746821E+02 -0.11682414455E+02  0.28567365460E+02  0.00000000000E+00 0. -1.
</event>
<event>
 7    1  0.2873608E-013  0.7246163E+02  0.7816164E-02  0.1226708E+00
        -11   -1    0    0    0    0  0.00000000000E+00  0.00000000000E+00  0.45593999997E+02  0.45594000000E+02  0.51100000000E-03 0. -1.
         11   -1    0    0    0    0 -0.00000000000E+00 -0.00000000000E+00 -0.45593999997E+02  0.45594000000E+02  0.51100000000E-03 0.  1.
    9900012    2    1    2    0    0 -0.17592230536E+02  0.63789466807E+01 -0.70679382473E+00  0.72461625724E+02  0.70000072208E+02 0.  0.
         12    1    1    2    0    0  0.17592230536E+02 -0.63789466807E+01  0.70679382473E+00  0.18726374276E+02  0.00000000000E+00 0. -1.
         11    1    3    3    0    0 -0.92074806439E+01 -0.76987501318E+01 -0.91760170751E+01  0.15107870235E+02  0.51100000000E-03 0. -1.
        -11    1    3    3    0    0 -0.17565650523E+02  0.17520087036E+02 -0.16991564608E+02  0.30070231062E+02  0.51100000000E-03 0.  1.
        -12    1    3    3    0    0  0.91809006303E+01 -0.34423902238E+01  0.25460787858E+02  0.27283524428E+02  0.00000000000E+00 0.  1.
</event>
<event>
 7    1  0.2873608E-013  0.7246161E+02  0.7816164E-02  0.1226708E+00
        -11   -1    0    0    0    0  0.00000000000E+00  0.00000000000E+00  0.45593999997E+02  0.45594000000E+02  0.51100000000E-03 0.  1.
         11   -1    0    0    0    0 -0.00000000000E+00 -0.00000000000E+00 -0.45593999997E+02  0.45594000000E+02  0.51100000000E-03 0. -1.
    9900012    2    1    2    0    0 -0.15513999938E+02 -0.10413984591E+02 -0.12419883953E+01  0.72461606745E+02  0.70000047484E+02 0.  0.
         12    1    1    2    0    0  0.15513999938E+02  0.10413984591E+02  0.12419883953E+01  0.18726393255E+02  0.00000000000E+00 0. -1.
         11    1    3    3    0    0 -0.10886604281E+02 -0.25067782715E+02 -0.60197933575E+01  0.27984813656E+02  0.51100000000E-03 0. -1.
        -11    1    3    3    0    0 -0.76900479260E+01 -0.13105805118E+02  0.64302466811E+01  0.16499910228E+02  0.51100000000E-03 0.  1.
         12    1    3    3    0    0  0.30626522685E+01  0.27759603241E+02 -0.16524417188E+01  0.27976882862E+02  0.00000000000E+00 0. -1.
</event>
<event>
 7    1  0.2873608E-013  0.7246157E+02  0.7816164E-02  0.1226708E+00
        -11   -1    0    0    0    0  0.00000000000E+00  0.00000000000E+00  0.45593999997E+02  0.45594000000E+02  0.51100000000E-03 0.  1.
         11   -1    0    0    0    0 -0.00000000000E+00 -0.00000000000E+00 -0.45593999997E+02  0.45594000000E+02  0.51100000000E-03 0. -1.
    9900012    2    1    2    0    0  0.66454084046E+01 -0.15791985052E+02  0.75585027188E+01  0.72461569264E+02  0.69999998658E+02 0.  0.
         12    1    1    2    0    0 -0.66454084046E+01  0.15791985052E+02 -0.75585027188E+01  0.18726430736E+02  0.00000000000E+00 0. -1.
         11    1    3    3    0    0  0.42996948579E+01  0.18399097275E+02 -0.30654223982E+01  0.19141864359E+02  0.51100000000E-03 0. -1.
        -11    1    3    3    0    0  0.10434619098E+02  0.19750114881E+01  0.12264918988E+02  0.16223753701E+02  0.51100000000E-03 0.  1.
        -12    1    3    3    0    0 -0.80889055513E+01 -0.36166093815E+02 -0.16409938706E+01  0.37095951204E+02  0.00000000000E+00 0.  1.
</event>
<event>
 7    1  0.2873608E-013  0.7246158E+02  0.7816164E-02  0.1226708E+00
        -11   -1    0    0    0    0  0.00000000000E+00  0.00000000000E+00  0.45593999997E+02  0.45594000000E+02  0.51100000000E-03 0.  1.
         11   -1    0    0    0    0 -0.00000000000E+00 -0.00000000000E+00 -0.45593999997E+02  0.45594000000E+02  0.51100000000E-03 0. -1.
    9900012    2    1    2    0    0 -0.57912985726E+01  0.14109212213E+02  0.10865998228E+02  0.72461576798E+02  0.70000008473E+02 0.  0.
         12    1    1    2    0    0  0.57912985726E+01 -0.14109212213E+02 -0.10865998228E+02  0.18726423202E+02  0.00000000000E+00 0. -1.
         11    1    3    3    0    0  0.22472853474E+02 -0.10186494012E+02  0.17557685870E+01  0.24736138080E+02  0.51100000000E-03 0. -1.
        -11    1    3    3    0    0 -0.18794205584E+02  0.56728824107E+01  0.16417829671E+02  0.25591969243E+02  0.51100000000E-03 0.  1.
        -12    1    3    3    0    0 -0.94699464629E+01  0.18622823814E+02 -0.73076000303E+01  0.22133469476E+02  0.00000000000E+00 0.  1.
</event>
<event>
 7    1  0.2873608E-013  0.7246157E+02  0.7816164E-02  0.1226708E+00
        -11   -1    0    0    0    0  0.00000000000E+00  0.00000000000E+00  0.45593999997E+02  0.45594000000E+02  0.51100000000E-03 0.  1.
         11   -1    0    0    0    0 -0.00000000000E+00 -0.00000000000E+00 -0.45593999997E+02  0.45594000000E+02  0.51100000000E-03 0. -1.
    9900012    2    1    2    0    0 -0.15790168252E+02 -0.30841900250E+00  0.10062531658E+02  0.72461572709E+02  0.70000003145E+02 0.  0.
         12    1    1    2    0    0  0.15790168252E+02  0.30841900250E+00 -0.10062531658E+02  0.18726427291E+02  0.00000000000E+00 0. -1.
         11    1    3    3    0    0  0.93527247568E+01  0.57412256615E+01  0.66912666392E+01  0.12853333496E+02  0.51100000000E-03 0. -1.
        -11    1    3    3    0    0  0.71960562136E+01  0.19788088728E+01  0.20733277230E+02  0.22035600617E+02  0.51100000000E-03 0.  1.
         12    1    3    3    0    0 -0.32338949223E+02 -0.80284535368E+01 -0.17362012211E+02  0.37572638596E+02  0.00000000000E+00 0. -1.
</event>
<event>
 7    1  0.2873608E-013  0.7246156E+02  0.7816164E-02  0.1226708E+00
        -11   -1    0    0    0    0  0.00000000000E+00  0.00000000000E+00  0.45593999997E+02  0.45594000000E+02  0.51100000000E-03 0.  1.
         11   -1    0    0    0    0 -0.00000000000E+00 -0.00000000000E+00 -0.45593999997E+02  0.45594000000E+02  0.51100000000E-03 0. -1.
    9900012    2    1    2    0    0 -0.10977806375E+01 -0.16317270144E+01  0.18622889862E+02  0.72461556606E+02  0.69999982168E+02 0.  0.
         12    1    1    2    0    0  0.10977806375E+01  0.16317270144E+01 -0.18622889862E+02  0.18726443394E+02  0.00000000000E+00 0. -1.
         11    1    3    3    0    0 -0.31577966150E+01  0.10702157419E+02 -0.43893662079E+01  0.11990595851E+02  0.51100000000E-03 0. -1.
        -11    1    3    3    0    0 -0.23654824922E+02  0.40171584012E+00 -0.46901414029E-01  0.23658282222E+02  0.51100000000E-03 0.  1.
         12    1    3    3    0    0  0.25714840900E+02 -0.12735600274E+02  0.23059157484E+02  0.36812678532E+02  0.00000000000E+00 0. -1.
</event>
<event>
 7    1  0.2873608E-013  0.7246157E+02  0.7816164E-02  0.1226708E+00
        -11   -1    0    0    0    0  0.00000000000E+00  0.00000000000E+00  0.45593999997E+02  0.45594000000E+02  0.51100000000E-03 0.  1.
         11   -1    0    0    0    0 -0.00000000000E+00 -0.00000000000E+00 -0.45593999997E+02  0.45594000000E+02  0.51100000000E-03 0. -1.
    9900012    2    1    2    0    0 -0.14254334495E+02  0.11092884153E+02 -0.49437815836E+01  0.72461571962E+02  0.70000002172E+02 0.  0.
         12    1    1    2    0    0  0.14254334495E+02 -0.11092884153E+02  0.49437815836E+01  0.18726428038E+02  0.00000000000E+00 0. -1.
         11    1    3    3    0    0  0.28857698945E+01 -0.64446044241E+01 -0.14316283266E+00  0.70626545947E+01  0.51100000000E-03 0. -1.
        -11    1    3    3    0    0 -0.52780961391E+01 -0.87064423769E+01  0.23134835521E+02  0.25276096466E+02  0.51100000000E-03 0.  1.
        -12    1    3    3    0    0 -0.11862008250E+02  0.26243930954E+02 -0.27935454272E+02  0.40122820901E+02  0.00000000000E+00 0.  1.
</event>
<event>
 7    1  0.2873608E-013  0.7246155E+02  0.7816164E-02  0.1226708E+00
        -11   -1    0    0    0    0  0.00000000000E+00  0.00000000000E+00  0.45593999997E+02  0.45594000000E+02  0.51100000000E-03 0. -1.
         11   -1    0    0    0    0 -0.00000000000E+00 -0.00000000000E+00 -0.45593999997E+02  0.45594000000E+02  0.51100000000E-03 0.  1.
    9900012    2    1    2    0    0 -0.14085118078E+02 -0.14194426269E+01 -0.12258645798E+02  0.72461554383E+02  0.69999979273E+02 0.  0.
         12    1    1    2    0    0  0.14085118078E+02  0.14194426269E+01  0.12258645798E+02  0.18726445617E+02  0.00000000000E+00 0. -1.
         11    1    3    3    0    0 -0.87578384650E+01  0.18176857558E+02 -0.56415107880E+01  0.20950525757E+02  0.51100000000E-03 0.  1.
        -11    1    3    3    0    0 -0.17065271213E+02 -0.10571031630E+02  0.15175103571E+02  0.25164537746E+02  0.51100000000E-03 0. -1.
         12    1    3    3    0    0  0.11737991601E+02 -0.90252685555E+01 -0.21792238581E+02  0.26346490880E+02  0.00000000000E+00 0. -1.
</event>
<event>
 7    1  0.2873608E-013  0.7246158E+02  0.7816164E-02  0.1226708E+00
        -11   -1    0    0    0    0  0.00000000000E+00  0.00000000000E+00  0.45593999997E+02  0.45594000000E+02  0.51100000000E-03 0. -1.
         11   -1    0    0    0    0 -0.00000000000E+00 -0.00000000000E+00 -0.45593999997E+02  0.45594000000E+02  0.51100000000E-03 0.  1.
    9900012    2    1    2    0    0 -0.13158369316E+02  0.10254537081E+02 -0.85076676353E+01  0.72461584903E+02  0.70000019030E+02 0.  0.
         12    1    1    2    0    0  0.13158369316E+02 -0.10254537081E+02  0.85076676353E+01  0.18726415097E+02  0.00000000000E+00 0. -1.
         11    1    3    3    0    0 -0.16529788015E+02 -0.18232869075E+02  0.14022715507E+02  0.28325041165E+02  0.51100000000E-03 0. -1.
        -11    1    3    3    0    0  0.11031812109E+02  0.31353855356E+01 -0.67895244321E+01  0.13327759119E+02  0.51100000000E-03 0.  1.
         12    1    3    3    0    0 -0.76603934094E+01  0.25352020621E+02 -0.15740858710E+02  0.30808784619E+02  0.00000000000E+00 0. -1.
</event>
<event>
 7    1  0.2873608E-013  0.7246127E+02  0.7816164E-02  0.1226709E+00
        -11   -1    0    0    0    0  0.00000000000E+00  0.00000000000E+00  0.45593999997E+02  0.45594000000E+02  0.51100000000E-03 0.  1.
         11   -1    0    0    0    0 -0.00000000000E+00 -0.00000000000E+00 -0.45593999997E+02  0.45594000000E+02  0.51100000000E-03 0. -1.
    9900012    2    1    2    0    0  0.10858983673E+02 -0.14048344065E+02  0.59512158100E+01  0.72461268651E+02  0.69999607053E+02 0.  0.
         12    1    1    2    0    0 -0.10858983673E+02  0.14048344065E+02 -0.59512158100E+01  0.18726731349E+02  0.00000000000E+00 0. -1.
         11    1    3    3    0    0  0.13952402724E+02 -0.87199846543E+01 -0.20025695857E+02  0.25917873542E+02  0.51100000000E-03 0. -1.
        -11    1    3    3    0    0  0.40785145171E+01 -0.20938519987E+02  0.12645257764E+02  0.24798355673E+02  0.51100000000E-03 0.  1.
        -12    1    3    3    0    0 -0.71719335678E+01  0.15610160576E+02  0.13331653903E+02  0.21745039436E+02  0.00000000000E+00 0.  1.
</event>
<event>
 7    1  0.2873608E-013  0.7246155E+02  0.7816164E-02  0.1226708E+00
        -11   -1    0    0    0    0  0.00000000000E+00  0.00000000000E+00  0.45593999997E+02  0.45594000000E+02  0.51100000000E-03 0. -1.
         11   -1    0    0    0    0 -0.00000000000E+00 -0.00000000000E+00 -0.45593999997E+02  0.45594000000E+02  0.51100000000E-03 0.  1.
    9900012    2    1    2    0    0  0.18602269563E+02 -0.16165410268E+01  0.14221179574E+01  0.72461546591E+02  0.69999969122E+02 0.  0.
         12    1    1    2    0    0 -0.18602269563E+02  0.16165410268E+01 -0.14221179574E+01  0.18726453409E+02  0.00000000000E+00 0. -1.
         11    1    3    3    0    0  0.85739484982E+01  0.11206320379E+02  0.37888090069E+01  0.14609903602E+02  0.51100000000E-03 0. -1.
        -11    1    3    3    0    0  0.26329358245E+02  0.11262182432E+02  0.37946259595E+00  0.28639410798E+02  0.51100000000E-03 0.  1.
        -12    1    3    3    0    0 -0.16301037180E+02 -0.24085043838E+02 -0.27461536455E+01  0.29212232192E+02  0.00000000000E+00 0.  1.
</event>
<event>
 7    1  0.2873608E-013  0.7246158E+02  0.7816164E-02  0.1226708E+00
        -11   -1    0    0    0    0  0.00000000000E+00  0.00000000000E+00  0.45593999997E+02  0.45594000000E+02  0.51100000000E-03 0.  1.
         11   -1    0    0    0    0 -0.00000000000E+00 -0.00000000000E+00 -0.45593999997E+02  0.45594000000E+02  0.51100000000E-03 0. -1.
    9900012    2    1    2    0    0  0.71367167300E+01  0.16080230021E+02  0.64165739657E+01  0.72461576298E+02  0.70000007821E+02 0.  0.
         12    1    1    2    0    0 -0.71367167300E+01 -0.16080230021E+02 -0.64165739657E+01  0.18726423702E+02  0.00000000000E+00 0. -1.
         11    1    3    3    0    0  0.27714295666E+02 -0.89149604003E+01  0.10643687190E+01  0.29132311688E+02  0.51100000000E-03 0. -1.
        -11    1    3    3    0    0  0.55796349656E+01 -0.13363926628E+01  0.19434872064E+01  0.60576740157E+01  0.51100000000E-03 0.  1.
        -12    1    3    3    0    0 -0.26157213902E+02  0.26331583084E+02  0.34087180402E+01  0.37271590595E+02  0.00000000000E+00 0.  1.
</event>
<event>
 7    1  0.2873608E-013  0.7246160E+02  0.7816164E-02  0.1226708E+00
        -11   -1    0    0    0    0  0.00000000000E+00  0.00000000000E+00  0.45593999997E+02  0.45594000000E+02  0.51100000000E-03 0.  1.
         11   -1    0    0    0    0 -0.00000000000E+00 -0.00000000000E+00 -0.45593999997E+02  0.45594000000E+02  0.51100000000E-03 0. -1.
    9900012    2    1    2    0    0  0.31753010768E+01  0.18148379690E+02  0.33514062684E+01  0.72461597615E+02  0.70000035590E+02 0.  0.
         12    1    1    2    0    0 -0.31753010768E+01 -0.18148379690E+02 -0.33514062684E+01  0.18726402385E+02  0.00000000000E+00 0. -1.
         11    1    3    3    0    0  0.20293931112E+02 -0.16541377718E+02  0.23288875938E+01  0.26284682507E+02  0.51100000000E-03 0. -1.
        -11    1    3    3    0    0  0.42232710926E+01  0.12489744582E+02  0.68157426496E+01  0.14841970441E+02  0.51100000000E-03 0.  1.
         12    1    3    3    0    0 -0.21341901128E+02  0.22200012827E+02 -0.57932239750E+01  0.31334944667E+02  0.00000000000E+00 0. -1.
</event>
<event>
 7    1  0.2873608E-013  0.7246158E+02  0.7816164E-02  0.1226708E+00
        -11   -1    0    0    0    0  0.00000000000E+00  0.00000000000E+00  0.45593999997E+02  0.45594000000E+02  0.51100000000E-03 0. -1.
         11   -1    0    0    0    0 -0.00000000000E+00 -0.00000000000E+00 -0.45593999997E+02  0.45594000000E+02  0.51100000000E-03 0.  1.
    9900012    2    1    2    0    0 -0.17429437600E+02  0.55397770036E+01  0.40254437349E+01  0.72461584925E+02  0.70000019059E+02 0.  0.
         12    1    1    2    0    0  0.17429437600E+02 -0.55397770036E+01 -0.40254437349E+01  0.18726415075E+02  0.00000000000E+00 0. -1.
         11    1    3    3    0    0  0.15826526629E+02 -0.16218160104E+01  0.45541164045E+01  0.16548389915E+02  0.51100000000E-03 0. -1.
        -11    1    3    3    0    0  0.16391073520E+01  0.18522288823E+02 -0.41021443799E+01  0.19041781558E+02  0.51100000000E-03 0.  1.
         12    1    3    3    0    0 -0.34895071580E+02 -0.11360695809E+02  0.35734717102E+01  0.36871413452E+02  0.00000000000E+00 0. -1.
</event>
<event>
 7    1  0.2873608E-013  0.7246156E+02  0.7816164E-02  0.1226708E+00
        -11   -1    0    0    0    0  0.00000000000E+00  0.00000000000E+00  0.45593999997E+02  0.45594000000E+02  0.51100000000E-03 0. -1.
         11   -1    0    0    0    0 -0.00000000000E+00 -0.00000000000E+00 -0.45593999997E+02  0.45594000000E+02  0.51100000000E-03 0.  1.
    9900012    2    1    2    0    0 -0.37383688138E+01  0.87481256009E+01 -0.16129924789E+02  0.72461559424E+02  0.69999985840E+02 0.  0.
         12    1    1    2    0    0  0.37383688138E+01 -0.87481256009E+01  0.16129924789E+02  0.18726440576E+02  0.00000000000E+00 0. -1.
         11    1    3    3    0    0 -0.16823937718E+01 -0.17247193746E+01  0.44314572986E+01  0.50440975184E+01  0.51100000000E-03 0. -1.
        -11    1    3    3    0    0 -0.27622411148E+02 -0.11195316676E+02 -0.41202751277E+01  0.30088359551E+02  0.51100000000E-03 0.  1.
         12    1    3    3    0    0  0.25566436106E+02  0.21668161652E+02 -0.16441106960E+02  0.37329102355E+02  0.00000000000E+00 0. -1.
</event>
<event>
 7    1  0.2873608E-013  0.7246153E+02  0.7816164E-02  0.1226708E+00
        -11   -1    0    0    0    0  0.00000000000E+00  0.00000000000E+00  0.45593999997E+02  0.45594000000E+02  0.51100000000E-03 0.  1.
         11   -1    0    0    0    0 -0.00000000000E+00 -0.00000000000E+00 -0.45593999997E+02  0.45594000000E+02  0.51100000000E-03 0. -1.
    9900012    2    1    2    0    0 -0.72381460569E+01  0.17168611189E+02  0.18785179880E+01  0.72461526805E+02  0.69999943347E+02 0.  0.
         12    1    1    2    0    0  0.72381460569E+01 -0.17168611189E+02 -0.18785179880E+01  0.18726473195E+02  0.00000000000E+00 0. -1.
         11    1    3    3    0    0 -0.94199265427E+01  0.19760125675E+02  0.21873767461E+01  0.21999595452E+02  0.51100000000E-03 0. -1.
        -11    1    3    3    0    0 -0.19359722383E+02  0.13473560039E+02 -0.36120993619E+00  0.23589534624E+02  0.51100000000E-03 0.  1.
         12    1    3    3    0    0  0.21541502869E+02 -0.16065074525E+02  0.52351178099E-01  0.26872396730E+02  0.00000000000E+00 0. -1.
</event>
<event>
 7    1  0.2873608E-013  0.7246222E+02  0.7816164E-02  0.1226706E+00
        -11   -1    0    0    0    0  0.00000000000E+00  0.00000000000E+00  0.45593999997E+02  0.45594000000E+02  0.51100000000E-03 0. -1.
         11   -1    0    0    0    0 -0.00000000000E+00 -0.00000000000E+00 -0.45593999997E+02  0.45594000000E+02  0.51100000000E-03 0.  1.
    9900012    2    1    2    0    0  0.15435560225E+02 -0.23953169301E+01 -0.10327678226E+02  0.72462215632E+02  0.70000840667E+02 0.  0.
         12    1    1    2    0    0 -0.15435560225E+02  0.23953169301E+01  0.10327678226E+02  0.18725784368E+02  0.00000000000E+00 0. -1.
         11    1    3    3    0    0  0.64129957218E+01 -0.10157564719E+02  0.10779307016E+02  0.16139891423E+02  0.51100000000E-03 0. -1.
        -11    1    3    3    0    0  0.24434611499E+02 -0.11215816037E+02 -0.58831568853E+01  0.27521924055E+02  0.51100000000E-03 0.  1.
        -12    1    3    3    0    0 -0.15412046996E+02  0.18978063826E+02 -0.15223828357E+02  0.28800400154E+02  0.00000000000E+00 0.  1.
</event>
<event>
 7    1  0.2873608E-013  0.7246171E+02  0.7816164E-02  0.1226708E+00
        -11   -1    0    0    0    0  0.00000000000E+00  0.00000000000E+00  0.45593999997E+02  0.45594000000E+02  0.51100000000E-03 0. -1.
         11   -1    0    0    0    0 -0.00000000000E+00 -0.00000000000E+00 -0.45593999997E+02  0.45594000000E+02  0.51100000000E-03 0.  1.
    9900012    2    1    2    0    0  0.16385139707E+02 -0.22445114748E+00  0.90637075697E+01  0.72461708951E+02  0.70000180626E+02 0.  0.
         12    1    1    2    0    0 -0.16385139707E+02  0.22445114748E+00 -0.90637075697E+01  0.18726291049E+02  0.00000000000E+00 0. -1.
         11    1    3    3    0    0  0.31130802144E+02  0.83164557763E+01  0.19018229590E+01  0.32278587479E+02  0.51100000000E-03 0. -1.
        -11    1    3    3    0    0 -0.38227907260E+01 -0.17624153554E+02 -0.77131283063E+01  0.19614200620E+02  0.51100000000E-03 0.  1.
         12    1    3    3    0    0 -0.10922871711E+02  0.90832466302E+01  0.14875012917E+02  0.20568920853E+02  0.00000000000E+00 0. -1.
</event>
<event>
 7    1  0.2873608E-013  0.7246159E+02  0.7816164E-02  0.1226708E+00
        -11   -1    0    0    0    0  0.00000000000E+00  0.00000000000E+00  0.45593999997E+02  0.45594000000E+02  0.51100000000E-03 0. -1.
         11   -1    0    0    0    0 -0.00000000000E+00 -0.00000000000E+00 -0.45593999997E+02  0.45594000000E+02  0.51100000000E-03 0.  1.
    9900012    2    1    2    0    0  0.87579278503E+01  0.14132162436E+02 -0.86173709126E+01  0.72461590927E+02  0.70000026877E+02 0.  0.
         12    1    1    2    0    0 -0.87579278503E+01 -0.14132162436E+02  0.86173709126E+01  0.18726409073E+02  0.00000000000E+00 0. -1.
         11    1    3    3    0    0 -0.11395085947E+02  0.12883462765E+02 -0.10452864304E+02  0.20126946340E+02  0.51100000000E-03 0. -1.
        -11    1    3    3    0    0  0.85535206176E+01 -0.12484122055E+02 -0.19340595906E+02  0.24557578641E+02  0.51100000000E-03 0.  1.
         12    1    3    3    0    0  0.11599493179E+02  0.13732821727E+02  0.21176089298E+02  0.27777065946E+02  0.00000000000E+00 0. -1.
</event>
<event>
 7    1  0.2873608E-013  0.7246159E+02  0.7816164E-02  0.1226708E+00
        -11   -1    0    0    0    0  0.00000000000E+00  0.00000000000E+00  0.45593999997E+02  0.45594000000E+02  0.51100000000E-03 0. -1.
         11   -1    0    0    0    0 -0.00000000000E+00 -0.00000000000E+00 -0.45593999997E+02  0.45594000000E+02  0.51100000000E-03 0.  1.
    9900012    2    1    2    0    0 -0.46514948219E+01  0.17957949155E+02 -0.25601300873E+01  0.72461585287E+02  0.70000019531E+02 0.  0.
         12    1    1    2    0    0  0.46514948219E+01 -0.17957949155E+02  0.25601300873E+01  0.18726414713E+02  0.00000000000E+00 0. -1.
         11    1    3    3    0    0 -0.62083975447E+01 -0.94327639837E+01  0.37801600839E+01  0.11908435958E+02  0.51100000000E-03 0. -1.
        -11    1    3    3    0    0 -0.17819458258E+02  0.19124474332E+01 -0.19011564432E+02  0.26127191396E+02  0.51100000000E-03 0.  1.
        -12    1    3    3    0    0  0.19376360981E+02  0.25478265706E+02  0.12671274261E+02  0.34425957933E+02  0.00000000000E+00 0.  1.
</event>
<event>
 7    1  0.2873608E-013  0.7246172E+02  0.7816164E-02  0.1226708E+00
        -11   -1    0    0    0    0  0.00000000000E+00  0.00000000000E+00  0.45593999997E+02  0.45594000000E+02  0.51100000000E-03 0.  1.
         11   -1    0    0    0    0 -0.00000000000E+00 -0.00000000000E+00 -0.45593999997E+02  0.45594000000E+02  0.51100000000E-03 0. -1.
    9900012    2    1    2    0    0 -0.17010835121E+02 -0.19130392651E+00  0.78274115410E+01  0.72461722203E+02  0.70000197889E+02 0.  0.
         12    1    1    2    0    0  0.17010835121E+02  0.19130392651E+00 -0.78274115410E+01  0.18726277797E+02  0.00000000000E+00 0. -1.
         11    1    3    3    0    0 -0.31730164035E+01 -0.13246967175E+02 -0.14859138313E+01  0.13702485636E+02  0.51100000000E-03 0. -1.
        -11    1    3    3    0    0 -0.30218077202E+01  0.34022651684E+02  0.82715671918E+01  0.35143861108E+02  0.51100000000E-03 0.  1.
         12    1    3    3    0    0 -0.10816010997E+02 -0.20966988436E+02  0.10417581806E+01  0.23615375459E+02  0.00000000000E+00 0. -1.
</event>
<event>
 7    1  0.2873608E-013  0.7246198E+02  0.7816164E-02  0.1226707E+00
        -11   -1    0    0    0    0  0.00000000000E+00  0.00000000000E+00  0.45593999997E+02  0.45594000000E+02  0.51100000000E-03 0.  1.
         11   -1    0    0    0    0 -0.00000000000E+00 -0.00000000000E+00 -0.45593999997E+02  0.45594000000E+02  0.51100000000E-03 0. -1.
    9900012    2    1    2    0    0 -0.13798964331E+02 -0.36172276709E+01  0.12131285287E+02  0.72461979725E+02  0.70000533357E+02 0.  0.
         12    1    1    2    0    0  0.13798964331E+02  0.36172276709E+01 -0.12131285287E+02  0.18726020275E+02  0.00000000000E+00 0. -1.
         11    1    3    3    0    0 -0.11657924323E+02  0.79463760980E+01 -0.48736605992E+01  0.14926642640E+02  0.51100000000E-03 0. -1.
        -11    1    3    3    0    0  0.12234986982E+02  0.17652964918E+02  0.16702867992E+01  0.21543257301E+02  0.51100000000E-03 0.  1.
        -12    1    3    3    0    0 -0.14376026990E+02 -0.29216568687E+02  0.15334659087E+02  0.35992079784E+02  0.00000000000E+00 0.  1.
</event>
<event>
 7    1  0.2873608E-013  0.7246157E+02  0.7816164E-02  0.1226708E+00
        -11   -1    0    0    0    0  0.00000000000E+00  0.00000000000E+00  0.45593999997E+02  0.45594000000E+02  0.51100000000E-03 0.  1.
         11   -1    0    0    0    0 -0.00000000000E+00 -0.00000000000E+00 -0.45593999997E+02  0.45594000000E+02  0.51100000000E-03 0. -1.
    9900012    2    1    2    0    0  0.16377992043E+02 -0.53603841201E+01  0.73284832813E+01  0.72461574594E+02  0.70000005602E+02 0.  0.
         12    1    1    2    0    0 -0.16377992043E+02  0.53603841201E+01 -0.73284832813E+01  0.18726425406E+02  0.00000000000E+00 0. -1.
         11    1    3    3    0    0  0.20289636937E+01  0.13255566584E+01 -0.28169954067E+01  0.37160809339E+01  0.51100000000E-03 0. -1.
        -11    1    3    3    0    0  0.10433516340E+02  0.28534615031E+02  0.13304086392E+02  0.33167472517E+02  0.51100000000E-03 0.  1.
         12    1    3    3    0    0  0.39155120088E+01 -0.35220555810E+02 -0.31586077037E+01  0.35578021143E+02  0.00000000000E+00 0. -1.
</event>
<event>
 7    1  0.2873608E-013  0.7246160E+02  0.7816164E-02  0.1226708E+00
        -11   -1    0    0    0    0  0.00000000000E+00  0.00000000000E+00  0.45593999997E+02  0.45594000000E+02  0.51100000000E-03 0. -1.
         11   -1    0    0    0    0 -0.00000000000E+00 -0.00000000000E+00 -0.45593999997E+02  0.45594000000E+02  0.51100000000E-03 0.  1.
    9900012    2    1    2    0    0  0.53534049748E+01  0.12514915966E+02 -0.12860643396E+02  0.72461595780E+02  0.70000033199E+02 0.  0.
         12    1    1    2    0    0 -0.53534049748E+01 -0.12514915966E+02  0.12860643396E+02  0.18726404220E+02  0.00000000000E+00 0. -1.
         11    1    3    3    0    0 -0.55779427618E+01 -0.90798011424E+01 -0.16658609913E+02  0.19775376576E+02  0.51100000000E-03 0. -1.
        -11    1    3    3    0    0 -0.16766758771E+02  0.14484686315E+02 -0.51027176142E+01  0.22736931733E+02  0.51100000000E-03 0.  1.
         12    1    3    3    0    0  0.27698106507E+02  0.71100307933E+01  0.89006841309E+01  0.29949287470E+02  0.00000000000E+00 0. -1.
</event>
<event>
 7    1  0.2873608E-013  0.7246145E+02  0.7816164E-02  0.1226708E+00
        -11   -1    0    0    0    0  0.00000000000E+00  0.00000000000E+00  0.45593999997E+02  0.45594000000E+02  0.51100000000E-03 0.  1.
         11   -1    0    0    0    0 -0.00000000000E+00 -0.00000000000E+00 -0.45593999997E+02  0.45594000000E+02  0.51100000000E-03 0. -1.
    9900012    2    1    2    0    0 -0.58047856635E+01 -0.14715689783E+02  0.10021801605E+02  0.72461452806E+02  0.69999846949E+02 0.  0.
         12    1    1    2    0    0  0.58047856635E+01  0.14715689783E+02 -0.10021801605E+02  0.18726547194E+02  0.00000000000E+00 0. -1.
         11    1    3    3    0    0 -0.10814783536E+02 -0.28820653110E+01 -0.47651868924E+01  0.12164409142E+02  0.51100000000E-03 0. -1.
        -11    1    3    3    0    0 -0.18133363940E+02 -0.54434538673E+01  0.27300020723E+02  0.33222600884E+02  0.51100000000E-03 0.  1.
         12    1    3    3    0    0  0.23143361812E+02 -0.63901706050E+01 -0.12513032226E+02  0.27074442779E+02  0.00000000000E+00 0. -1.
</event>
<event>
 7    1  0.2873608E-013  0.7246161E+02  0.7816164E-02  0.1226708E+00
        -11   -1    0    0    0    0  0.00000000000E+00  0.00000000000E+00  0.45593999997E+02  0.45594000000E+02  0.51100000000E-03 0. -1.
         11   -1    0    0    0    0 -0.00000000000E+00 -0.00000000000E+00 -0.45593999997E+02  0.45594000000E+02  0.51100000000E-03 0.  1.
    9900012    2    1    2    0    0  0.85310139189E+01 -0.14928468528E+02 -0.74189043643E+01  0.72461614523E+02  0.70000057616E+02 0.  0.
         12    1    1    2    0    0 -0.85310139189E+01  0.14928468528E+02  0.74189043643E+01  0.18726385477E+02  0.00000000000E+00 0. -1.
         11    1    3    3    0    0 -0.46351405838E+00 -0.12900215492E+02  0.18497232106E+02  0.22556107840E+02  0.51100000000E-03 0. -1.
        -11    1    3    3    0    0  0.21237454641E+02 -0.11696895075E+02 -0.67003017513E+01  0.25154341133E+02  0.51100000000E-03 0.  1.
         12    1    3    3    0    0 -0.12242926664E+02  0.96686420393E+01 -0.19215834719E+02  0.24751165551E+02  0.00000000000E+00 0. -1.
</event>
<event>
 7    1  0.2873608E-013  0.7246157E+02  0.7816164E-02  0.1226708E+00
        -11   -1    0    0    0    0  0.00000000000E+00  0.00000000000E+00  0.45593999997E+02  0.45594000000E+02  0.51100000000E-03 0.  1.
         11   -1    0    0    0    0 -0.00000000000E+00 -0.00000000000E+00 -0.45593999997E+02  0.45594000000E+02  0.51100000000E-03 0. -1.
    9900012    2    1    2    0    0 -0.17882922086E+02  0.14165902595E+01  0.53733994520E+01  0.72461573433E+02  0.70000004089E+02 0.  0.
         12    1    1    2    0    0  0.17882922086E+02 -0.14165902595E+01 -0.53733994520E+01  0.18726426567E+02  0.00000000000E+00 0. -1.
         11    1    3    3    0    0 -0.13824529696E+02  0.14458822504E+02 -0.50338314757E+01  0.20628005941E+02  0.51100000000E-03 0. -1.
        -11    1    3    3    0    0  0.18304158572E+02  0.72022465193E+01  0.90121768165E+01  0.21636402362E+02  0.51100000000E-03 0.  1.
         12    1    3    3    0    0 -0.22362550962E+02 -0.20244478764E+02  0.13950541112E+01  0.30197165130E+02  0.00000000000E+00 0. -1.
</event>
<event>
 7    1  0.2873608E-013  0.7246096E+02  0.7816164E-02  0.1226710E+00
        -11   -1    0    0    0    0  0.00000000000E+00  0.00000000000E+00  0.45593999997E+02  0.45594000000E+02  0.51100000000E-03 0. -1.
         11   -1    0    0    0    0 -0.00000000000E+00 -0.00000000000E+00 -0.45593999997E+02  0.45594000000E+02  0.51100000000E-03 0.  1.
    9900012    2    1    2    0    0 -0.92290865520E+01  0.15757011507E+02 -0.41524252322E+01  0.72460958441E+02  0.69999202943E+02 0.  0.
         12    1    1    2    0    0  0.92290865520E+01 -0.15757011507E+02  0.41524252322E+01  0.18727041559E+02  0.00000000000E+00 0. -1.
         11    1    3    3    0    0  0.74481722517E+01 -0.13076959263E+02 -0.22607930567E+02  0.27158804433E+02  0.51100000000E-03 0. -1.
        -11    1    3    3    0    0 -0.19166637882E+01 -0.38527177439E+01 -0.11147827863E+01  0.44451968475E+01  0.51100000000E-03 0.  1.
        -12    1    3    3    0    0 -0.14760595015E+02  0.32686688515E+02  0.19570288121E+02  0.40856957160E+02  0.00000000000E+00 0.  1.
</event>
<event>
 7    1  0.2873608E-013  0.7246157E+02  0.7816164E-02  0.1226708E+00
        -11   -1    0    0    0    0  0.00000000000E+00  0.00000000000E+00  0.45593999997E+02  0.45594000000E+02  0.51100000000E-03 0.  1.
         11   -1    0    0    0    0 -0.00000000000E+00 -0.00000000000E+00 -0.45593999997E+02  0.45594000000E+02  0.51100000000E-03 0. -1.
    9900012    2    1    2    0    0  0.33792589159E+01  0.88094601645E+01  0.16175699875E+02  0.72461568261E+02  0.69999997351E+02 0.  0.
         12    1    1    2    0    0 -0.33792589159E+01 -0.88094601645E+01 -0.16175699875E+02  0.18726431739E+02  0.00000000000E+00 0. -1.
         11    1    3    3    0    0  0.12018816794E+02 -0.10726540740E+02 -0.36880788202E+01  0.16526117481E+02  0.51100000000E-03 0. -1.
        -11    1    3    3    0    0 -0.56068777078E+01  0.18003073130E+02  0.35358724932E+02  0.40072274066E+02  0.51100000000E-03 0.  1.
         12    1    3    3    0    0 -0.30326801699E+01  0.15329277744E+01 -0.15494946236E+02  0.15863176713E+02  0.00000000000E+00 0. -1.
</event>
<event>
 7    1  0.2873608E-013  0.7246161E+02  0.7816164E-02  0.1226708E+00
        -11   -1    0    0    0    0  0.00000000000E+00  0.00000000000E+00  0.45593999997E+02  0.45594000000E+02  0.51100000000E-03 0.  1.
         11   -1    0    0    0    0 -0.00000000000E+00 -0.00000000000E+00 -0.45593999997E+02  0.45594000000E+02  0.51100000000E-03 0. -1.
    9900012    2    1    2    0    0 -0.10275709517E+02  0.15623048231E+02  0.10039427330E+01  0.72461608380E+02  0.70000049613E+02 0.  0.
         12    1    1    2    0    0  0.10275709517E+02 -0.15623048231E+02 -0.10039427330E+01  0.18726391620E+02  0.00000000000E+00 0. -1.
         11    1    3    3    0    0 -0.85407142895E+01 -0.49594186780E+01  0.11276050807E+01  0.99403786486E+01  0.51100000000E-03 0. -1.
        -11    1    3    3    0    0 -0.13379229717E+01 -0.20545895569E+02  0.46704812404E+01  0.21112490566E+02  0.51100000000E-03 0.  1.
         12    1    3    3    0    0 -0.39707225575E+00  0.41128362478E+02 -0.47941435881E+01  0.41408739165E+02  0.00000000000E+00 0. -1.
</event>
<event>
 7    1  0.2873608E-013  0.7246157E+02  0.7816164E-02  0.1226708E+00
        -11   -1    0    0    0    0  0.00000000000E+00  0.00000000000E+00  0.45593999997E+02  0.45594000000E+02  0.51100000000E-03 0.  1.
         11   -1    0    0    0    0 -0.00000000000E+00 -0.00000000000E+00 -0.45593999997E+02  0.45594000000E+02  0.51100000000E-03 0. -1.
    9900012    2    1    2    0    0 -0.13294406278E+02 -0.89382718409E+01 -0.96976953951E+01  0.72461568472E+02  0.69999997626E+02 0.  0.
         12    1    1    2    0    0  0.13294406278E+02  0.89382718409E+01  0.96976953951E+01  0.18726431528E+02  0.00000000000E+00 0. -1.
         11    1    3    3    0    0 -0.12819236807E+02  0.19529915398E+02  0.14527886466E+02  0.27510178356E+02  0.51100000000E-03 0. -1.
        -11    1    3    3    0    0  0.40304156343E+01  0.12724655998E+01  0.23302644168E+01  0.48263393375E+01  0.51100000000E-03 0.  1.
        -12    1    3    3    0    0 -0.45055851055E+01 -0.29740652839E+02 -0.26555846278E+02  0.40125050778E+02  0.00000000000E+00 0.  1.
</event>
<event>
 7    1  0.2873608E-013  0.7246162E+02  0.7816164E-02  0.1226708E+00
        -11   -1    0    0    0    0  0.00000000000E+00  0.00000000000E+00  0.45593999997E+02  0.45594000000E+02  0.51100000000E-03 0.  1.
         11   -1    0    0    0    0 -0.00000000000E+00 -0.00000000000E+00 -0.45593999997E+02  0.45594000000E+02  0.51100000000E-03 0. -1.
    9900012    2    1    2    0    0 -0.90308820659E+01  0.79779603802E+01  0.14334315561E+02  0.72461620603E+02  0.70000065537E+02 0.  0.
         12    1    1    2    0    0  0.90308820659E+01 -0.79779603802E+01 -0.14334315561E+02  0.18726379397E+02  0.00000000000E+00 0. -1.
         11    1    3    3    0    0 -0.59533495479E+01  0.54835033308E+01 -0.26486836126E+02  0.27695914281E+02  0.51100000000E-03 0. -1.
        -11    1    3    3    0    0 -0.74275476096E+01 -0.15460600119E+01  0.66685636171E+01  0.10100916099E+02  0.51100000000E-03 0.  1.
        -12    1    3    3    0    0  0.43500150915E+01  0.40405170613E+01  0.34152588070E+02  0.34664790224E+02  0.00000000000E+00 0.  1.
</event>
<event>
 7    1  0.2873608E-013  0.7246159E+02  0.7816164E-02  0.1226708E+00
        -11   -1    0    0    0    0  0.00000000000E+00  0.00000000000E+00  0.45593999997E+02  0.45594000000E+02  0.51100000000E-03 0. -1.
         11   -1    0    0    0    0 -0.00000000000E+00 -0.00000000000E+00 -0.45593999997E+02  0.45594000000E+02  0.51100000000E-03 0.  1.
    9900012    2    1    2    0    0  0.22332464628E+01 -0.31867036541E+01 -0.18317639248E+02  0.72461591439E+02  0.70000027545E+02 0.  0.
         12    1    1    2    0    0 -0.22332464628E+01  0.31867036541E+01  0.18317639248E+02  0.18726408561E+02  0.00000000000E+00 0. -1.
         11    1    3    3    0    0  0.39241051096E+01 -0.10171033354E+02 -0.11925441268E+02  0.16157495787E+02  0.51100000000E-03 0. -1.
        -11    1    3    3    0    0 -0.16380098002E+01  0.40712205729E+01 -0.31108577644E+02  0.31416580278E+02  0.51100000000E-03 0.  1.
         12    1    3    3    0    0 -0.52848846630E-01  0.29131091267E+01  0.24716379665E+02  0.24887515374E+02  0.00000000000E+00 0. -1.
</event>
<event>
 7    1  0.2873608E-013  0.7246158E+02  0.7816164E-02  0.1226708E+00
        -11   -1    0    0    0    0  0.00000000000E+00  0.00000000000E+00  0.45593999997E+02  0.45594000000E+02  0.51100000000E-03 0. -1.
         11   -1    0    0    0    0 -0.00000000000E+00 -0.00000000000E+00 -0.45593999997E+02  0.45594000000E+02  0.51100000000E-03 0.  1.
    9900012    2    1    2    0    0  0.16542779116E+02 -0.93651375086E+00 -0.87257164839E+01  0.72461582109E+02  0.70000015390E+02 0.  0.
         12    1    1    2    0    0 -0.16542779116E+02  0.93651375086E+00  0.87257164839E+01  0.18726417891E+02  0.00000000000E+00 0. -1.
         11    1    3    3    0    0  0.18890731832E+01  0.11226983264E+02 -0.53882177945E+01  0.12595500862E+02  0.51100000000E-03 0. -1.
        -11    1    3    3    0    0  0.35512062360E+02 -0.94200284269E+01  0.53065688802E+01  0.37121465249E+02  0.51100000000E-03 0.  1.
         12    1    3    3    0    0 -0.20858356428E+02 -0.27434685878E+01 -0.86440675696E+01  0.22744615998E+02  0.00000000000E+00 0. -1.
</event>
<event>
 7    1  0.2873608E-013  0.7246159E+02  0.7816164E-02  0.1226708E+00
        -11   -1    0    0    0    0  0.00000000000E+00  0.00000000000E+00  0.45593999997E+02  0.45594000000E+02  0.51100000000E-03 0.  1.
         11   -1    0    0    0    0 -0.00000000000E+00 -0.00000000000E+00 -0.45593999997E+02  0.45594000000E+02  0.51100000000E-03 0. -1.
    9900012    2    1    2    0    0 -0.11343210157E+02  0.48892741018E+01  0.14074980192E+02  0.72461588563E+02  0.70000023798E+02 0.  0.
         12    1    1    2    0    0  0.11343210157E+02 -0.48892741018E+01 -0.14074980192E+02  0.18726411437E+02  0.00000000000E+00 0. -1.
         11    1    3    3    0    0  0.13607267892E+02  0.88715153448E+01  0.82463552802E+01  0.18217132038E+02  0.51100000000E-03 0. -1.
        -11    1    3    3    0    0  0.72926130177E+01  0.33583337785E+01  0.17438112673E+02  0.19197614025E+02  0.51100000000E-03 0.  1.
         12    1    3    3    0    0 -0.32243091067E+02 -0.73405750215E+01 -0.11609487761E+02  0.35046842500E+02  0.00000000000E+00 0. -1.
</event>
<event>
 7    1  0.2873608E-013  0.7246145E+02  0.7816164E-02  0.1226708E+00
        -11   -1    0    0    0    0  0.00000000000E+00  0.00000000000E+00  0.45593999997E+02  0.45594000000E+02  0.51100000000E-03 0.  1.
         11   -1    0    0    0    0 -0.00000000000E+00 -0.00000000000E+00 -0.45593999997E+02  0.45594000000E+02  0.51100000000E-03 0. -1.
    9900012    2    1    2    0    0 -0.82496259832E+01  0.16701096086E+02  0.19237174401E+01  0.72461451249E+02  0.69999844921E+02 0.  0.
         12    1    1    2    0    0  0.82496259832E+01 -0.16701096086E+02 -0.19237174401E+01  0.18726548751E+02  0.00000000000E+00 0. -1.
         11    1    3    3    0    0  0.17380995983E+02 -0.64321629214E+01 -0.12174810343E+02  0.22174258688E+02  0.51100000000E-03 0. -1.
        -11    1    3    3    0    0 -0.33075281428E+01  0.91647615486E+01 -0.10449037496E+02  0.14286881448E+02  0.51100000000E-03 0.  1.
        -12    1    3    3    0    0 -0.22323093823E+02  0.13968497459E+02  0.24547565279E+02  0.36000311113E+02  0.00000000000E+00 0.  1.
</event>
<event>
 7    1  0.2873608E-013  0.7246159E+02  0.7816164E-02  0.1226708E+00
        -11   -1    0    0    0    0  0.00000000000E+00  0.00000000000E+00  0.45593999997E+02  0.45594000000E+02  0.51100000000E-03 0. -1.
         11   -1    0    0    0    0 -0.00000000000E+00 -0.00000000000E+00 -0.45593999997E+02  0.45594000000E+02  0.51100000000E-03 0.  1.
    9900012    2    1    2    0    0  0.16877329470E+02  0.41113776310E+01 -0.69950392329E+01  0.72461594847E+02  0.70000031985E+02 0.  0.
         12    1    1    2    0    0 -0.16877329470E+02 -0.41113776310E+01  0.69950392329E+01  0.18726405153E+02  0.00000000000E+00 0. -1.
         11    1    3    3    0    0  0.16138407299E+02 -0.42029862350E+01  0.23908581218E+02  0.29150189357E+02  0.51100000000E-03 0. -1.
        -11    1    3    3    0    0 -0.93564419517E+01  0.80467138513E+01 -0.17574287303E+01  0.12465198185E+02  0.51100000000E-03 0.  1.
        -12    1    3    3    0    0  0.10095364123E+02  0.26765001470E+00 -0.29146191720E+02  0.30846207305E+02  0.00000000000E+00 0.  1.
</event>
<event>
 7    1  0.2873608E-013  0.7246151E+02  0.7816164E-02  0.1226708E+00
        -11   -1    0    0    0    0  0.00000000000E+00  0.00000000000E+00  0.45593999997E+02  0.45594000000E+02  0.51100000000E-03 0. -1.
         11   -1    0    0    0    0 -0.00000000000E+00 -0.00000000000E+00 -0.45593999997E+02  0.45594000000E+02  0.51100000000E-03 0.  1.
    9900012    2    1    2    0    0 -0.14393624170E+02 -0.11890892737E+02  0.14532228812E+01  0.72461505305E+02  0.69999915339E+02 0.  0.
         12    1    1    2    0    0  0.14393624170E+02  0.11890892737E+02 -0.14532228812E+01  0.18726494695E+02  0.00000000000E+00 0. -1.
         11    1    3    3    0    0  0.15096467563E+02  0.46325897795E+01  0.14874204380E+02  0.21693459317E+02  0.51100000000E-03 0. -1.
        -11    1    3    3    0    0 -0.16639679331E+02 -0.51663557018E+01  0.11236939878E+02  0.20732558394E+02  0.51100000000E-03 0.  1.
        -12    1    3    3    0    0 -0.12850412402E+02 -0.11357126814E+02 -0.24657921377E+02  0.30035487594E+02  0.00000000000E+00 0.  1.
</event>
<event>
 7    1  0.2873608E-013  0.7246162E+02  0.7816164E-02  0.1226708E+00
        -11   -1    0    0    0    0  0.00000000000E+00  0.00000000000E+00  0.45593999997E+02  0.45594000000E+02  0.51100000000E-03 0. -1.
         11   -1    0    0    0    0 -0.00000000000E+00 -0.00000000000E+00 -0.45593999997E+02  0.45594000000E+02  0.51100000000E-03 0.  1.
    9900012    2    1    2    0    0 -0.13241828819E+02 -0.13221303494E+02 -0.72697989922E+00  0.72461617639E+02  0.70000061675E+02 0.  0.
         12    1    1    2    0    0  0.13241828819E+02  0.13221303494E+02  0.72697989922E+00  0.18726382361E+02  0.00000000000E+00 0. -1.
         11    1    3    3    0    0  0.19521698451E+01 -0.46262531080E+01  0.24641113432E+01  0.55933022354E+01  0.51100000000E-03 0. -1.
        -11    1    3    3    0    0 -0.37834667985E+02  0.46774267224E+01  0.69163832179E+01  0.38745022640E+02  0.51100000000E-03 0.  1.
         12    1    3    3    0    0  0.22640669321E+02 -0.13272477109E+02 -0.10107474460E+02  0.28123292764E+02  0.00000000000E+00 0. -1.
</event>
<event>
 7    1  0.2873608E-013  0.7246159E+02  0.7816164E-02  0.1226708E+00
        -11   -1    0    0    0    0  0.00000000000E+00  0.00000000000E+00  0.45593999997E+02  0.45594000000E+02  0.51100000000E-03 0.  1.
         11   -1    0    0    0    0 -0.00000000000E+00 -0.00000000000E+00 -0.45593999997E+02  0.45594000000E+02  0.51100000000E-03 0. -1.
    9900012    2    1    2    0    0  0.76815243820E+01 -0.12653570119E+02  0.11469944658E+02  0.72461593937E+02  0.70000030799E+02 0.  0.
         12    1    1    2    0    0 -0.76815243820E+01  0.12653570119E+02 -0.11469944658E+02  0.18726406063E+02  0.00000000000E+00 0. -1.
         11    1    3    3    0    0 -0.92810242708E+01 -0.16522629053E+02 -0.11269094801E+02  0.22048292002E+02  0.51100000000E-03 0. -1.
        -11    1    3    3    0    0  0.11547628134E+02 -0.74007075479E+01 -0.89292642854E+01  0.16366121980E+02  0.51100000000E-03 0.  1.
        -12    1    3    3    0    0  0.54149205185E+01  0.11269766481E+02  0.31668303744E+02  0.34047179954E+02  0.00000000000E+00 0.  1.
</event>
<event>
 7    1  0.2873608E-013  0.7246149E+02  0.7816164E-02  0.1226708E+00
        -11   -1    0    0    0    0  0.00000000000E+00  0.00000000000E+00  0.45593999997E+02  0.45594000000E+02  0.51100000000E-03 0. -1.
         11   -1    0    0    0    0 -0.00000000000E+00 -0.00000000000E+00 -0.45593999997E+02  0.45594000000E+02  0.51100000000E-03 0.  1.
    9900012    2    1    2    0    0 -0.12218982238E+02  0.14025526888E+02 -0.21594879140E+01  0.72461486191E+02  0.69999890439E+02 0.  0.
         12    1    1    2    0    0  0.12218982238E+02 -0.14025526888E+02  0.21594879140E+01  0.18726513809E+02  0.00000000000E+00 0. -1.
         11    1    3    3    0    0  0.10891649775E+02 -0.54046747362E+01 -0.77266476236E+01  0.14406235719E+02  0.51100000000E-03 0. -1.
        -11    1    3    3    0    0 -0.26524165702E+02  0.88686354257E+01 -0.17124934051E+02  0.32794015110E+02  0.51100000000E-03 0.  1.
         12    1    3    3    0    0  0.34135336896E+01  0.10561566198E+02  0.22692093760E+02  0.25261235363E+02  0.00000000000E+00 0. -1.
</event>
<event>
 7    1  0.2873608E-013  0.7246150E+02  0.7816164E-02  0.1226708E+00
        -11   -1    0    0    0    0  0.00000000000E+00  0.00000000000E+00  0.45593999997E+02  0.45594000000E+02  0.51100000000E-03 0.  1.
         11   -1    0    0    0    0 -0.00000000000E+00 -0.00000000000E+00 -0.45593999997E+02  0.45594000000E+02  0.51100000000E-03 0. -1.
    9900012    2    1    2    0    0 -0.12687272658E+02  0.12184722141E+02 -0.64224119673E+01  0.72461502286E+02  0.69999911406E+02 0.  0.
         12    1    1    2    0    0  0.12687272658E+02 -0.12184722141E+02  0.64224119673E+01  0.18726497714E+02  0.00000000000E+00 0. -1.
         11    1    3    3    0    0 -0.19729999456E+02  0.43985909210E+01  0.62995775511E+01  0.21173217947E+02  0.51100000000E-03 0.  1.
        -11    1    3    3    0    0 -0.14667210674E+02  0.28533714123E+01  0.11151577732E+02  0.18644744126E+02  0.51100000000E-03 0. -1.
         12    1    3    3    0    0  0.21709937472E+02  0.49327598081E+01 -0.23873567250E+02  0.32643540212E+02  0.00000000000E+00 0. -1.
</event>
<event>
 7    1  0.2873608E-013  0.7246206E+02  0.7816164E-02  0.1226707E+00
        -11   -1    0    0    0    0  0.00000000000E+00  0.00000000000E+00  0.45593999997E+02  0.45594000000E+02  0.51100000000E-03 0.  1.
         11   -1    0    0    0    0 -0.00000000000E+00 -0.00000000000E+00 -0.45593999997E+02  0.45594000000E+02  0.51100000000E-03 0. -1.
    9900012    2    1    2    0    0 -0.59539093884E+01 -0.12367612172E+02 -0.12737889027E+02  0.72462063850E+02  0.70000642944E+02 0.  0.
         12    1    1    2    0    0  0.59539093884E+01  0.12367612172E+02  0.12737889027E+02  0.18725936150E+02  0.00000000000E+00 0. -1.
         11    1    3    3    0    0  0.14648582597E+02  0.13436457789E+02 -0.11970558403E+02  0.23203741913E+02  0.51100000000E-03 0. -1.
        -11    1    3    3    0    0 -0.25111467762E+01  0.93460695962E+01  0.65909405274E+00  0.96999628999E+01  0.51100000000E-03 0.  1.
        -12    1    3    3    0    0 -0.18091345209E+02 -0.35150139557E+02 -0.14264246773E+01  0.39558359037E+02  0.00000000000E+00 0.  1.
</event>
<event>
 7    1  0.2873608E-013  0.7246160E+02  0.7816164E-02  0.1226708E+00
        -11   -1    0    0    0    0  0.00000000000E+00  0.00000000000E+00  0.45593999997E+02  0.45594000000E+02  0.51100000000E-03 0.  1.
         11   -1    0    0    0    0 -0.00000000000E+00 -0.00000000000E+00 -0.45593999997E+02  0.45594000000E+02  0.51100000000E-03 0. -1.
    9900012    2    1    2    0    0  0.18306278692E+01 -0.20067530368E+01  0.18528355552E+02  0.72461595764E+02  0.70000033179E+02 0.  0.
         12    1    1    2    0    0 -0.18306278692E+01  0.20067530368E+01 -0.18528355552E+02  0.18726404236E+02  0.00000000000E+00 0. -1.
         11    1    3    3    0    0  0.78343479808E-02 -0.46204851357E+01 -0.10418965362E+02  0.11397534108E+02  0.51100000000E-03 0. -1.
        -11    1    3    3    0    0 -0.14988113746E+02  0.22882862518E+02  0.16402326215E+02  0.31895223094E+02  0.51100000000E-03 0.  1.
         12    1    3    3    0    0  0.16810907267E+02 -0.20269130419E+02  0.12544994699E+02  0.29168838562E+02  0.00000000000E+00 0. -1.
</event>
<event>
 7    1  0.2873608E-013  0.7246150E+02  0.7816164E-02  0.1226708E+00
        -11   -1    0    0    0    0  0.00000000000E+00  0.00000000000E+00  0.45593999997E+02  0.45594000000E+02  0.51100000000E-03 0.  1.
         11   -1    0    0    0    0 -0.00000000000E+00 -0.00000000000E+00 -0.45593999997E+02  0.45594000000E+02  0.51100000000E-03 0. -1.
    9900012    2    1    2    0    0 -0.16649036110E+02  0.44132339203E+01 -0.73494831129E+01  0.72461496347E+02  0.69999903670E+02 0.  0.
         12    1    1    2    0    0  0.16649036110E+02 -0.44132339203E+01  0.73494831129E+01  0.18726503653E+02  0.00000000000E+00 0. -1.
         11    1    3    3    0    0  0.75750602900E+01 -0.38574210508E+00 -0.71513347564E+01  0.10424582698E+02  0.51100000000E-03 0. -1.
        -11    1    3    3    0    0  0.25714788000E+01  0.11781707443E+02  0.22963126770E+02  0.25936968304E+02  0.51100000000E-03 0.  1.
        -12    1    3    3    0    0 -0.26795575200E+02 -0.69827314181E+01 -0.23161275127E+02  0.36099945344E+02  0.00000000000E+00 0.  1.
</event>
<event>
 7    1  0.2873608E-013  0.7246169E+02  0.7816164E-02  0.1226708E+00
        -11   -1    0    0    0    0  0.00000000000E+00  0.00000000000E+00  0.45593999997E+02  0.45594000000E+02  0.51100000000E-03 0. -1.
         11   -1    0    0    0    0 -0.00000000000E+00 -0.00000000000E+00 -0.45593999997E+02  0.45594000000E+02  0.51100000000E-03 0.  1.
    9900012    2    1    2    0    0  0.22692578721E+01 -0.17675592124E+02 -0.57531231787E+01  0.72461694584E+02  0.70000161910E+02 0.  0.
         12    1    1    2    0    0 -0.22692578721E+01  0.17675592124E+02  0.57531231787E+01  0.18726305416E+02  0.00000000000E+00 0. -1.
         11    1    3    3    0    0  0.75789199380E+01  0.17072030734E+01 -0.19401031692E+01  0.80074072164E+01  0.51100000000E-03 0. -1.
        -11    1    3    3    0    0  0.25565224011E+01 -0.37218065950E+02 -0.16921126584E+02  0.40963944695E+02  0.51100000000E-03 0.  1.
         12    1    3    3    0    0 -0.78661844670E+01  0.17835270753E+02  0.13108106574E+02  0.23490342672E+02  0.00000000000E+00 0. -1.
</event>
<event>
 7    1  0.2873608E-013  0.7246157E+02  0.7816164E-02  0.1226708E+00
        -11   -1    0    0    0    0  0.00000000000E+00  0.00000000000E+00  0.45593999997E+02  0.45594000000E+02  0.51100000000E-03 0. -1.
         11   -1    0    0    0    0 -0.00000000000E+00 -0.00000000000E+00 -0.45593999997E+02  0.45594000000E+02  0.51100000000E-03 0.  1.
    9900012    2    1    2    0    0 -0.86796912310E+01  0.12361878893E+02 -0.11069153015E+02  0.72461568463E+02  0.69999997615E+02 0.  0.
         12    1    1    2    0    0  0.86796912310E+01 -0.12361878893E+02  0.11069153015E+02  0.18726431537E+02  0.00000000000E+00 0. -1.
         11    1    3    3    0    0  0.15875842355E+02  0.20429410986E+01  0.10409811956E+02  0.19093982404E+02  0.51100000000E-03 0. -1.
        -11    1    3    3    0    0 -0.11117167717E+02 -0.15462039658E+02 -0.13088521798E+02  0.23107909718E+02  0.51100000000E-03 0.  1.
         12    1    3    3    0    0 -0.13438365869E+02  0.25780977452E+02 -0.83904431729E+01  0.30259676341E+02  0.00000000000E+00 0. -1.
</event>
<event>
 7    1  0.2873608E-013  0.7246157E+02  0.7816164E-02  0.1226708E+00
        -11   -1    0    0    0    0  0.00000000000E+00  0.00000000000E+00  0.45593999997E+02  0.45594000000E+02  0.51100000000E-03 0.  1.
         11   -1    0    0    0    0 -0.00000000000E+00 -0.00000000000E+00 -0.45593999997E+02  0.45594000000E+02  0.51100000000E-03 0. -1.
    9900012    2    1    2    0    0  0.11575391186E+02  0.62626538580E+01  0.13321741403E+02  0.72461566585E+02  0.69999995167E+02 0.  0.
         12    1    1    2    0    0 -0.11575391186E+02 -0.62626538580E+01 -0.13321741403E+02  0.18726433415E+02  0.00000000000E+00 0. -1.
         11    1    3    3    0    0  0.16542208490E+02 -0.17510908585E+02 -0.43792210746E+01  0.24483752954E+02  0.51100000000E-03 0. -1.
        -11    1    3    3    0    0  0.41177781031E+01 -0.90702469791E+01  0.72969805001E+01  0.12347931059E+02  0.51100000000E-03 0.  1.
        -12    1    3    3    0    0 -0.90845954072E+01  0.32843809422E+02  0.10403981977E+02  0.35629882572E+02  0.00000000000E+00 0.  1.
</event>
<event>
 7    1  0.2873608E-013  0.7246154E+02  0.7816164E-02  0.1226708E+00
        -11   -1    0    0    0    0  0.00000000000E+00  0.00000000000E+00  0.45593999997E+02  0.45594000000E+02  0.51100000000E-03 0. -1.
         11   -1    0    0    0    0 -0.00000000000E+00 -0.00000000000E+00 -0.45593999997E+02  0.45594000000E+02  0.51100000000E-03 0.  1.
    9900012    2    1    2    0    0  0.13738929912E+02  0.92966660414E+01 -0.86887410045E+01  0.72461537044E+02  0.69999956685E+02 0.  0.
         12    1    1    2    0    0 -0.13738929912E+02 -0.92966660414E+01  0.86887410045E+01  0.18726462956E+02  0.00000000000E+00 0. -1.
         11    1    3    3    0    0 -0.32725176459E+00 -0.17468076067E+02  0.27489684078E+01  0.17686085004E+02  0.51100000000E-03 0. -1.
        -11    1    3    3    0    0  0.77002069967E+01 -0.73666675015E+01  0.94615424190E+01  0.14250675881E+02  0.51100000000E-03 0.  1.
         12    1    3    3    0    0  0.63659746801E+01  0.34131409610E+02 -0.20899251831E+02  0.40524776158E+02  0.00000000000E+00 0. -1.
</event>
<event>
 7    1  0.2873608E-013  0.7246154E+02  0.7816164E-02  0.1226708E+00
        -11   -1    0    0    0    0  0.00000000000E+00  0.00000000000E+00  0.45593999997E+02  0.45594000000E+02  0.51100000000E-03 0.  1.
         11   -1    0    0    0    0 -0.00000000000E+00 -0.00000000000E+00 -0.45593999997E+02  0.45594000000E+02  0.51100000000E-03 0. -1.
    9900012    2    1    2    0    0 -0.14058394785E+02 -0.11739954029E+01  0.12315176163E+02  0.72461540296E+02  0.69999960921E+02 0.  0.
         12    1    1    2    0    0  0.14058394785E+02  0.11739954029E+01 -0.12315176163E+02  0.18726459704E+02  0.00000000000E+00 0. -1.
         11    1    3    3    0    0 -0.51103177955E+01 -0.82105225401E+01 -0.47635195181E+01  0.10780498449E+02  0.51100000000E-03 0. -1.
        -11    1    3    3    0    0  0.11844810744E+02 -0.20423816179E+02  0.13118514139E+02  0.27009761611E+02  0.51100000000E-03 0.  1.
         12    1    3    3    0    0 -0.20792887733E+02  0.27460343316E+02  0.39601815430E+01  0.34671280235E+02  0.00000000000E+00 0. -1.
</event>
<event>
 7    1  0.2873608E-013  0.7246128E+02  0.7816164E-02  0.1226709E+00
        -11   -1    0    0    0    0  0.00000000000E+00  0.00000000000E+00  0.45593999997E+02  0.45594000000E+02  0.51100000000E-03 0.  1.
         11   -1    0    0    0    0 -0.00000000000E+00 -0.00000000000E+00 -0.45593999997E+02  0.45594000000E+02  0.51100000000E-03 0. -1.
    9900012    2    1    2    0    0  0.16496835800E+02 -0.80479908251E+01  0.37113598100E+01  0.72461282739E+02  0.69999625404E+02 0.  0.
         12    1    1    2    0    0 -0.16496835800E+02  0.80479908251E+01 -0.37113598100E+01  0.18726717261E+02  0.00000000000E+00 0. -1.
         11    1    3    3    0    0 -0.19030360105E+02 -0.13314452525E+02 -0.21564806715E+01  0.23325515234E+02  0.51100000000E-03 0. -1.
        -11    1    3    3    0    0  0.14758507657E+02  0.42233142837E+01  0.19087562119E+02  0.24494590417E+02  0.51100000000E-03 0.  1.
         12    1    3    3    0    0  0.20768688249E+02  0.10431474166E+01 -0.13219721637E+02  0.24641177088E+02  0.00000000000E+00 0. -1.
</event>
<event>
 7    1  0.2873608E-013  0.7246155E+02  0.7816164E-02  0.1226708E+00
        -11   -1    0    0    0    0  0.00000000000E+00  0.00000000000E+00  0.45593999997E+02  0.45594000000E+02  0.51100000000E-03 0. -1.
         11   -1    0    0    0    0 -0.00000000000E+00 -0.00000000000E+00 -0.45593999997E+02  0.45594000000E+02  0.51100000000E-03 0.  1.
    9900012    2    1    2    0    0 -0.40783726135E+01  0.31819138156E+01 -0.17997843661E+02  0.72461546114E+02  0.69999968501E+02 0.  0.
         12    1    1    2    0    0  0.40783726135E+01 -0.31819138156E+01  0.17997843661E+02  0.18726453886E+02  0.00000000000E+00 0. -1.
         11    1    3    3    0    0 -0.59763639657E+00  0.16964301496E+02 -0.59101795952E+00  0.16985111039E+02  0.51100000000E-03 0. -1.
        -11    1    3    3    0    0 -0.16543825036E+02 -0.27677433374E+02 -0.47638736671E+01  0.32594983626E+02  0.51100000000E-03 0.  1.
         12    1    3    3    0    0  0.13063088819E+02  0.13895045693E+02 -0.12642952034E+02  0.22881451450E+02  0.00000000000E+00 0. -1.
</event>
<event>
 7    1  0.2873608E-013  0.7246158E+02  0.7816164E-02  0.1226708E+00
        -11   -1    0    0    0    0  0.00000000000E+00  0.00000000000E+00  0.45593999997E+02  0.45594000000E+02  0.51100000000E-03 0. -1.
         11   -1    0    0    0    0 -0.00000000000E+00 -0.00000000000E+00 -0.45593999997E+02  0.45594000000E+02  0.51100000000E-03 0.  1.
    9900012    2    1    2    0    0 -0.71373663871E+01 -0.15762514810E+02  0.71610102864E+01  0.72461576412E+02  0.70000007969E+02 0.  0.
         12    1    1    2    0    0  0.71373663871E+01  0.15762514810E+02 -0.71610102864E+01  0.18726423588E+02  0.00000000000E+00 0. -1.
         11    1    3    3    0    0 -0.15120305251E+02 -0.76298079942E+01  0.49427402870E+01  0.17642796907E+02  0.51100000000E-03 0. -1.
        -11    1    3    3    0    0 -0.16454474502E+02 -0.21314887751E+02 -0.39372413480E+00  0.26930079650E+02  0.51100000000E-03 0.  1.
         12    1    3    3    0    0  0.24437413366E+02  0.13182180936E+02  0.26119941342E+01  0.27888699855E+02  0.00000000000E+00 0. -1.
</event>
<event>
 7    1  0.2873608E-013  0.7246158E+02  0.7816164E-02  0.1226708E+00
        -11   -1    0    0    0    0  0.00000000000E+00  0.00000000000E+00  0.45593999997E+02  0.45594000000E+02  0.51100000000E-03 0.  1.
         11   -1    0    0    0    0 -0.00000000000E+00 -0.00000000000E+00 -0.45593999997E+02  0.45594000000E+02  0.51100000000E-03 0. -1.
    9900012    2    1    2    0    0  0.81014014488E+01 -0.16853836612E+02 -0.99719198293E+00  0.72461577335E+02  0.70000009172E+02 0.  0.
         12    1    1    2    0    0 -0.81014014488E+01  0.16853836612E+02  0.99719198293E+00  0.18726422665E+02  0.00000000000E+00 0. -1.
         11    1    3    3    0    0 -0.31408154554E+01  0.62740112671E+01 -0.15917215182E+02  0.17394990041E+02  0.51100000000E-03 0. -1.
        -11    1    3    3    0    0 -0.10171361917E+02  0.83154530481E+01  0.10401255314E+02  0.16756774004E+02  0.51100000000E-03 0.  1.
        -12    1    3    3    0    0  0.21413578822E+02 -0.31443300927E+02  0.45187678854E+01  0.38309813291E+02  0.00000000000E+00 0.  1.
</event>
<event>
 7    1  0.2873608E-013  0.7246164E+02  0.7816164E-02  0.1226708E+00
        -11   -1    0    0    0    0  0.00000000000E+00  0.00000000000E+00  0.45593999997E+02  0.45594000000E+02  0.51100000000E-03 0.  1.
         11   -1    0    0    0    0 -0.00000000000E+00 -0.00000000000E+00 -0.45593999997E+02  0.45594000000E+02  0.51100000000E-03 0. -1.
    9900012    2    1    2    0    0 -0.31246277990E+01 -0.52247683534E+01  0.17709176806E+02  0.72461643003E+02  0.70000094716E+02 0.  0.
         12    1    1    2    0    0  0.31246277990E+01  0.52247683534E+01 -0.17709176806E+02  0.18726356997E+02  0.00000000000E+00 0. -1.
         11    1    3    3    0    0  0.97018882481E+01 -0.17866975539E+01  0.81841650507E+01  0.12817935932E+02  0.51100000000E-03 0. -1.
        -11    1    3    3    0    0 -0.97212176232E+01 -0.28805230517E+02 -0.41090562752E+01  0.30677805022E+02  0.51100000000E-03 0.  1.
         12    1    3    3    0    0 -0.31052984239E+01  0.25367159718E+02  0.13634068031E+02  0.28965902049E+02  0.00000000000E+00 0. -1.
</event>
<event>
 7    1  0.2873608E-013  0.7246182E+02  0.7816164E-02  0.1226707E+00
        -11   -1    0    0    0    0  0.00000000000E+00  0.00000000000E+00  0.45593999997E+02  0.45594000000E+02  0.51100000000E-03 0.  1.
         11   -1    0    0    0    0 -0.00000000000E+00 -0.00000000000E+00 -0.45593999997E+02  0.45594000000E+02  0.51100000000E-03 0. -1.
    9900012    2    1    2    0    0 -0.22496351175E+01  0.66961610457E+01  0.17342731836E+02  0.72461821040E+02  0.70000326642E+02 0.  0.
         12    1    1    2    0    0  0.22496351175E+01 -0.66961610457E+01 -0.17342731836E+02  0.18726178960E+02  0.00000000000E+00 0. -1.
         11    1    3    3    0    0  0.38351668128E+01  0.88844535880E+01  0.66189126276E+01  0.11723993546E+02  0.51100000000E-03 0. -1.
        -11    1    3    3    0    0  0.17294089460E+02  0.65352965179E+01  0.25682174878E+02  0.31644426643E+02  0.51100000000E-03 0.  1.
         12    1    3    3    0    0 -0.23378891390E+02 -0.87235890603E+01 -0.14958355669E+02  0.29093400851E+02  0.00000000000E+00 0. -1.
</event>
<event>
 7    1  0.2873608E-013  0.7246155E+02  0.7816164E-02  0.1226708E+00
        -11   -1    0    0    0    0  0.00000000000E+00  0.00000000000E+00  0.45593999997E+02  0.45594000000E+02  0.51100000000E-03 0.  1.
         11   -1    0    0    0    0 -0.00000000000E+00 -0.00000000000E+00 -0.45593999997E+02  0.45594000000E+02  0.51100000000E-03 0. -1.
    9900012    2    1    2    0    0  0.17569077799E+02 -0.62619460877E+01  0.16719334154E+01  0.72461552797E+02  0.69999977206E+02 0.  0.
         12    1    1    2    0    0 -0.17569077799E+02  0.62619460877E+01 -0.16719334154E+01  0.18726447203E+02  0.00000000000E+00 0. -1.
         11    1    3    3    0    0  0.98939845979E+01  0.36541210494E+00  0.11933756456E+02  0.15506095597E+02  0.51100000000E-03 0.  1.
        -11    1    3    3    0    0  0.52805715342E+01 -0.64847597245E+01 -0.33024413291E+02  0.34066822832E+02  0.51100000000E-03 0. -1.
         12    1    3    3    0    0  0.23945216667E+01 -0.14259846810E+00  0.22762590250E+02  0.22888634368E+02  0.00000000000E+00 0. -1.
</event>
<event>
 7    1  0.2873608E-013  0.7246156E+02  0.7816164E-02  0.1226708E+00
        -11   -1    0    0    0    0  0.00000000000E+00  0.00000000000E+00  0.45593999997E+02  0.45594000000E+02  0.51100000000E-03 0.  1.
         11   -1    0    0    0    0 -0.00000000000E+00 -0.00000000000E+00 -0.45593999997E+02  0.45594000000E+02  0.51100000000E-03 0. -1.
    9900012    2    1    2    0    0  0.10832733735E+02 -0.20122940428E+01  0.15142058124E+02  0.72461564896E+02  0.69999992967E+02 0.  0.
         12    1    1    2    0    0 -0.10832733735E+02  0.20122940428E+01 -0.15142058124E+02  0.18726435104E+02  0.00000000000E+00 0. -1.
         11    1    3    3    0    0  0.11951857584E+02 -0.15142165391E+01 -0.15940205419E+02  0.19980738237E+02  0.51100000000E-03 0. -1.
        -11    1    3    3    0    0  0.20008626828E+02  0.36104349464E+01  0.11372095917E+02  0.23296028714E+02  0.51100000000E-03 0.  1.
        -12    1    3    3    0    0 -0.21127750677E+02 -0.41085124502E+01  0.19710167626E+02  0.29184797945E+02  0.00000000000E+00 0.  1.
</event>
<event>
 7    1  0.2873608E-013  0.7246155E+02  0.7816164E-02  0.1226708E+00
        -11   -1    0    0    0    0  0.00000000000E+00  0.00000000000E+00  0.45593999997E+02  0.45594000000E+02  0.51100000000E-03 0.  1.
         11   -1    0    0    0    0 -0.00000000000E+00 -0.00000000000E+00 -0.45593999997E+02  0.45594000000E+02  0.51100000000E-03 0. -1.
    9900012    2    1    2    0    0  0.14150272408E+01 -0.18099588802E+02  0.45915508334E+01  0.72461554637E+02  0.69999979603E+02 0.  0.
         12    1    1    2    0    0 -0.14150272408E+01  0.18099588802E+02 -0.45915508334E+01  0.18726445363E+02  0.00000000000E+00 0. -1.
         11    1    3    3    0    0  0.23003072090E+02 -0.14256445684E+02 -0.15738933251E+02  0.31306574218E+02  0.51100000000E-03 0. -1.
        -11    1    3    3    0    0 -0.79952041866E+00  0.10193699534E+02  0.90367004736E+01  0.13645977385E+02  0.51100000000E-03 0.  1.
        -12    1    3    3    0    0 -0.20788524431E+02 -0.14036842652E+02  0.11293783611E+02  0.27509003033E+02  0.00000000000E+00 0.  1.
</event>
<event>
 7    1  0.2873608E-013  0.7246162E+02  0.7816164E-02  0.1226708E+00
        -11   -1    0    0    0    0  0.00000000000E+00  0.00000000000E+00  0.45593999997E+02  0.45594000000E+02  0.51100000000E-03 0.  1.
         11   -1    0    0    0    0 -0.00000000000E+00 -0.00000000000E+00 -0.45593999997E+02  0.45594000000E+02  0.51100000000E-03 0. -1.
    9900012    2    1    2    0    0 -0.10993494419E+02 -0.15156223298E+02 -0.33085527702E+00  0.72461615154E+02  0.70000058437E+02 0.  0.
         12    1    1    2    0    0  0.10993494419E+02  0.15156223298E+02  0.33085527702E+00  0.18726384846E+02  0.00000000000E+00 0. -1.
         11    1    3    3    0    0  0.35886333169E+00 -0.85741713980E+01 -0.23909834899E+02  0.25403255760E+02  0.51100000000E-03 0.  1.
        -11    1    3    3    0    0 -0.80681116309E+00  0.14705636472E+02  0.18141236376E+01  0.14839061060E+02  0.51100000000E-03 0. -1.
        -12    1    3    3    0    0 -0.10545546588E+02 -0.21287688372E+02  0.21764855985E+02  0.32219298333E+02  0.00000000000E+00 0.  1.
</event>
<event>
 7    1  0.2873608E-013  0.7246160E+02  0.7816164E-02  0.1226708E+00
        -11   -1    0    0    0    0  0.00000000000E+00  0.00000000000E+00  0.45593999997E+02  0.45594000000E+02  0.51100000000E-03 0. -1.
         11   -1    0    0    0    0 -0.00000000000E+00 -0.00000000000E+00 -0.45593999997E+02  0.45594000000E+02  0.51100000000E-03 0.  1.
    9900012    2    1    2    0    0 -0.12905439592E+02  0.10490999644E+02 -0.86062053608E+01  0.72461595772E+02  0.70000033189E+02 0.  0.
         12    1    1    2    0    0  0.12905439592E+02 -0.10490999644E+02  0.86062053608E+01  0.18726404228E+02  0.00000000000E+00 0. -1.
         11    1    3    3    0    0 -0.90439656068E+01 -0.22145150286E+01  0.27119055815E+01  0.96980319061E+01  0.51100000000E-03 0. -1.
        -11    1    3    3    0    0 -0.28826540758E+02  0.12599031260E+02 -0.18865223670E+02  0.36682444100E+02  0.51100000000E-03 0.  1.
         12    1    3    3    0    0  0.24965066773E+02  0.10648341313E+00  0.75471127274E+01  0.26081119766E+02  0.00000000000E+00 0. -1.
</event>
<event>
 7    1  0.2873608E-013  0.7246153E+02  0.7816164E-02  0.1226708E+00
        -11   -1    0    0    0    0  0.00000000000E+00  0.00000000000E+00  0.45593999997E+02  0.45594000000E+02  0.51100000000E-03 0.  1.
         11   -1    0    0    0    0 -0.00000000000E+00 -0.00000000000E+00 -0.45593999997E+02  0.45594000000E+02  0.51100000000E-03 0. -1.
    9900012    2    1    2    0    0  0.78805031673E+00 -0.14429309437E+01  0.18654153449E+02  0.72461534399E+02  0.69999953240E+02 0.  0.
         12    1    1    2    0    0 -0.78805031673E+00  0.14429309437E+01 -0.18654153449E+02  0.18726465601E+02  0.00000000000E+00 0. -1.
         11    1    3    3    0    0  0.86574817268E+01  0.11788639042E+02  0.52404662083E+01  0.15536617607E+02  0.51100000000E-03 0. -1.
        -11    1    3    3    0    0 -0.48562074198E+01  0.18761981210E+02  0.15362756351E+02  0.24730729314E+02  0.51100000000E-03 0.  1.
         12    1    3    3    0    0 -0.30132239902E+01 -0.31993551196E+02 -0.19490691106E+01  0.32194187478E+02  0.00000000000E+00 0. -1.
</event>
<event>
 7    1  0.2873608E-013  0.7246153E+02  0.7816164E-02  0.1226708E+00
        -11   -1    0    0    0    0  0.00000000000E+00  0.00000000000E+00  0.45593999997E+02  0.45594000000E+02  0.51100000000E-03 0. -1.
         11   -1    0    0    0    0 -0.00000000000E+00 -0.00000000000E+00 -0.45593999997E+02  0.45594000000E+02  0.51100000000E-03 0.  1.
    9900012    2    1    2    0    0 -0.29955497688E+00 -0.91645425929E+01 -0.16327959977E+02  0.72461525395E+02  0.69999941510E+02 0.  0.
         12    1    1    2    0    0  0.29955497688E+00  0.91645425929E+01  0.16327959977E+02  0.18726474605E+02  0.00000000000E+00 0. -1.
         11    1    3    3    0    0 -0.13161518228E+01  0.37132603587E+01 -0.92515761431E+01  0.10055457200E+02  0.51100000000E-03 0.  1.
        -11    1    3    3    0    0 -0.20162240891E+02  0.14666266724E+02  0.53609381501E+01  0.25502058652E+02  0.51100000000E-03 0. -1.
        -12    1    3    3    0    0  0.21178837737E+02 -0.27544069675E+02 -0.12437321984E+02  0.36904009543E+02  0.00000000000E+00 0.  1.
</event>
<event>
 7    1  0.2873608E-013  0.7246147E+02  0.7816164E-02  0.1226708E+00
        -11   -1    0    0    0    0  0.00000000000E+00  0.00000000000E+00  0.45593999997E+02  0.45594000000E+02  0.51100000000E-03 0. -1.
         11   -1    0    0    0    0 -0.00000000000E+00 -0.00000000000E+00 -0.45593999997E+02  0.45594000000E+02  0.51100000000E-03 0.  1.
    9900012    2    1    2    0    0 -0.45186683550E+01 -0.29431761559E+01 -0.17933275405E+02  0.72461467584E+02  0.69999866200E+02 0.  0.
         12    1    1    2    0    0  0.45186683550E+01  0.29431761559E+01  0.17933275405E+02  0.18726532416E+02  0.00000000000E+00 0. -1.
         11    1    3    3    0    0  0.17921822656E+02 -0.66628545012E+01 -0.22810205997E+02  0.29763918682E+02  0.51100000000E-03 0. -1.
        -11    1    3    3    0    0 -0.32117577645E+01 -0.12214959211E+02 -0.76421220272E+01  0.14762203284E+02  0.51100000000E-03 0.  1.
         12    1    3    3    0    0 -0.19228733247E+02  0.15934637556E+02  0.12519052620E+02  0.27935345618E+02  0.00000000000E+00 0. -1.
</event>
<event>
 7    1  0.2873608E-013  0.7246162E+02  0.7816164E-02  0.1226708E+00
        -11   -1    0    0    0    0  0.00000000000E+00  0.00000000000E+00  0.45593999997E+02  0.45594000000E+02  0.51100000000E-03 0.  1.
         11   -1    0    0    0    0 -0.00000000000E+00 -0.00000000000E+00 -0.45593999997E+02  0.45594000000E+02  0.51100000000E-03 0. -1.
    9900012    2    1    2    0    0 -0.15513439472E+02 -0.69809744514E+01  0.78279306032E+01  0.72461620049E+02  0.70000064815E+02 0.  0.
         12    1    1    2    0    0  0.15513439472E+02  0.69809744514E+01 -0.78279306032E+01  0.18726379951E+02  0.00000000000E+00 0. -1.
         11    1    3    3    0    0 -0.11124194024E+02  0.16646759886E+02  0.43377889762E+01  0.20486061623E+02  0.51100000000E-03 0. -1.
        -11    1    3    3    0    0  0.20313322009E+02 -0.50117368026E+01  0.10888507547E+01  0.20950755429E+02  0.51100000000E-03 0.  1.
         12    1    3    3    0    0 -0.24702567457E+02 -0.18615997534E+02  0.24012908723E+01  0.31024802997E+02  0.00000000000E+00 0. -1.
</event>
<event>
 7    1  0.2873608E-013  0.7246155E+02  0.7816164E-02  0.1226708E+00
        -11   -1    0    0    0    0  0.00000000000E+00  0.00000000000E+00  0.45593999997E+02  0.45594000000E+02  0.51100000000E-03 0. -1.
         11   -1    0    0    0    0 -0.00000000000E+00 -0.00000000000E+00 -0.45593999997E+02  0.45594000000E+02  0.51100000000E-03 0.  1.
    9900012    2    1    2    0    0  0.12694347951E+02  0.12598863714E+02 -0.55499574938E+01  0.72461551726E+02  0.69999975811E+02 0.  0.
         12    1    1    2    0    0 -0.12694347951E+02 -0.12598863714E+02  0.55499574938E+01  0.18726448274E+02  0.00000000000E+00 0. -1.
         11    1    3    3    0    0  0.91250788145E+01  0.62030618167E+01 -0.99232434761E+01  0.14839669829E+02  0.51100000000E-03 0. -1.
        -11    1    3    3    0    0 -0.53349464167E+01  0.22379264091E+02 -0.17645092791E+02  0.28993834075E+02  0.51100000000E-03 0.  1.
         12    1    3    3    0    0  0.89042155535E+01 -0.15983462194E+02  0.22018378773E+02  0.28628047822E+02  0.00000000000E+00 0. -1.
</event>
<event>
 7    1  0.2873608E-013  0.7246155E+02  0.7816164E-02  0.1226708E+00
        -11   -1    0    0    0    0  0.00000000000E+00  0.00000000000E+00  0.45593999997E+02  0.45594000000E+02  0.51100000000E-03 0.  1.
         11   -1    0    0    0    0 -0.00000000000E+00 -0.00000000000E+00 -0.45593999997E+02  0.45594000000E+02  0.51100000000E-03 0. -1.
    9900012    2    1    2    0    0 -0.17573720596E+02 -0.30415143244E+01 -0.57090835144E+01  0.72461545462E+02  0.69999967652E+02 0.  0.
         12    1    1    2    0    0  0.17573720596E+02  0.30415143244E+01  0.57090835144E+01  0.18726454538E+02  0.00000000000E+00 0. -1.
         11    1    3    3    0    0 -0.40324727291E+01 -0.66502687331E+01 -0.28870717425E+02  0.29899920325E+02  0.51100000000E-03 0. -1.
        -11    1    3    3    0    0  0.52573193418E+01  0.70050003459E+01 -0.37762907964E+01  0.95378094418E+01  0.51100000000E-03 0.  1.
         12    1    3    3    0    0 -0.18798567209E+02 -0.33962459372E+01  0.26937924707E+02  0.33023815696E+02  0.00000000000E+00 0. -1.
</event>
<event>
 7    1  0.2873608E-013  0.7246161E+02  0.7816164E-02  0.1226708E+00
        -11   -1    0    0    0    0  0.00000000000E+00  0.00000000000E+00  0.45593999997E+02  0.45594000000E+02  0.51100000000E-03 0.  1.
         11   -1    0    0    0    0 -0.00000000000E+00 -0.00000000000E+00 -0.45593999997E+02  0.45594000000E+02  0.51100000000E-03 0. -1.
    9900012    2    1    2    0    0  0.15544728541E+02 -0.92805539000E+01  0.47864816621E+01  0.72461610257E+02  0.70000052059E+02 0.  0.
         12    1    1    2    0    0 -0.15544728541E+02  0.92805539000E+01 -0.47864816621E+01  0.18726389743E+02  0.00000000000E+00 0. -1.
         11    1    3    3    0    0  0.19406664164E+02 -0.17047168679E+02 -0.24836595240E+02  0.35834076482E+02  0.51100000000E-03 0. -1.
        -11    1    3    3    0    0  0.70478136186E+01  0.33868789582E+01  0.19867508958E+02  0.21350890809E+02  0.51100000000E-03 0.  1.
        -12    1    3    3    0    0 -0.10909749242E+02  0.43797358210E+01  0.97555679438E+01  0.15276642965E+02  0.00000000000E+00 0.  1.
</event>
<event>
 7    1  0.2873608E-013  0.7246156E+02  0.7816164E-02  0.1226708E+00
        -11   -1    0    0    0    0  0.00000000000E+00  0.00000000000E+00  0.45593999997E+02  0.45594000000E+02  0.51100000000E-03 0.  1.
         11   -1    0    0    0    0 -0.00000000000E+00 -0.00000000000E+00 -0.45593999997E+02  0.45594000000E+02  0.51100000000E-03 0. -1.
    9900012    2    1    2    0    0 -0.63936741558E+01  0.17587795040E+02  0.68555722476E+00  0.72461559006E+02  0.69999985295E+02 0.  0.
         12    1    1    2    0    0  0.63936741558E+01 -0.17587795040E+02 -0.68555722476E+00  0.18726440994E+02  0.00000000000E+00 0. -1.
         11    1    3    3    0    0  0.71860482295E+01  0.26044383276E+01 -0.19234836112E+02  0.20697857586E+02  0.51100000000E-03 0. -1.
        -11    1    3    3    0    0  0.97912372950E+01 -0.94855196675E+01  0.84339573580E+01  0.16030441295E+02  0.51100000000E-03 0.  1.
        -12    1    3    3    0    0 -0.23370959680E+02  0.24468876380E+02  0.11486435978E+02  0.35733260125E+02  0.00000000000E+00 0.  1.
</event>
<event>
 7    1  0.2873608E-013  0.7246152E+02  0.7816164E-02  0.1226708E+00
        -11   -1    0    0    0    0  0.00000000000E+00  0.00000000000E+00  0.45593999997E+02  0.45594000000E+02  0.51100000000E-03 0.  1.
         11   -1    0    0    0    0 -0.00000000000E+00 -0.00000000000E+00 -0.45593999997E+02  0.45594000000E+02  0.51100000000E-03 0. -1.
    9900012    2    1    2    0    0  0.81958164099E+01 -0.69525137925E+01  0.15335326438E+02  0.72461518974E+02  0.69999933145E+02 0.  0.
         12    1    1    2    0    0 -0.81958164099E+01  0.69525137925E+01 -0.15335326438E+02  0.18726481026E+02  0.00000000000E+00 0. -1.
         11    1    3    3    0    0  0.95082335889E+01  0.48124963886E+01 -0.93967065495E+01  0.14207910533E+02  0.51100000000E-03 0. -1.
        -11    1    3    3    0    0  0.15275628688E+01  0.12083823217E+02 -0.10182792620E+02  0.15875814866E+02  0.51100000000E-03 0.  1.
        -12    1    3    3    0    0 -0.28399800478E+01 -0.23848833398E+02  0.34914825607E+02  0.42377793575E+02  0.00000000000E+00 0.  1.
</event>
<event>
 7    1  0.2873608E-013  0.7246151E+02  0.7816164E-02  0.1226708E+00
        -11   -1    0    0    0    0  0.00000000000E+00  0.00000000000E+00  0.45593999997E+02  0.45594000000E+02  0.51100000000E-03 0.  1.
         11   -1    0    0    0    0 -0.00000000000E+00 -0.00000000000E+00 -0.45593999997E+02  0.45594000000E+02  0.51100000000E-03 0. -1.
    9900012    2    1    2    0    0  0.96646056857E+01  0.11763305640E+02  0.10904198196E+02  0.72461508045E+02  0.69999918909E+02 0.  0.
         12    1    1    2    0    0 -0.96646056857E+01 -0.11763305640E+02 -0.10904198196E+02  0.18726491955E+02  0.00000000000E+00 0. -1.
         11    1    3    3    0    0 -0.12005874664E+01 -0.94303764764E+01  0.10710118665E+02  0.14320616357E+02  0.51100000000E-03 0. -1.
        -11    1    3    3    0    0  0.72283199569E+01 -0.50360077230E+01  0.22088945272E+02  0.23780905927E+02  0.51100000000E-03 0.  1.
         12    1    3    3    0    0  0.36368731953E+01  0.26229689839E+02 -0.21894865742E+02  0.34359985762E+02  0.00000000000E+00 0. -1.
</event>
<event>
 7    1  0.2873608E-013  0.7246151E+02  0.7816164E-02  0.1226708E+00
        -11   -1    0    0    0    0  0.00000000000E+00  0.00000000000E+00  0.45593999997E+02  0.45594000000E+02  0.51100000000E-03 0.  1.
         11   -1    0    0    0    0 -0.00000000000E+00 -0.00000000000E+00 -0.45593999997E+02  0.45594000000E+02  0.51100000000E-03 0. -1.
    9900012    2    1    2    0    0  0.16369544485E+02 -0.15590764595E+01 -0.89604009159E+01  0.72461508320E+02  0.69999919267E+02 0.  0.
         12    1    1    2    0    0 -0.16369544485E+02  0.15590764595E+01  0.89604009159E+01  0.18726491680E+02  0.00000000000E+00 0. -1.
         11    1    3    3    0    0  0.88597474768E+01  0.51373854032E+01  0.56145369180E+01  0.11679506805E+02  0.51100000000E-03 0.  1.
        -11    1    3    3    0    0  0.19004513450E+02  0.21369878773E+02 -0.54758577927E+01  0.29117490776E+02  0.51100000000E-03 0. -1.
         12    1    3    3    0    0 -0.11494716442E+02 -0.28066340636E+02 -0.90990800412E+01  0.31664510740E+02  0.00000000000E+00 0. -1.
</event>
<event>
 7    1  0.2873608E-013  0.7246150E+02  0.7816164E-02  0.1226708E+00
        -11   -1    0    0    0    0  0.00000000000E+00  0.00000000000E+00  0.45593999997E+02  0.45594000000E+02  0.51100000000E-03 0. -1.
         11   -1    0    0    0    0 -0.00000000000E+00 -0.00000000000E+00 -0.45593999997E+02  0.45594000000E+02  0.51100000000E-03 0.  1.
    9900012    2    1    2    0    0  0.21604475451E+01 -0.15727022818E+02 -0.99335367402E+01  0.72461496523E+02  0.69999903899E+02 0.  0.
         12    1    1    2    0    0 -0.21604475451E+01  0.15727022818E+02  0.99335367402E+01  0.18726503477E+02  0.00000000000E+00 0. -1.
         11    1    3    3    0    0 -0.19856722065E+02 -0.11509382572E+02 -0.72493080597E+01  0.24068813140E+02  0.51100000000E-03 0. -1.
        -11    1    3    3    0    0 -0.38468006692E+01 -0.10590236340E+02  0.13218772884E+02  0.17369137513E+02  0.51100000000E-03 0.  1.
        -12    1    3    3    0    0  0.25863970279E+02  0.63725960950E+01 -0.15903001565E+02  0.31023545870E+02  0.00000000000E+00 0.  1.
</event>
<event>
 7    1  0.2873608E-013  0.7246157E+02  0.7816164E-02  0.1226708E+00
        -11   -1    0    0    0    0  0.00000000000E+00  0.00000000000E+00  0.45593999997E+02  0.45594000000E+02  0.51100000000E-03 0. -1.
         11   -1    0    0    0    0 -0.00000000000E+00 -0.00000000000E+00 -0.45593999997E+02  0.45594000000E+02  0.51100000000E-03 0.  1.
    9900012    2    1    2    0    0  0.34148761444E+01  0.33959808170E+01 -0.18096548973E+02  0.72461570828E+02  0.70000000695E+02 0.  0.
         12    1    1    2    0    0 -0.34148761444E+01 -0.33959808170E+01  0.18096548973E+02  0.18726429172E+02  0.00000000000E+00 0. -1.
         11    1    3    3    0    0 -0.58802040003E+01  0.73653075708E+01  0.14391470256E+02  0.17202876826E+02  0.51100000000E-03 0. -1.
        -11    1    3    3    0    0  0.20581558706E+02  0.49145749352E+01 -0.16315724069E+01  0.21222997770E+02  0.51100000000E-03 0.  1.
        -12    1    3    3    0    0 -0.11286478562E+02 -0.88839016891E+01 -0.30856446822E+02  0.34035696232E+02  0.00000000000E+00 0.  1.
</event>
<event>
 7    1  0.2873608E-013  0.7246153E+02  0.7816164E-02  0.1226708E+00
        -11   -1    0    0    0    0  0.00000000000E+00  0.00000000000E+00  0.45593999997E+02  0.45594000000E+02  0.51100000000E-03 0.  1.
         11   -1    0    0    0    0 -0.00000000000E+00 -0.00000000000E+00 -0.45593999997E+02  0.45594000000E+02  0.51100000000E-03 0. -1.
    9900012    2    1    2    0    0  0.10878506981E+02  0.43094518768E+00  0.15236570592E+02  0.72461529129E+02  0.69999946374E+02 0.  0.
         12    1    1    2    0    0 -0.10878506981E+02 -0.43094518768E+00 -0.15236570592E+02  0.18726470871E+02  0.00000000000E+00 0. -1.
         11    1    3    3    0    0 -0.80441184480E+00 -0.27723831138E+00 -0.12209292644E+02  0.12238903816E+02  0.51100000000E-03 0. -1.
        -11    1    3    3    0    0  0.22879902280E+02 -0.18666678894E+02  0.80423584239E+01  0.30604155903E+02  0.51100000000E-03 0.  1.
         12    1    3    3    0    0 -0.11196983454E+02  0.19374862393E+02  0.19403504811E+02  0.29618469410E+02  0.00000000000E+00 0. -1.
</event>
<event>
 7    1  0.2873608E-013  0.7246161E+02  0.7816164E-02  0.1226708E+00
        -11   -1    0    0    0    0  0.00000000000E+00  0.00000000000E+00  0.45593999997E+02  0.45594000000E+02  0.51100000000E-03 0. -1.
         11   -1    0    0    0    0 -0.00000000000E+00 -0.00000000000E+00 -0.45593999997E+02  0.45594000000E+02  0.51100000000E-03 0.  1.
    9900012    2    1    2    0    0 -0.15051650459E+02 -0.53436119271E+00 -0.11128347062E+02  0.72461606013E+02  0.70000046531E+02 0.  0.
         12    1    1    2    0    0  0.15051650459E+02  0.53436119271E+00  0.11128347062E+02  0.18726393987E+02  0.00000000000E+00 0. -1.
         11    1    3    3    0    0 -0.36014224414E+01 -0.38070081469E+01 -0.56780156068E+01  0.77267985688E+01  0.51100000000E-03 0. -1.
        -11    1    3    3    0    0  0.46746873984E+01 -0.62377615541E+01 -0.31615452776E+02  0.32562236194E+02  0.51100000000E-03 0.  1.
         12    1    3    3    0    0 -0.16124915416E+02  0.95104085083E+01  0.26165121321E+02  0.32172571251E+02  0.00000000000E+00 0. -1.
</event>
<event>
 7    1  0.2873608E-013  0.7246158E+02  0.7816164E-02  0.1226708E+00
        -11   -1    0    0    0    0  0.00000000000E+00  0.00000000000E+00  0.45593999997E+02  0.45594000000E+02  0.51100000000E-03 0. -1.
         11   -1    0    0    0    0 -0.00000000000E+00 -0.00000000000E+00 -0.45593999997E+02  0.45594000000E+02  0.51100000000E-03 0.  1.
    9900012    2    1    2    0    0 -0.46964242106E+01  0.14193447348E+02 -0.11276905323E+02  0.72461576379E+02  0.70000007926E+02 0.  0.
         12    1    1    2    0    0  0.46964242106E+01 -0.14193447348E+02  0.11276905323E+02  0.18726423621E+02  0.00000000000E+00 0. -1.
         11    1    3    3    0    0  0.12140745794E+02 -0.48846297726E+01  0.16021999813E+02  0.20687237484E+02  0.51100000000E-03 0. -1.
        -11    1    3    3    0    0 -0.10059681881E+02 -0.98569331327E+01 -0.65698561062E+01  0.15540892505E+02  0.51100000000E-03 0.  1.
         12    1    3    3    0    0 -0.67774881238E+01  0.28935010253E+02 -0.20729049030E+02  0.36233446390E+02  0.00000000000E+00 0. -1.
</event>
<event>
 7    1  0.2873608E-013  0.7246114E+02  0.7816164E-02  0.1226709E+00
        -11   -1    0    0    0    0  0.00000000000E+00  0.00000000000E+00  0.45593999997E+02  0.45594000000E+02  0.51100000000E-03 0. -1.
         11   -1    0    0    0    0 -0.00000000000E+00 -0.00000000000E+00 -0.45593999997E+02  0.45594000000E+02  0.51100000000E-03 0.  1.
    9900012    2    1    2    0    0  0.12371323682E+02 -0.50004833476E+01 -0.13139289076E+02  0.72461136921E+02  0.69999435449E+02 0.  0.
         12    1    1    2    0    0 -0.12371323682E+02  0.50004833476E+01  0.13139289076E+02  0.18726863079E+02  0.00000000000E+00 0. -1.
         11    1    3    3    0    0  0.12784374803E+02  0.47047109565E+01  0.93179784158E+01  0.16504522601E+02  0.51100000000E-03 0. -1.
        -11    1    3    3    0    0 -0.83762894075E+01 -0.17332557194E+02  0.99890287336E+01  0.21687795149E+02  0.51100000000E-03 0.  1.
        -12    1    3    3    0    0  0.79632382866E+01  0.76273628895E+01 -0.32446296225E+02  0.34268819171E+02  0.00000000000E+00 0.  1.
</event>
<event>
 7    1  0.2873608E-013  0.7246155E+02  0.7816164E-02  0.1226708E+00
        -11   -1    0    0    0    0  0.00000000000E+00  0.00000000000E+00  0.45593999997E+02  0.45594000000E+02  0.51100000000E-03 0. -1.
         11   -1    0    0    0    0 -0.00000000000E+00 -0.00000000000E+00 -0.45593999997E+02  0.45594000000E+02  0.51100000000E-03 0.  1.
    9900012    2    1    2    0    0 -0.13182685973E+01  0.80273939708E+01 -0.16867217075E+02  0.72461550847E+02  0.69999974666E+02 0.  0.
         12    1    1    2    0    0  0.13182685973E+01 -0.80273939708E+01  0.16867217075E+02  0.18726449153E+02  0.00000000000E+00 0. -1.
         11    1    3    3    0    0 -0.49724850920E+01  0.21953480269E+02  0.11366089615E+00  0.22509860572E+02  0.51100000000E-03 0. -1.
        -11    1    3    3    0    0 -0.14174690215E+02  0.79049313568E+01 -0.14312823720E+02  0.21639471008E+02  0.51100000000E-03 0.  1.
         12    1    3    3    0    0  0.17828906709E+02 -0.21831017655E+02 -0.26680542512E+01  0.28312219266E+02  0.00000000000E+00 0. -1.
</event>
<event>
 7    1  0.2873608E-013  0.7246190E+02  0.7816164E-02  0.1226707E+00
        -11   -1    0    0    0    0  0.00000000000E+00  0.00000000000E+00  0.45593999997E+02  0.45594000000E+02  0.51100000000E-03 0.  1.
         11   -1    0    0    0    0 -0.00000000000E+00 -0.00000000000E+00 -0.45593999997E+02  0.45594000000E+02  0.51100000000E-03 0. -1.
    9900012    2    1    2    0    0 -0.59595539139E+01  0.12321988845E+02  0.12779634147E+02  0.72461902144E+02  0.70000432295E+02 0.  0.
         12    1    1    2    0    0  0.59595539139E+01 -0.12321988845E+02 -0.12779634147E+02  0.18726097856E+02  0.00000000000E+00 0. -1.
         11    1    3    3    0    0  0.16561084395E+02  0.17305286761E+02 -0.70624386139E+01  0.24972394872E+02  0.51100000000E-03 0. -1.
        -11    1    3    3    0    0 -0.77210981811E+01  0.13459899260E+02  0.18008434244E+02  0.23771578605E+02  0.51100000000E-03 0.  1.
        -12    1    3    3    0    0 -0.14799540128E+02 -0.18443197175E+02  0.18336385175E+01  0.23717928667E+02  0.00000000000E+00 0.  1.
</event>
<event>
 7    1  0.2873608E-013  0.7246162E+02  0.7816164E-02  0.1226708E+00
        -11   -1    0    0    0    0  0.00000000000E+00  0.00000000000E+00  0.45593999997E+02  0.45594000000E+02  0.51100000000E-03 0. -1.
         11   -1    0    0    0    0 -0.00000000000E+00 -0.00000000000E+00 -0.45593999997E+02  0.45594000000E+02  0.51100000000E-03 0.  1.
    9900012    2    1    2    0    0  0.58464560547E+01  0.15247730318E+02 -0.91653073654E+01  0.72461623219E+02  0.70000068944E+02 0.  0.
         12    1    1    2    0    0 -0.58464560547E+01 -0.15247730318E+02  0.91653073654E+01  0.18726376781E+02  0.00000000000E+00 0. -1.
         11    1    3    3    0    0  0.11432523571E+02 -0.46536712031E+01  0.81727136595E+01  0.14803800177E+02  0.51100000000E-03 0. -1.
        -11    1    3    3    0    0 -0.17552180862E+02 -0.10228158844E+02  0.11325561521E+01  0.20346424011E+02  0.51100000000E-03 0.  1.
        -12    1    3    3    0    0  0.11966113346E+02  0.30129560364E+02 -0.18470577177E+02  0.37311399030E+02  0.00000000000E+00 0.  1.
</event>
<event>
 7    1  0.2873608E-013  0.7246172E+02  0.7816164E-02  0.1226708E+00
        -11   -1    0    0    0    0  0.00000000000E+00  0.00000000000E+00  0.45593999997E+02  0.45594000000E+02  0.51100000000E-03 0. -1.
         11   -1    0    0    0    0 -0.00000000000E+00 -0.00000000000E+00 -0.45593999997E+02  0.45594000000E+02  0.51100000000E-03 0.  1.
    9900012    2    1    2    0    0  0.11153140856E+02 -0.85814090195E+01 -0.12354780195E+02  0.72461715655E+02  0.70000189359E+02 0.  0.
         12    1    1    2    0    0 -0.11153140856E+02  0.85814090195E+01  0.12354780195E+02  0.18726284345E+02  0.00000000000E+00 0. -1.
         11    1    3    3    0    0 -0.66315670628E+01 -0.75599517974E+00 -0.69926482364E+01  0.96667647142E+01  0.51100000000E-03 0.  1.
        -11    1    3    3    0    0 -0.99127260261E+01 -0.25418901495E+02  0.62463368305E+01  0.27989273205E+02  0.51100000000E-03 0. -1.
        -12    1    3    3    0    0  0.27697433945E+02  0.17593487655E+02 -0.11608468789E+02  0.34805677736E+02  0.00000000000E+00 0.  1.
</event>
<event>
 7    1  0.2873608E-013  0.7246156E+02  0.7816164E-02  0.1226708E+00
        -11   -1    0    0    0    0  0.00000000000E+00  0.00000000000E+00  0.45593999997E+02  0.45594000000E+02  0.51100000000E-03 0. -1.
         11   -1    0    0    0    0 -0.00000000000E+00 -0.00000000000E+00 -0.45593999997E+02  0.45594000000E+02  0.51100000000E-03 0.  1.
    9900012    2    1    2    0    0  0.15452114963E+02  0.10339250801E+02 -0.22386997188E+01  0.72461555052E+02  0.69999980145E+02 0.  0.
         12    1    1    2    0    0 -0.15452114963E+02 -0.10339250801E+02  0.22386997188E+01  0.18726444948E+02  0.00000000000E+00 0. -1.
         11    1    3    3    0    0 -0.25423294584E+02 -0.82782371656E+01 -0.22854416076E+00  0.26738088016E+02  0.51100000000E-03 0.  1.
        -11    1    3    3    0    0  0.36854145557E+01  0.21806711907E+01 -0.26906944596E+01  0.50574147769E+01  0.51100000000E-03 0. -1.
        -12    1    3    3    0    0  0.37189994991E+02  0.16436816776E+02  0.68053890164E+00  0.40666052259E+02  0.00000000000E+00 0.  1.
</event>
<event>
 7    1  0.2873608E-013  0.7246159E+02  0.7816164E-02  0.1226708E+00
        -11   -1    0    0    0    0  0.00000000000E+00  0.00000000000E+00  0.45593999997E+02  0.45594000000E+02  0.51100000000E-03 0.  1.
         11   -1    0    0    0    0 -0.00000000000E+00 -0.00000000000E+00 -0.45593999997E+02  0.45594000000E+02  0.51100000000E-03 0. -1.
    9900012    2    1    2    0    0  0.15939331942E+02  0.47488029062E+01 -0.86060953909E+01  0.72461593252E+02  0.70000029907E+02 0.  0.
         12    1    1    2    0    0 -0.15939331942E+02 -0.47488029062E+01  0.86060953909E+01  0.18726406748E+02  0.00000000000E+00 0. -1.
         11    1    3    3    0    0  0.58864349684E+01  0.32547486227E+01  0.31575937536E+01  0.74306058843E+01  0.51100000000E-03 0. -1.
        -11    1    3    3    0    0 -0.15629579825E+02 -0.25947439276E+01  0.19005950982E+02  0.24743537228E+02  0.51100000000E-03 0.  1.
         12    1    3    3    0    0  0.25682476798E+02  0.40887982111E+01 -0.30769640126E+02  0.40287450140E+02  0.00000000000E+00 0. -1.
</event>
<event>
 7    1  0.2873608E-013  0.7246169E+02  0.7816164E-02  0.1226708E+00
        -11   -1    0    0    0    0  0.00000000000E+00  0.00000000000E+00  0.45593999997E+02  0.45594000000E+02  0.51100000000E-03 0.  1.
         11   -1    0    0    0    0 -0.00000000000E+00 -0.00000000000E+00 -0.45593999997E+02  0.45594000000E+02  0.51100000000E-03 0. -1.
    9900012    2    1    2    0    0 -0.35061661571E+01 -0.63875188038E+01  0.17250541097E+02  0.72461687877E+02  0.70000153173E+02 0.  0.
         12    1    1    2    0    0  0.35061661571E+01  0.63875188038E+01 -0.17250541097E+02  0.18726312123E+02  0.00000000000E+00 0. -1.
         11    1    3    3    0    0  0.47066361108E+01 -0.24568138642E+01 -0.70257580092E+01  0.88062269848E+01  0.51100000000E-03 0. -1.
        -11    1    3    3    0    0  0.16853817666E+02  0.16540189939E+02  0.71700028519E+00  0.23625053287E+02  0.51100000000E-03 0.  1.
         12    1    3    3    0    0 -0.25066619934E+02 -0.20470894879E+02  0.23559298821E+02  0.40030407605E+02  0.00000000000E+00 0. -1.
</event>
<event>
 7    1  0.2873608E-013  0.7246154E+02  0.7816164E-02  0.1226708E+00
        -11   -1    0    0    0    0  0.00000000000E+00  0.00000000000E+00  0.45593999997E+02  0.45594000000E+02  0.51100000000E-03 0.  1.
         11   -1    0    0    0    0 -0.00000000000E+00 -0.00000000000E+00 -0.45593999997E+02  0.45594000000E+02  0.51100000000E-03 0. -1.
    9900012    2    1    2    0    0 -0.11547303061E+02 -0.96654347053E+01  0.11131909354E+02  0.72461541662E+02  0.69999962701E+02 0.  0.
         12    1    1    2    0    0  0.11547303061E+02  0.96654347053E+01 -0.11131909354E+02  0.18726458338E+02  0.00000000000E+00 0. -1.
         11    1    3    3    0    0  0.23386062916E+02 -0.48096455107E+00  0.10680015071E+02  0.25713848172E+02  0.51100000000E-03 0. -1.
        -11    1    3    3    0    0  0.14159932762E+01  0.56642042966E+01  0.43623187832E+01  0.72882146441E+01  0.51100000000E-03 0.  1.
        -12    1    3    3    0    0 -0.36349359253E+02 -0.14848674451E+02 -0.39104245001E+01  0.39459478846E+02  0.00000000000E+00 0.  1.
</event>
<event>
 7    1  0.2873608E-013  0.7246176E+02  0.7816164E-02  0.1226708E+00
        -11   -1    0    0    0    0  0.00000000000E+00  0.00000000000E+00  0.45593999997E+02  0.45594000000E+02  0.51100000000E-03 0. -1.
         11   -1    0    0    0    0 -0.00000000000E+00 -0.00000000000E+00 -0.45593999997E+02  0.45594000000E+02  0.51100000000E-03 0.  1.
    9900012    2    1    2    0    0  0.13975336324E+02  0.12265352482E+02 -0.22188330286E+01  0.72461758602E+02  0.70000245306E+02 0.  0.
         12    1    1    2    0    0 -0.13975336324E+02 -0.12265352482E+02  0.22188330286E+01  0.18726241398E+02  0.00000000000E+00 0. -1.
         11    1    3    3    0    0  0.18865110587E+02 -0.15907737103E+01 -0.70029590167E+01  0.20185747291E+02  0.51100000000E-03 0. -1.
        -11    1    3    3    0    0  0.36956891382E+01 -0.18273709292E+00 -0.21199354966E+02  0.21519855071E+02  0.51100000000E-03 0.  1.
         12    1    3    3    0    0 -0.85854634014E+01  0.14038863285E+02  0.25983480954E+02  0.30756156240E+02  0.00000000000E+00 0. -1.
</event>
<event>
 7    1  0.2873608E-013  0.7246156E+02  0.7816164E-02  0.1226708E+00
        -11   -1    0    0    0    0  0.00000000000E+00  0.00000000000E+00  0.45593999997E+02  0.45594000000E+02  0.51100000000E-03 0. -1.
         11   -1    0    0    0    0 -0.00000000000E+00 -0.00000000000E+00 -0.45593999997E+02  0.45594000000E+02  0.51100000000E-03 0.  1.
    9900012    2    1    2    0    0  0.15119108741E+02 -0.94045526539E+01  0.58005526733E+01  0.72461562243E+02  0.69999989512E+02 0.  0.
         12    1    1    2    0    0 -0.15119108741E+02  0.94045526539E+01 -0.58005526733E+01  0.18726437757E+02  0.00000000000E+00 0. -1.
         11    1    3    3    0    0 -0.36645031488E+00 -0.29372462682E+00  0.17921622987E+01  0.18526753508E+01  0.51100000000E-03 0. -1.
        -11    1    3    3    0    0  0.38314052505E+02  0.56074007414E+01  0.14699918524E+02  0.41418560662E+02  0.51100000000E-03 0.  1.
         12    1    3    3    0    0 -0.22828493449E+02 -0.14718228768E+02 -0.10691528149E+02  0.29190326230E+02  0.00000000000E+00 0. -1.
</event>
<event>
 7    1  0.2873608E-013  0.7246158E+02  0.7816164E-02  0.1226708E+00
        -11   -1    0    0    0    0  0.00000000000E+00  0.00000000000E+00  0.45593999997E+02  0.45594000000E+02  0.51100000000E-03 0. -1.
         11   -1    0    0    0    0 -0.00000000000E+00 -0.00000000000E+00 -0.45593999997E+02  0.45594000000E+02  0.51100000000E-03 0.  1.
    9900012    2    1    2    0    0 -0.11305199388E+02  0.14308114641E+02 -0.42601615155E+01  0.72461584061E+02  0.70000017934E+02 0.  0.
         12    1    1    2    0    0  0.11305199388E+02 -0.14308114641E+02  0.42601615155E+01  0.18726415939E+02  0.00000000000E+00 0. -1.
         11    1    3    3    0    0 -0.68035290026E+01  0.11422235921E+01  0.25400497915E+02  0.26320675831E+02  0.51100000000E-03 0. -1.
        -11    1    3    3    0    0  0.97669251397E+01  0.34005888336E+01  0.15533737391E+01  0.10458001785E+02  0.51100000000E-03 0.  1.
        -12    1    3    3    0    0 -0.14268595525E+02  0.97653022151E+01 -0.31214033170E+02  0.35682906445E+02  0.00000000000E+00 0.  1.
</event>
<event>
 7    1  0.2873608E-013  0.7246158E+02  0.7816164E-02  0.1226708E+00
        -11   -1    0    0    0    0  0.00000000000E+00  0.00000000000E+00  0.45593999997E+02  0.45594000000E+02  0.51100000000E-03 0. -1.
         11   -1    0    0    0    0 -0.00000000000E+00 -0.00000000000E+00 -0.45593999997E+02  0.45594000000E+02  0.51100000000E-03 0.  1.
    9900012    2    1    2    0    0 -0.14663298980E+02 -0.25105940354E+01  0.11373805897E+02  0.72461578026E+02  0.70000010071E+02 0.  0.
         12    1    1    2    0    0  0.14663298980E+02  0.25105940354E+01 -0.11373805897E+02  0.18726421974E+02  0.00000000000E+00 0. -1.
         11    1    3    3    0    0 -0.50603220876E+01 -0.13283822476E+02  0.20026870763E+02  0.24558956656E+02  0.51100000000E-03 0. -1.
        -11    1    3    3    0    0  0.25748289314E+01  0.18586199640E+01 -0.25262115278E+02  0.25460924586E+02  0.51100000000E-03 0.  1.
         12    1    3    3    0    0 -0.12177805823E+02  0.89146084769E+01  0.16609050411E+02  0.22441696784E+02  0.00000000000E+00 0. -1.
</event>
<event>
 7    1  0.2873608E-013  0.7246148E+02  0.7816164E-02  0.1226708E+00
        -11   -1    0    0    0    0  0.00000000000E+00  0.00000000000E+00  0.45593999997E+02  0.45594000000E+02  0.51100000000E-03 0.  1.
         11   -1    0    0    0    0 -0.00000000000E+00 -0.00000000000E+00 -0.45593999997E+02  0.45594000000E+02  0.51100000000E-03 0. -1.
    9900012    2    1    2    0    0 -0.14258904987E+02 -0.39525653804E+01  0.11477945591E+02  0.72461484587E+02  0.69999888350E+02 0.  0.
         12    1    1    2    0    0  0.14258904987E+02  0.39525653804E+01 -0.11477945591E+02  0.18726515413E+02  0.00000000000E+00 0. -1.
         11    1    3    3    0    0  0.18131143554E+02  0.89700052426E+01  0.12861297738E+02  0.23971072992E+02  0.51100000000E-03 0. -1.
        -11    1    3    3    0    0 -0.57880670205E+01  0.95135208575E+01 -0.71245094928E+01  0.13219963491E+02  0.51100000000E-03 0.  1.
        -12    1    3    3    0    0 -0.26601981521E+02 -0.22436091481E+02  0.57411573456E+01  0.35270448103E+02  0.00000000000E+00 0.  1.
</event>
<event>
 7    1  0.2873608E-013  0.7246157E+02  0.7816164E-02  0.1226708E+00
        -11   -1    0    0    0    0  0.00000000000E+00  0.00000000000E+00  0.45593999997E+02  0.45594000000E+02  0.51100000000E-03 0.  1.
         11   -1    0    0    0    0 -0.00000000000E+00 -0.00000000000E+00 -0.45593999997E+02  0.45594000000E+02  0.51100000000E-03 0. -1.
    9900012    2    1    2    0    0 -0.15661748977E+02  0.44698314245E+01  0.92417127621E+01  0.72461574053E+02  0.70000004896E+02 0.  0.
         12    1    1    2    0    0  0.15661748977E+02 -0.44698314245E+01 -0.92417127621E+01  0.18726425947E+02  0.00000000000E+00 0. -1.
         11    1    3    3    0    0  0.36163730172E+01  0.16983634929E+02  0.47080866337E+01  0.17991333725E+02  0.51100000000E-03 0. -1.
        -11    1    3    3    0    0  0.15845202554E+02 -0.86851942042E+01  0.61895128773E+01  0.19100081473E+02  0.51100000000E-03 0.  1.
        -12    1    3    3    0    0 -0.35123324548E+02 -0.38286093002E+01 -0.16558867489E+01  0.35370158855E+02  0.00000000000E+00 0.  1.
</event>
<event>
 7    1  0.2873608E-013  0.7246170E+02  0.7816164E-02  0.1226708E+00
        -11   -1    0    0    0    0  0.00000000000E+00  0.00000000000E+00  0.45593999997E+02  0.45594000000E+02  0.51100000000E-03 0. -1.
         11   -1    0    0    0    0 -0.00000000000E+00 -0.00000000000E+00 -0.45593999997E+02  0.45594000000E+02  0.51100000000E-03 0.  1.
    9900012    2    1    2    0    0  0.95772808268E+01 -0.11626953948E+02 -0.11124923403E+02  0.72461700663E+02  0.70000169829E+02 0.  0.
         12    1    1    2    0    0 -0.95772808268E+01  0.11626953948E+02  0.11124923403E+02  0.18726299337E+02  0.00000000000E+00 0. -1.
         11    1    3    3    0    0  0.13017546742E+02  0.19513127111E+02  0.35621285506E+01  0.23725669915E+02  0.51100000000E-03 0. -1.
        -11    1    3    3    0    0  0.11714763310E+02 -0.78608172089E+00  0.63255028325E-01  0.11741277841E+02  0.51100000000E-03 0.  1.
        -12    1    3    3    0    0 -0.15155029225E+02 -0.30353999338E+02 -0.14750306982E+02  0.36994752907E+02  0.00000000000E+00 0.  1.
</event>
<event>
 7    1  0.2873608E-013  0.7246164E+02  0.7816164E-02  0.1226708E+00
        -11   -1    0    0    0    0  0.00000000000E+00  0.00000000000E+00  0.45593999997E+02  0.45594000000E+02  0.51100000000E-03 0.  1.
         11   -1    0    0    0    0 -0.00000000000E+00 -0.00000000000E+00 -0.45593999997E+02  0.45594000000E+02  0.51100000000E-03 0. -1.
    9900012    2    1    2    0    0 -0.13077711423E+02 -0.76765928366E+01  0.10987267069E+02  0.72461637532E+02  0.70000087590E+02 0.  0.
         12    1    1    2    0    0  0.13077711423E+02  0.76765928366E+01 -0.10987267069E+02  0.18726362468E+02  0.00000000000E+00 0. -1.
         11    1    3    3    0    0  0.15848637130E+02 -0.67988411187E+01 -0.55556198532E+01  0.18118180142E+02  0.51100000000E-03 0. -1.
        -11    1    3    3    0    0  0.10357566189E+02 -0.55124762596E+01  0.69626070126E+01  0.13643477143E+02  0.51100000000E-03 0.  1.
        -12    1    3    3    0    0 -0.39283914742E+02  0.46347245417E+01  0.95802799097E+01  0.40699980248E+02  0.00000000000E+00 0.  1.
</event>
<event>
 7    1  0.2873608E-013  0.7246154E+02  0.7816164E-02  0.1226708E+00
        -11   -1    0    0    0    0  0.00000000000E+00  0.00000000000E+00  0.45593999997E+02  0.45594000000E+02  0.51100000000E-03 0.  1.
         11   -1    0    0    0    0 -0.00000000000E+00 -0.00000000000E+00 -0.45593999997E+02  0.45594000000E+02  0.51100000000E-03 0. -1.
    9900012    2    1    2    0    0  0.18220350183E+02  0.31862362623E+01  0.29235311190E+01  0.72461540203E+02  0.69999960800E+02 0.  0.
         12    1    1    2    0    0 -0.18220350183E+02 -0.31862362623E+01 -0.29235311190E+01  0.18726459797E+02  0.00000000000E+00 0. -1.
         11    1    3    3    0    0  0.12844665425E+02 -0.17630595244E+02  0.72858406687E-01  0.21813496444E+02  0.51100000000E-03 0. -1.
        -11    1    3    3    0    0  0.14685900859E+02 -0.10008182917E+02 -0.26906111261E+01  0.17974392836E+02  0.51100000000E-03 0.  1.
         12    1    3    3    0    0 -0.93102161009E+01  0.30825014423E+02  0.55412838385E+01  0.32673650922E+02  0.00000000000E+00 0. -1.
</event>
<event>
 7    1  0.2873608E-013  0.7246162E+02  0.7816164E-02  0.1226708E+00
        -11   -1    0    0    0    0  0.00000000000E+00  0.00000000000E+00  0.45593999997E+02  0.45594000000E+02  0.51100000000E-03 0.  1.
         11   -1    0    0    0    0 -0.00000000000E+00 -0.00000000000E+00 -0.45593999997E+02  0.45594000000E+02  0.51100000000E-03 0. -1.
    9900012    2    1    2    0    0  0.12612348670E+01  0.18117452172E+02 -0.45655837941E+01  0.72461619090E+02  0.70000063566E+02 0.  0.
         12    1    1    2    0    0 -0.12612348670E+01 -0.18117452172E+02  0.45655837941E+01  0.18726380910E+02  0.00000000000E+00 0. -1.
         11    1    3    3    0    0  0.18397803173E+02 -0.86744336879E+01 -0.98827304005E+01  0.22614007204E+02  0.51100000000E-03 0. -1.
        -11    1    3    3    0    0 -0.96691728925E+01  0.30443445871E+02 -0.90936438668E+01  0.33211303196E+02  0.51100000000E-03 0.  1.
        -12    1    3    3    0    0 -0.74673954136E+01 -0.36515600108E+01  0.14410790473E+02  0.16636308690E+02  0.00000000000E+00 0.  1.
</event>
<event>
 7    1  0.2873608E-013  0.7246170E+02  0.7816164E-02  0.1226708E+00
        -11   -1    0    0    0    0  0.00000000000E+00  0.00000000000E+00  0.45593999997E+02  0.45594000000E+02  0.51100000000E-03 0.  1.
         11   -1    0    0    0    0 -0.00000000000E+00 -0.00000000000E+00 -0.45593999997E+02  0.45594000000E+02  0.51100000000E-03 0. -1.
    9900012    2    1    2    0    0  0.63336849322E+00 -0.93478219875E+01  0.16213926164E+02  0.72461699425E+02  0.70000168217E+02 0.  0.
         12    1    1    2    0    0 -0.63336849322E+00  0.93478219875E+01 -0.16213926164E+02  0.18726300575E+02  0.00000000000E+00 0. -1.
         11    1    3    3    0    0  0.21498525945E+02 -0.56250555486E+01  0.10735547300E+02  0.24679543023E+02  0.51100000000E-03 0. -1.
        -11    1    3    3    0    0  0.11693012335E+02 -0.21985278031E+00 -0.59212010603E+01  0.13108603853E+02  0.51100000000E-03 0.  1.
        -12    1    3    3    0    0 -0.32558169787E+02 -0.35029136585E+01  0.11399579924E+02  0.34673552549E+02  0.00000000000E+00 0.  1.
</event>
<event>
 7    1  0.2873608E-013  0.7246159E+02  0.7816164E-02  0.1226708E+00
        -11   -1    0    0    0    0  0.00000000000E+00  0.00000000000E+00  0.45593999997E+02  0.45594000000E+02  0.51100000000E-03 0. -1.
         11   -1    0    0    0    0 -0.00000000000E+00 -0.00000000000E+00 -0.45593999997E+02  0.45594000000E+02  0.51100000000E-03 0.  1.
    9900012    2    1    2    0    0 -0.11305902890E+02  0.97747868677E+01 -0.11283108920E+02  0.72461589629E+02  0.70000025187E+02 0.  0.
         12    1    1    2    0    0  0.11305902890E+02 -0.97747868677E+01  0.11283108920E+02  0.18726410371E+02  0.00000000000E+00 0. -1.
         11    1    3    3    0    0 -0.49199367785E+01  0.15721119313E+02 -0.36312282646E+01  0.16868467308E+02  0.51100000000E-03 0. -1.
        -11    1    3    3    0    0 -0.26366491135E+02  0.91023468212E+01 -0.11711169714E+02  0.30252207667E+02  0.51100000000E-03 0.  1.
         12    1    3    3    0    0  0.19980525023E+02 -0.15048679266E+02  0.40592890588E+01  0.25340914654E+02  0.00000000000E+00 0. -1.
</event>
<event>
 7    1  0.2873608E-013  0.7246164E+02  0.7816164E-02  0.1226708E+00
        -11   -1    0    0    0    0  0.00000000000E+00  0.00000000000E+00  0.45593999997E+02  0.45594000000E+02  0.51100000000E-03 0. -1.
         11   -1    0    0    0    0 -0.00000000000E+00 -0.00000000000E+00 -0.45593999997E+02  0.45594000000E+02  0.51100000000E-03 0.  1.
    9900012    2    1    2    0    0 -0.90269700456E+01  0.10289311090E+02 -0.12779689577E+02  0.72461639526E+02  0.70000090187E+02 0.  0.
         12    1    1    2    0    0  0.90269700456E+01 -0.10289311090E+02  0.12779689577E+02  0.18726360474E+02  0.00000000000E+00 0. -1.
         11    1    3    3    0    0  0.13504474693E+02 -0.15233991822E+02 -0.13933799371E+02  0.24669740751E+02  0.51100000000E-03 0. -1.
        -11    1    3    3    0    0 -0.13714046423E+02  0.11895326088E+02 -0.15983362579E+02  0.24187635925E+02  0.51100000000E-03 0.  1.
        -12    1    3    3    0    0 -0.88173983155E+01  0.13627976824E+02  0.17137472373E+02  0.23604262850E+02  0.00000000000E+00 0.  1.
</event>
<event>
 7    1  0.2873608E-013  0.7246165E+02  0.7816164E-02  0.1226708E+00
        -11   -1    0    0    0    0  0.00000000000E+00  0.00000000000E+00  0.45593999997E+02  0.45594000000E+02  0.51100000000E-03 0.  1.
         11   -1    0    0    0    0 -0.00000000000E+00 -0.00000000000E+00 -0.45593999997E+02  0.45594000000E+02  0.51100000000E-03 0. -1.
    9900012    2    1    2    0    0  0.20476198275E+01  0.85904828910E+01  0.16513237667E+02  0.72461650609E+02  0.70000104625E+02 0.  0.
         12    1    1    2    0    0 -0.20476198275E+01 -0.85904828910E+01 -0.16513237667E+02  0.18726349391E+02  0.00000000000E+00 0. -1.
         11    1    3    3    0    0  0.39720021296E+01  0.22158742068E+02  0.11730905097E+02  0.25385050435E+02  0.51100000000E-03 0. -1.
        -11    1    3    3    0    0 -0.12693951761E+02  0.39042329003E+01  0.18218193601E+02  0.22545110872E+02  0.51100000000E-03 0.  1.
        -12    1    3    3    0    0  0.10769569459E+02 -0.17472492077E+02 -0.13435861031E+02  0.24531489302E+02  0.00000000000E+00 0.  1.
</event>
<event>
 7    1  0.2873608E-013  0.7246158E+02  0.7816164E-02  0.1226708E+00
        -11   -1    0    0    0    0  0.00000000000E+00  0.00000000000E+00  0.45593999997E+02  0.45594000000E+02  0.51100000000E-03 0. -1.
         11   -1    0    0    0    0 -0.00000000000E+00 -0.00000000000E+00 -0.45593999997E+02  0.45594000000E+02  0.51100000000E-03 0.  1.
    9900012    2    1    2    0    0 -0.16906459580E+02 -0.33845352100E+01 -0.73072232117E+01  0.72461575750E+02  0.70000007107E+02 0.  0.
         12    1    1    2    0    0  0.16906459580E+02  0.33845352100E+01  0.73072232117E+01  0.18726424250E+02  0.00000000000E+00 0. -1.
         11    1    3    3    0    0  0.13869707611E+02  0.11204832036E+02  0.16246388406E+02  0.24121819721E+02  0.51100000000E-03 0. -1.
        -11    1    3    3    0    0 -0.22164264240E+01 -0.60461338285E+01  0.41361815982E+01  0.76535141497E+01  0.51100000000E-03 0.  1.
        -12    1    3    3    0    0 -0.28559740767E+02 -0.85432334176E+01 -0.27689793216E+02  0.40686241879E+02  0.00000000000E+00 0.  1.
</event>
<event>
 7    1  0.2873608E-013  0.7246161E+02  0.7816164E-02  0.1226708E+00
        -11   -1    0    0    0    0  0.00000000000E+00  0.00000000000E+00  0.45593999997E+02  0.45594000000E+02  0.51100000000E-03 0.  1.
         11   -1    0    0    0    0 -0.00000000000E+00 -0.00000000000E+00 -0.45593999997E+02  0.45594000000E+02  0.51100000000E-03 0. -1.
    9900012    2    1    2    0    0 -0.10059263223E+02  0.58985917259E+01  0.14652497574E+02  0.72461605630E+02  0.70000046031E+02 0.  0.
         12    1    1    2    0    0  0.10059263223E+02 -0.58985917259E+01 -0.14652497574E+02  0.18726394370E+02  0.00000000000E+00 0. -1.
         11    1    3    3    0    0 -0.21212625106E+02 -0.42145023646E+00 -0.98256618248E+01  0.23381546458E+02  0.51100000000E-03 0. -1.
        -11    1    3    3    0    0  0.11275447836E+01 -0.12785523860E+02 -0.39150463433E+01  0.13418962916E+02  0.51100000000E-03 0.  1.
        -12    1    3    3    0    0  0.10025817100E+02  0.19105565822E+02  0.28393205742E+02  0.35661096256E+02  0.00000000000E+00 0.  1.
</event>
<event>
 7    1  0.2873608E-013  0.7246160E+02  0.7816164E-02  0.1226708E+00
        -11   -1    0    0    0    0  0.00000000000E+00  0.00000000000E+00  0.45593999997E+02  0.45594000000E+02  0.51100000000E-03 0.  1.
         11   -1    0    0    0    0 -0.00000000000E+00 -0.00000000000E+00 -0.45593999997E+02  0.45594000000E+02  0.51100000000E-03 0. -1.
    9900012    2    1    2    0    0  0.99391835717E+01 -0.29014941636E+01  0.15603594048E+02  0.72461596563E+02  0.70000034220E+02 0.  0.
         12    1    1    2    0    0 -0.99391835717E+01  0.29014941636E+01 -0.15603594048E+02  0.18726403437E+02  0.00000000000E+00 0. -1.
         11    1    3    3    0    0  0.23103902755E+02 -0.19802469986E+02  0.10896498068E+02  0.32321228480E+02  0.51100000000E-03 0. -1.
        -11    1    3    3    0    0  0.10150344370E+02  0.11970049766E+02 -0.67710438746E+00  0.15708916348E+02  0.51100000000E-03 0.  1.
         12    1    3    3    0    0 -0.23315063553E+02  0.49309260572E+01  0.53842003672E+01  0.24431451735E+02  0.00000000000E+00 0. -1.
</event>
<event>
 7    1  0.2873608E-013  0.7246163E+02  0.7816164E-02  0.1226708E+00
        -11   -1    0    0    0    0  0.00000000000E+00  0.00000000000E+00  0.45593999997E+02  0.45594000000E+02  0.51100000000E-03 0.  1.
         11   -1    0    0    0    0 -0.00000000000E+00 -0.00000000000E+00 -0.45593999997E+02  0.45594000000E+02  0.51100000000E-03 0. -1.
    9900012    2    1    2    0    0 -0.32613034426E+01  0.18437208656E+02 -0.33187784174E+00  0.72461630729E+02  0.70000078728E+02 0.  0.
         12    1    1    2    0    0  0.32613034426E+01 -0.18437208656E+02  0.33187784174E+00  0.18726369271E+02  0.00000000000E+00 0. -1.
         11    1    3    3    0    0  0.23554335761E+02 -0.73004191300E+01 -0.16260765174E+02  0.29538370586E+02  0.51100000000E-03 0. -1.
        -11    1    3    3    0    0 -0.36917649197E+01 -0.67381620971E+00  0.48096935352E+01  0.61005170822E+01  0.51100000000E-03 0.  1.
        -12    1    3    3    0    0 -0.23123874284E+02  0.26411443996E+02  0.11119193797E+02  0.36822743061E+02  0.00000000000E+00 0.  1.
</event>
<event>
 7    1  0.2873608E-013  0.7246157E+02  0.7816164E-02  0.1226708E+00
        -11   -1    0    0    0    0  0.00000000000E+00  0.00000000000E+00  0.45593999997E+02  0.45594000000E+02  0.51100000000E-03 0.  1.
         11   -1    0    0    0    0 -0.00000000000E+00 -0.00000000000E+00 -0.45593999997E+02  0.45594000000E+02  0.51100000000E-03 0. -1.
    9900012    2    1    2    0    0 -0.48119262838E+00 -0.11859230265E+02  0.14484694342E+02  0.72461567905E+02  0.69999996888E+02 0.  0.
         12    1    1    2    0    0  0.48119262838E+00  0.11859230265E+02 -0.14484694342E+02  0.18726432095E+02  0.00000000000E+00 0. -1.
         11    1    3    3    0    0 -0.20072635107E+02  0.59768332288E+01 -0.12217012688E+01  0.20979174670E+02  0.51100000000E-03 0. -1.
        -11    1    3    3    0    0 -0.11657801791E+01  0.83101912224E+01  0.16033616021E+02  0.18096827472E+02  0.51100000000E-03 0.  1.
         12    1    3    3    0    0  0.20757222658E+02 -0.26146254716E+02 -0.32722041045E+00  0.33385565763E+02  0.00000000000E+00 0. -1.
</event>
<event>
 7    1  0.2873608E-013  0.7246153E+02  0.7816164E-02  0.1226708E+00
        -11   -1    0    0    0    0  0.00000000000E+00  0.00000000000E+00  0.45593999997E+02  0.45594000000E+02  0.51100000000E-03 0.  1.
         11   -1    0    0    0    0 -0.00000000000E+00 -0.00000000000E+00 -0.45593999997E+02  0.45594000000E+02  0.51100000000E-03 0. -1.
    9900012    2    1    2    0    0  0.57444560322E+01 -0.17645741904E+02 -0.25119298830E+01  0.72461527450E+02  0.69999944187E+02 0.  0.
         12    1    1    2    0    0 -0.57444560322E+01  0.17645741904E+02  0.25119298830E+01  0.18726472550E+02  0.00000000000E+00 0. -1.
         11    1    3    3    0    0 -0.15309732986E+01  0.27493176115E+01  0.28624659098E+02  0.28797113315E+02  0.51100000000E-03 0. -1.
        -11    1    3    3    0    0  0.10404799648E+02 -0.53613898588E+01 -0.37932143384E+01  0.12304179461E+02  0.51100000000E-03 0.  1.
        -12    1    3    3    0    0 -0.31293703174E+01 -0.15033669657E+02 -0.27343374642E+02  0.31360234673E+02  0.00000000000E+00 0.  1.
</event>
<event>
 7    1  0.2873608E-013  0.7246158E+02  0.7816164E-02  0.1226708E+00
        -11   -1    0    0    0    0  0.00000000000E+00  0.00000000000E+00  0.45593999997E+02  0.45594000000E+02  0.51100000000E-03 0.  1.
         11   -1    0    0    0    0 -0.00000000000E+00 -0.00000000000E+00 -0.45593999997E+02  0.45594000000E+02  0.51100000000E-03 0. -1.
    9900012    2    1    2    0    0  0.64191141910E+01 -0.40214842600E+01  0.17126044807E+02  0.72461580871E+02  0.70000013779E+02 0.  0.
         12    1    1    2    0    0 -0.64191141910E+01  0.40214842600E+01 -0.17126044807E+02  0.18726419129E+02  0.00000000000E+00 0. -1.
         11    1    3    3    0    0  0.91855944473E+01  0.15482198278E+02  0.55858080141E+01  0.18848736305E+02  0.51100000000E-03 0. -1.
        -11    1    3    3    0    0 -0.12902193324E+02 -0.10169829114E+02  0.27805376697E+02  0.32295990313E+02  0.51100000000E-03 0.  1.
        -12    1    3    3    0    0  0.10135713068E+02 -0.93338534244E+01 -0.16265139904E+02  0.21316854253E+02  0.00000000000E+00 0.  1.
</event>
<event>
 7    1  0.2873608E-013  0.7246158E+02  0.7816164E-02  0.1226708E+00
        -11   -1    0    0    0    0  0.00000000000E+00  0.00000000000E+00  0.45593999997E+02  0.45594000000E+02  0.51100000000E-03 0. -1.
         11   -1    0    0    0    0 -0.00000000000E+00 -0.00000000000E+00 -0.45593999997E+02  0.45594000000E+02  0.51100000000E-03 0.  1.
    9900012    2    1    2    0    0 -0.28852435131E+01 -0.18501895831E+02  0.18454503668E+00  0.72461579190E+02  0.70000011589E+02 0.  0.
         12    1    1    2    0    0  0.28852435131E+01  0.18501895831E+02 -0.18454503668E+00  0.18726420810E+02  0.00000000000E+00 0. -1.
         11    1    3    3    0    0 -0.47094913246E+01 -0.11658191960E+01 -0.55399009309E+01  0.73640305213E+01  0.51100000000E-03 0. -1.
        -11    1    3    3    0    0 -0.15566264163E+01 -0.34211239109E+02 -0.15651990011E+02  0.37653907616E+02  0.51100000000E-03 0.  1.
         12    1    3    3    0    0  0.33808742278E+01  0.16875162474E+02  0.21376435979E+02  0.27443641053E+02  0.00000000000E+00 0. -1.
</event>
<event>
 7    1  0.2873608E-013  0.7246161E+02  0.7816164E-02  0.1226708E+00
        -11   -1    0    0    0    0  0.00000000000E+00  0.00000000000E+00  0.45593999997E+02  0.45594000000E+02  0.51100000000E-03 0. -1.
         11   -1    0    0    0    0 -0.00000000000E+00 -0.00000000000E+00 -0.45593999997E+02  0.45594000000E+02  0.51100000000E-03 0.  1.
    9900012    2    1    2    0    0  0.83784844232E+01  0.42101077848E+01 -0.16209677919E+02  0.72461610411E+02  0.70000052259E+02 0.  0.
         12    1    1    2    0    0 -0.83784844232E+01 -0.42101077848E+01  0.16209677919E+02  0.18726389589E+02  0.00000000000E+00 0. -1.
         11    1    3    3    0    0 -0.26696183854E+02  0.83306891598E+01 -0.47312517465E+00  0.27969813405E+02  0.51100000000E-03 0. -1.
        -11    1    3    3    0    0  0.73104566396E+01  0.83121301755E+01 -0.26917782414E+01  0.11392100539E+02  0.51100000000E-03 0.  1.
        -12    1    3    3    0    0  0.27764211637E+02 -0.12432711550E+02 -0.13044774503E+02  0.33099696467E+02  0.00000000000E+00 0.  1.
</event>
<event>
 7    1  0.4133808E-013  0.7246156E+02  0.7816164E-02  0.1226708E+00
        -11   -1    0    0    0    0  0.00000000000E+00  0.00000000000E+00  0.45593999997E+02  0.45594000000E+02  0.51100000000E-03 0. -1.
         11   -1    0    0    0    0 -0.00000000000E+00 -0.00000000000E+00 -0.45593999997E+02  0.45594000000E+02  0.51100000000E-03 0.  1.
    9900012    2    1    2    0    0  0.47771472537E+01  0.11753491783E+02 -0.13773668176E+02  0.72461557733E+02  0.69999983636E+02 0.  0.
         12    1    1    2    0    0 -0.47771472537E+01 -0.11753491783E+02  0.13773668176E+02  0.18726442267E+02  0.00000000000E+00 0. -1.
         11    1    3    3    0    0  0.23925148465E+01 -0.69067691417E+01  0.14391972444E+01  0.74497567904E+01  0.51100000000E-03 0. -1.
        -11    1    3    3    0    0  0.45888469459E+01 -0.81661805550E+01 -0.31963961799E+02  0.33308240352E+02  0.51100000000E-03 0.  1.
         12    1    3    3    0    0 -0.22042145387E+01  0.26826441480E+02  0.16751096379E+02  0.31703560590E+02  0.00000000000E+00 0. -1.
</event>
<event>
 7    1  0.2873608E-013  0.7246160E+02  0.7816164E-02  0.1226708E+00
        -11   -1    0    0    0    0  0.00000000000E+00  0.00000000000E+00  0.45593999997E+02  0.45594000000E+02  0.51100000000E-03 0.  1.
         11   -1    0    0    0    0 -0.00000000000E+00 -0.00000000000E+00 -0.45593999997E+02  0.45594000000E+02  0.51100000000E-03 0. -1.
    9900012    2    1    2    0    0 -0.76357531420E+01  0.10085056355E+02  0.13808147619E+02  0.72461600763E+02  0.70000039691E+02 0.  0.
         12    1    1    2    0    0  0.76357531420E+01 -0.10085056355E+02 -0.13808147619E+02  0.18726399237E+02  0.00000000000E+00 0. -1.
         11    1    3    3    0    0 -0.51334888348E+01 -0.11230238543E+02  0.84897559229E+01  0.14984889764E+02  0.51100000000E-03 0. -1.
        -11    1    3    3    0    0 -0.12412175172E+02  0.33564021021E+02  0.15198777392E+02  0.38879408870E+02  0.51100000000E-03 0.  1.
         12    1    3    3    0    0  0.99099108647E+01 -0.12248726122E+02 -0.98803856957E+01  0.18597302129E+02  0.00000000000E+00 0. -1.
</event>
<event>
 7    1  0.2873608E-013  0.7246157E+02  0.7816164E-02  0.1226708E+00
        -11   -1    0    0    0    0  0.00000000000E+00  0.00000000000E+00  0.45593999997E+02  0.45594000000E+02  0.51100000000E-03 0.  1.
         11   -1    0    0    0    0 -0.00000000000E+00 -0.00000000000E+00 -0.45593999997E+02  0.45594000000E+02  0.51100000000E-03 0. -1.
    9900012    2    1    2    0    0  0.10188525479E+02 -0.15704645980E+02  0.48697371139E+00  0.72461572146E+02  0.70000002412E+02 0.  0.
         12    1    1    2    0    0 -0.10188525479E+02  0.15704645980E+02 -0.48697371139E+00  0.18726427854E+02  0.00000000000E+00 0. -1.
         11    1    3    3    0    0  0.13410772976E+01 -0.89477623283E+01 -0.25473897438E+01  0.93994751859E+01  0.51100000000E-03 0. -1.
        -11    1    3    3    0    0 -0.25468226151E+02 -0.10594631223E+02 -0.38545276701E+01  0.27852004198E+02  0.51100000000E-03 0.  1.
         12    1    3    3    0    0  0.34315674333E+02  0.38377475719E+01  0.68888911253E+01  0.35210092762E+02  0.00000000000E+00 0. -1.
</event>
<event>
 7    1  0.2873608E-013  0.7246160E+02  0.7816164E-02  0.1226708E+00
        -11   -1    0    0    0    0  0.00000000000E+00  0.00000000000E+00  0.45593999997E+02  0.45594000000E+02  0.51100000000E-03 0. -1.
         11   -1    0    0    0    0 -0.00000000000E+00 -0.00000000000E+00 -0.45593999997E+02  0.45594000000E+02  0.51100000000E-03 0.  1.
    9900012    2    1    2    0    0 -0.32447638843E+00  0.12858541466E+02 -0.13609946833E+02  0.72461600817E+02  0.70000039762E+02 0.  0.
         12    1    1    2    0    0  0.32447638843E+00 -0.12858541466E+02  0.13609946833E+02  0.18726399183E+02  0.00000000000E+00 0. -1.
         11    1    3    3    0    0  0.90261528238E+01  0.30035646776E+02 -0.12115000789E+02  0.33621195048E+02  0.51100000000E-03 0. -1.
        -11    1    3    3    0    0  0.89121477003E+01 -0.85738049764E+01 -0.10977875113E+02  0.16536331233E+02  0.51100000000E-03 0.  1.
         12    1    3    3    0    0 -0.18262776913E+02 -0.86033003340E+01  0.94829290686E+01  0.22304074536E+02  0.00000000000E+00 0. -1.
</event>
<event>
 7    1  0.2873608E-013  0.7246144E+02  0.7816164E-02  0.1226708E+00
        -11   -1    0    0    0    0  0.00000000000E+00  0.00000000000E+00  0.45593999997E+02  0.45594000000E+02  0.51100000000E-03 0. -1.
         11   -1    0    0    0    0 -0.00000000000E+00 -0.00000000000E+00 -0.45593999997E+02  0.45594000000E+02  0.51100000000E-03 0.  1.
    9900012    2    1    2    0    0  0.17283454604E+02 -0.35006041397E+01 -0.63017411207E+01  0.72461442026E+02  0.69999832907E+02 0.  0.
         12    1    1    2    0    0 -0.17283454604E+02  0.35006041397E+01  0.63017411207E+01  0.18726557974E+02  0.00000000000E+00 0. -1.
         11    1    3    3    0    0  0.94860985936E+01 -0.24591444096E+02  0.11199875431E+02  0.28638477598E+02  0.51100000000E-03 0. -1.
        -11    1    3    3    0    0  0.60417557045E+01  0.15592722654E+02  0.73816773625E+01  0.18279085664E+02  0.51100000000E-03 0.  1.
        -12    1    3    3    0    0  0.17556003059E+01  0.54981173015E+01 -0.24883293914E+02  0.25543878764E+02  0.00000000000E+00 0.  1.
</event>
<event>
 7    1  0.2873608E-013  0.7246158E+02  0.7816164E-02  0.1226708E+00
        -11   -1    0    0    0    0  0.00000000000E+00  0.00000000000E+00  0.45593999997E+02  0.45594000000E+02  0.51100000000E-03 0. -1.
         11   -1    0    0    0    0 -0.00000000000E+00 -0.00000000000E+00 -0.45593999997E+02  0.45594000000E+02  0.51100000000E-03 0.  1.
    9900012    2    1    2    0    0  0.16563167305E+02 -0.29315871351E+01 -0.82308003744E+01  0.72461580451E+02  0.70000013231E+02 0.  0.
         12    1    1    2    0    0 -0.16563167305E+02  0.29315871351E+01  0.82308003744E+01  0.18726419549E+02  0.00000000000E+00 0. -1.
         11    1    3    3    0    0  0.42750795618E+01 -0.48817502330E+01 -0.32926102699E+01  0.72766113849E+01  0.51100000000E-03 0. -1.
        -11    1    3    3    0    0  0.89176509541E+01  0.74523013977E+00 -0.34380426743E+02  0.35525956846E+02  0.51100000000E-03 0.  1.
         12    1    3    3    0    0  0.33704367896E+01  0.12049329581E+01  0.29442236639E+02  0.29659012220E+02  0.00000000000E+00 0. -1.
</event>
<event>
 7    1  0.2873608E-013  0.7246152E+02  0.7816164E-02  0.1226708E+00
        -11   -1    0    0    0    0  0.00000000000E+00  0.00000000000E+00  0.45593999997E+02  0.45594000000E+02  0.51100000000E-03 0. -1.
         11   -1    0    0    0    0 -0.00000000000E+00 -0.00000000000E+00 -0.45593999997E+02  0.45594000000E+02  0.51100000000E-03 0.  1.
    9900012    2    1    2    0    0 -0.31747751926E+01  0.82641819239E+01 -0.16501671252E+02  0.72461519965E+02  0.69999934436E+02 0.  0.
         12    1    1    2    0    0  0.31747751926E+01 -0.82641819239E+01  0.16501671252E+02  0.18726480035E+02  0.00000000000E+00 0. -1.
         11    1    3    3    0    0  0.72124793928E+01 -0.77891960198E+01  0.13378889108E+02  0.17078820441E+02  0.51100000000E-03 0. -1.
        -11    1    3    3    0    0 -0.91178643462E+01 -0.13907590131E+02 -0.10045405427E+02  0.19428501845E+02  0.51100000000E-03 0.  1.
        -12    1    3    3    0    0 -0.12693902393E+01  0.29960968074E+02 -0.19835154933E+02  0.35954197679E+02  0.00000000000E+00 0.  1.
</event>
<event>
 7    1  0.2873608E-013  0.7246173E+02  0.7816164E-02  0.1226708E+00
        -11   -1    0    0    0    0  0.00000000000E+00  0.00000000000E+00  0.45593999997E+02  0.45594000000E+02  0.51100000000E-03 0.  1.
         11   -1    0    0    0    0 -0.00000000000E+00 -0.00000000000E+00 -0.45593999997E+02  0.45594000000E+02  0.51100000000E-03 0. -1.
    9900012    2    1    2    0    0  0.15807183237E+02  0.22604547669E+01  0.97824598883E+01  0.72461729173E+02  0.70000206968E+02 0.  0.
         12    1    1    2    0    0 -0.15807183237E+02 -0.22604547669E+01 -0.97824598883E+01  0.18726270827E+02  0.00000000000E+00 0. -1.
         11    1    3    3    0    0  0.36720654478E+01  0.29463284239E+01  0.12753098649E+02  0.13594353285E+02  0.51100000000E-03 0. -1.
        -11    1    3    3    0    0  0.14550048674E+02  0.23211832083E+02  0.12692086448E+02  0.30192418315E+02  0.51100000000E-03 0.  1.
         12    1    3    3    0    0 -0.24149308847E+01 -0.23897705740E+02 -0.15662725208E+02  0.28674957572E+02  0.00000000000E+00 0. -1.
</event>
<event>
 7    1  0.2873608E-013  0.7246154E+02  0.7816164E-02  0.1226708E+00
        -11   -1    0    0    0    0  0.00000000000E+00  0.00000000000E+00  0.45593999997E+02  0.45594000000E+02  0.51100000000E-03 0.  1.
         11   -1    0    0    0    0 -0.00000000000E+00 -0.00000000000E+00 -0.45593999997E+02  0.45594000000E+02  0.51100000000E-03 0. -1.
    9900012    2    1    2    0    0  0.17412274314E+01  0.17835380904E+02  0.54357681373E+01  0.72461541173E+02  0.69999962064E+02 0.  0.
         12    1    1    2    0    0 -0.17412274314E+01 -0.17835380904E+02 -0.54357681373E+01  0.18726458827E+02  0.00000000000E+00 0. -1.
         11    1    3    3    0    0 -0.10441265083E+02  0.12139776673E+01  0.81489314669E+01  0.13300332425E+02  0.51100000000E-03 0. -1.
        -11    1    3    3    0    0 -0.21551867676E+02  0.63184642688E+01 -0.72450269375E+01  0.23598652644E+02  0.51100000000E-03 0.  1.
        -12    1    3    3    0    0  0.33734360191E+02  0.10302938968E+02  0.45318636080E+01  0.35562556103E+02  0.00000000000E+00 0.  1.
</event>
<event>
 7    1  0.2873608E-013  0.7246157E+02  0.7816164E-02  0.1226708E+00
        -11   -1    0    0    0    0  0.00000000000E+00  0.00000000000E+00  0.45593999997E+02  0.45594000000E+02  0.51100000000E-03 0. -1.
         11   -1    0    0    0    0 -0.00000000000E+00 -0.00000000000E+00 -0.45593999997E+02  0.45594000000E+02  0.51100000000E-03 0.  1.
    9900012    2    1    2    0    0 -0.18494535568E+02  0.25932276935E+01  0.13807181184E+01  0.72461573265E+02  0.70000003870E+02 0.  0.
         12    1    1    2    0    0  0.18494535568E+02 -0.25932276935E+01 -0.13807181184E+01  0.18726426735E+02  0.00000000000E+00 0. -1.
         11    1    3    3    0    0 -0.86881836352E+01 -0.66937871014E+01  0.37514850992E+01  0.11591590113E+02  0.51100000000E-03 0. -1.
        -11    1    3    3    0    0 -0.31535606074E+01 -0.23236800999E+02  0.99319246097E+01  0.25466389456E+02  0.51100000000E-03 0.  1.
         12    1    3    3    0    0 -0.66527913253E+01  0.32523815794E+02 -0.12302691590E+02  0.35403593696E+02  0.00000000000E+00 0. -1.
</event>
<event>
 7    1  0.2873608E-013  0.7246157E+02  0.7816164E-02  0.1226708E+00
        -11   -1    0    0    0    0  0.00000000000E+00  0.00000000000E+00  0.45593999997E+02  0.45594000000E+02  0.51100000000E-03 0. -1.
         11   -1    0    0    0    0 -0.00000000000E+00 -0.00000000000E+00 -0.45593999997E+02  0.45594000000E+02  0.51100000000E-03 0.  1.
    9900012    2    1    2    0    0  0.17797583419E+02  0.30967615311E+01 -0.49330978364E+01  0.72461565160E+02  0.69999993312E+02 0.  0.
         12    1    1    2    0    0 -0.17797583419E+02 -0.30967615311E+01  0.49330978364E+01  0.18726434840E+02  0.00000000000E+00 0. -1.
         11    1    3    3    0    0  0.13936745033E+01 -0.26956465682E+02  0.14528839207E+02  0.30654209167E+02  0.51100000000E-03 0. -1.
        -11    1    3    3    0    0 -0.14343518492E+01  0.28168948593E+01  0.10450677720E+01  0.33293285787E+01  0.51100000000E-03 0.  1.
        -12    1    3    3    0    0  0.17838260765E+02  0.27236332354E+02 -0.20507004816E+02  0.38478027415E+02  0.00000000000E+00 0.  1.
</event>
<event>
 7    1  0.2873608E-013  0.7246175E+02  0.7816164E-02  0.1226708E+00
        -11   -1    0    0    0    0  0.00000000000E+00  0.00000000000E+00  0.45593999997E+02  0.45594000000E+02  0.51100000000E-03 0.  1.
         11   -1    0    0    0    0 -0.00000000000E+00 -0.00000000000E+00 -0.45593999997E+02  0.45594000000E+02  0.51100000000E-03 0. -1.
    9900012    2    1    2    0    0 -0.59470298091E+01  0.17725004310E+02  0.10626998192E+01  0.72461754454E+02  0.70000239901E+02 0.  0.
         12    1    1    2    0    0  0.59470298091E+01 -0.17725004310E+02 -0.10626998192E+01  0.18726245546E+02  0.00000000000E+00 0. -1.
         11    1    3    3    0    0  0.42290186536E+01  0.52113497968E+01 -0.16777988073E+02  0.18070518795E+02  0.51100000000E-03 0. -1.
        -11    1    3    3    0    0  0.19260704924E+02  0.36394292423E+00  0.40362567080E+01  0.19682443372E+02  0.51100000000E-03 0.  1.
        -12    1    3    3    0    0 -0.29436753387E+02  0.12149711589E+02  0.13804431184E+02  0.34708792286E+02  0.00000000000E+00 0.  1.
</event>
<event>
 7    1  0.2873608E-013  0.7246153E+02  0.7816164E-02  0.1226708E+00
        -11   -1    0    0    0    0  0.00000000000E+00  0.00000000000E+00  0.45593999997E+02  0.45594000000E+02  0.51100000000E-03 0. -1.
         11   -1    0    0    0    0 -0.00000000000E+00 -0.00000000000E+00 -0.45593999997E+02  0.45594000000E+02  0.51100000000E-03 0.  1.
    9900012    2    1    2    0    0 -0.11528560520E+02 -0.14757051803E+02 -0.49607766365E-01  0.72461528188E+02  0.69999945149E+02 0.  0.
         12    1    1    2    0    0  0.11528560520E+02  0.14757051803E+02  0.49607766365E-01  0.18726471812E+02  0.00000000000E+00 0. -1.
         11    1    3    3    0    0 -0.12633799397E+01 -0.40750962220E+01  0.54069034062E+01  0.68874627255E+01  0.51100000000E-03 0. -1.
        -11    1    3    3    0    0 -0.25407325335E+02 -0.27822445950E+02 -0.15311558665E+02  0.40670191890E+02  0.51100000000E-03 0.  1.
         12    1    3    3    0    0  0.15142144754E+02  0.17140490369E+02  0.98550474926E+01  0.24903873573E+02  0.00000000000E+00 0. -1.
</event>
<event>
 7    1  0.2873608E-013  0.7246157E+02  0.7816164E-02  0.1226708E+00
        -11   -1    0    0    0    0  0.00000000000E+00  0.00000000000E+00  0.45593999997E+02  0.45594000000E+02  0.51100000000E-03 0. -1.
         11   -1    0    0    0    0 -0.00000000000E+00 -0.00000000000E+00 -0.45593999997E+02  0.45594000000E+02  0.51100000000E-03 0.  1.
    9900012    2    1    2    0    0 -0.16516910843E+02 -0.87155273031E+01  0.13822267076E+01  0.72461566526E+02  0.69999995091E+02 0.  0.
         12    1    1    2    0    0  0.16516910843E+02  0.87155273031E+01 -0.13822267076E+01  0.18726433474E+02  0.00000000000E+00 0. -1.
         11    1    3    3    0    0  0.28935139347E+01 -0.74866032282E+01 -0.42005609688E+00  0.80372942072E+01  0.51100000000E-03 0. -1.
        -11    1    3    3    0    0 -0.35344722371E+02 -0.18731999222E+02 -0.35433532993E+01  0.40158343432E+02  0.51100000000E-03 0.  1.
         12    1    3    3    0    0  0.15934297593E+02  0.17503075148E+02  0.53456361037E+01  0.24265928887E+02  0.00000000000E+00 0. -1.
</event>
<event>
 7    1  0.2873608E-013  0.7246157E+02  0.7816164E-02  0.1226708E+00
        -11   -1    0    0    0    0  0.00000000000E+00  0.00000000000E+00  0.45593999997E+02  0.45594000000E+02  0.51100000000E-03 0. -1.
         11   -1    0    0    0    0 -0.00000000000E+00 -0.00000000000E+00 -0.45593999997E+02  0.45594000000E+02  0.51100000000E-03 0.  1.
    9900012    2    1    2    0    0 -0.18063044466E+02 -0.81562019860E+00 -0.48724101112E+01  0.72461569694E+02  0.69999999219E+02 0.  0.
         12    1    1    2    0    0  0.18063044466E+02  0.81562019860E+00  0.48724101112E+01  0.18726430306E+02  0.00000000000E+00 0. -1.
         11    1    3    3    0    0  0.11344848683E+02  0.18743686467E+02 -0.95950544130E+00  0.21930618435E+02  0.51100000000E-03 0. -1.
        -11    1    3    3    0    0 -0.19773071352E+00 -0.15430359769E+02 -0.12441477407E+02  0.19822347499E+02  0.51100000000E-03 0.  1.
        -12    1    3    3    0    0 -0.29210162436E+02 -0.41289468959E+01  0.85285727369E+01  0.30708603760E+02  0.00000000000E+00 0.  1.
</event>
<event>
 7    1  0.2873608E-013  0.7246157E+02  0.7816164E-02  0.1226708E+00
        -11   -1    0    0    0    0  0.00000000000E+00  0.00000000000E+00  0.45593999997E+02  0.45594000000E+02  0.51100000000E-03 0. -1.
         11   -1    0    0    0    0 -0.00000000000E+00 -0.00000000000E+00 -0.45593999997E+02  0.45594000000E+02  0.51100000000E-03 0.  1.
    9900012    2    1    2    0    0 -0.45897210230E+01  0.52967590449E+01  0.17365422554E+02  0.72461572259E+02  0.70000002560E+02 0.  0.
         12    1    1    2    0    0  0.45897210230E+01 -0.52967590449E+01 -0.17365422554E+02  0.18726427741E+02  0.00000000000E+00 0. -1.
         11    1    3    3    0    0  0.11738427046E+01 -0.36216996442E+01 -0.18686388826E+02  0.19070284283E+02  0.51100000000E-03 0. -1.
        -11    1    3    3    0    0 -0.14164987160E+02  0.82086614017E+01  0.50334664813E-02  0.16371591518E+02  0.51100000000E-03 0.  1.
         12    1    3    3    0    0  0.84014234323E+01  0.70979728745E+00  0.36046777914E+02  0.37019696458E+02  0.00000000000E+00 0. -1.
</event>
<event>
 7    1  0.2873608E-013  0.7246181E+02  0.7816164E-02  0.1226707E+00
        -11   -1    0    0    0    0  0.00000000000E+00  0.00000000000E+00  0.45593999997E+02  0.45594000000E+02  0.51100000000E-03 0. -1.
         11   -1    0    0    0    0 -0.00000000000E+00 -0.00000000000E+00 -0.45593999997E+02  0.45594000000E+02  0.51100000000E-03 0.  1.
    9900012    2    1    2    0    0 -0.30493775760E+01  0.16961632285E+02 -0.73262986563E+01  0.72461806437E+02  0.70000307619E+02 0.  0.
         12    1    1    2    0    0  0.30493775760E+01 -0.16961632285E+02  0.73262986563E+01  0.18726193563E+02  0.00000000000E+00 0. -1.
         11    1    3    3    0    0 -0.26988184505E+02  0.13073379309E+02  0.22354591124E+01  0.30071126137E+02  0.51100000000E-03 0. -1.
        -11    1    3    3    0    0 -0.35967499796E+01 -0.70884776310E+01 -0.99627418657E+01  0.12745169724E+02  0.51100000000E-03 0.  1.
        -12    1    3    3    0    0  0.27535556909E+02  0.10976730607E+02  0.40098409695E+00  0.29645510576E+02  0.00000000000E+00 0.  1.
</event>
<event>
 7    1  0.2873608E-013  0.7246156E+02  0.7816164E-02  0.1226708E+00
        -11   -1    0    0    0    0  0.00000000000E+00  0.00000000000E+00  0.45593999997E+02  0.45594000000E+02  0.51100000000E-03 0.  1.
         11   -1    0    0    0    0 -0.00000000000E+00 -0.00000000000E+00 -0.45593999997E+02  0.45594000000E+02  0.51100000000E-03 0. -1.
    9900012    2    1    2    0    0 -0.56602026477E+01 -0.10054735310E+02  0.14749372067E+02  0.72461559534E+02  0.69999985983E+02 0.  0.
         12    1    1    2    0    0  0.56602026477E+01  0.10054735310E+02 -0.14749372067E+02  0.18726440466E+02  0.00000000000E+00 0. -1.
         11    1    3    3    0    0  0.99364616522E+01  0.58224426405E+01  0.93391128872E+01  0.14827445439E+02  0.51100000000E-03 0. -1.
        -11    1    3    3    0    0  0.10227465935E+02 -0.20909998107E+02  0.17060785753E+02  0.28859998113E+02  0.51100000000E-03 0.  1.
         12    1    3    3    0    0 -0.25824130235E+02  0.50328201567E+01 -0.11650526574E+02  0.28774115982E+02  0.00000000000E+00 0. -1.
</event>
<event>
 7    1  0.2873608E-013  0.7246158E+02  0.7816164E-02  0.1226708E+00
        -11   -1    0    0    0    0  0.00000000000E+00  0.00000000000E+00  0.45593999997E+02  0.45594000000E+02  0.51100000000E-03 0.  1.
         11   -1    0    0    0    0 -0.00000000000E+00 -0.00000000000E+00 -0.45593999997E+02  0.45594000000E+02  0.51100000000E-03 0. -1.
    9900012    2    1    2    0    0 -0.39242070968E+01  0.13853366408E+02 -0.11973448802E+02  0.72461584476E+02  0.70000018474E+02 0.  0.
         12    1    1    2    0    0  0.39242070968E+01 -0.13853366408E+02  0.11973448802E+02  0.18726415524E+02  0.00000000000E+00 0. -1.
         11    1    3    3    0    0 -0.94782079754E+01 -0.35506319410E+01  0.42555775624E+01  0.10979679151E+02  0.51100000000E-03 0. -1.
        -11    1    3    3    0    0 -0.21851028642E+02  0.21952048961E+02 -0.43843984249E+01  0.31282308996E+02  0.51100000000E-03 0.  1.
         12    1    3    3    0    0  0.27405029521E+02 -0.45480506123E+01 -0.11844627939E+02  0.30199596329E+02  0.00000000000E+00 0. -1.
</event>
<event>
 7    1  0.2873608E-013  0.7246172E+02  0.7816164E-02  0.1226708E+00
        -11   -1    0    0    0    0  0.00000000000E+00  0.00000000000E+00  0.45593999997E+02  0.45594000000E+02  0.51100000000E-03 0.  1.
         11   -1    0    0    0    0 -0.00000000000E+00 -0.00000000000E+00 -0.45593999997E+02  0.45594000000E+02  0.51100000000E-03 0. -1.
    9900012    2    1    2    0    0 -0.50474971411E+01  0.17568155790E+02 -0.40689531794E+01  0.72461716193E+02  0.70000190060E+02 0.  0.
         12    1    1    2    0    0  0.50474971411E+01 -0.17568155790E+02  0.40689531794E+01  0.18726283807E+02  0.00000000000E+00 0. -1.
         11    1    3    3    0    0 -0.16766195599E+02  0.22390400609E+01 -0.27478751961E+01  0.17136785977E+02  0.51100000000E-03 0. -1.
        -11    1    3    3    0    0  0.46933657908E+01  0.95748910880E+01  0.25161952971E+02  0.27328192392E+02  0.51100000000E-03 0.  1.
         12    1    3    3    0    0  0.70253326670E+01  0.57542246406E+01 -0.26483030955E+02  0.27996737825E+02  0.00000000000E+00 0. -1.
</event>
<event>
 7    1  0.2873608E-013  0.7246156E+02  0.7816164E-02  0.1226708E+00
        -11   -1    0    0    0    0  0.00000000000E+00  0.00000000000E+00  0.45593999997E+02  0.45594000000E+02  0.51100000000E-03 0.  1.
         11   -1    0    0    0    0 -0.00000000000E+00 -0.00000000000E+00 -0.45593999997E+02  0.45594000000E+02  0.51100000000E-03 0. -1.
    9900012    2    1    2    0    0  0.62949778803E+01  0.60636505035E+01  0.16561548734E+02  0.72461561459E+02  0.69999988491E+02 0.  0.
         12    1    1    2    0    0 -0.62949778803E+01 -0.60636505035E+01 -0.16561548734E+02  0.18726438541E+02  0.00000000000E+00 0. -1.
         11    1    3    3    0    0 -0.11166386275E+02  0.22546706732E+02  0.78557455388E+00  0.25172590144E+02  0.51100000000E-03 0. -1.
        -11    1    3    3    0    0  0.20631583699E+01  0.39870802013E+01 -0.99928420339E+01  0.10954922326E+02  0.51100000000E-03 0.  1.
        -12    1    3    3    0    0  0.15398205786E+02 -0.20470136430E+02  0.25768816214E+02  0.36334048989E+02  0.00000000000E+00 0.  1.
</event>
<event>
 7    1  0.2873608E-013  0.7246160E+02  0.7816164E-02  0.1226708E+00
        -11   -1    0    0    0    0  0.00000000000E+00  0.00000000000E+00  0.45593999997E+02  0.45594000000E+02  0.51100000000E-03 0.  1.
         11   -1    0    0    0    0 -0.00000000000E+00 -0.00000000000E+00 -0.45593999997E+02  0.45594000000E+02  0.51100000000E-03 0. -1.
    9900012    2    1    2    0    0  0.10650725578E+02 -0.70222571046E+01  0.13708690303E+02  0.72461595113E+02  0.70000032331E+02 0.  0.
         12    1    1    2    0    0 -0.10650725578E+02  0.70222571046E+01 -0.13708690303E+02  0.18726404887E+02  0.00000000000E+00 0. -1.
         11    1    3    3    0    0  0.12710285624E+02 -0.59941103097E+01  0.14191012580E+01  0.14124254588E+02  0.51100000000E-03 0. -1.
        -11    1    3    3    0    0  0.77542616378E+01 -0.27125092329E+02  0.11440722638E+02  0.30443215043E+02  0.51100000000E-03 0.  1.
         12    1    3    3    0    0 -0.98138216835E+01  0.26096945534E+02  0.84886640694E+00  0.27894125482E+02  0.00000000000E+00 0. -1.
</event>
<event>
 7    1  0.2873608E-013  0.7246157E+02  0.7816164E-02  0.1226708E+00
        -11   -1    0    0    0    0  0.00000000000E+00  0.00000000000E+00  0.45593999997E+02  0.45594000000E+02  0.51100000000E-03 0.  1.
         11   -1    0    0    0    0 -0.00000000000E+00 -0.00000000000E+00 -0.45593999997E+02  0.45594000000E+02  0.51100000000E-03 0. -1.
    9900012    2    1    2    0    0  0.14637079757E+02  0.10589584082E+02 -0.49290832029E+01  0.72461567984E+02  0.69999996990E+02 0.  0.
         12    1    1    2    0    0 -0.14637079757E+02 -0.10589584082E+02  0.49290832029E+01  0.18726432016E+02  0.00000000000E+00 0. -1.
         11    1    3    3    0    0  0.20164574693E+02  0.17826289576E+02 -0.15366914431E+02  0.30992397971E+02  0.51100000000E-03 0. -1.
        -11    1    3    3    0    0 -0.34496161638E+01  0.14479522644E+02 -0.38708957293E+01  0.15379865464E+02  0.51100000000E-03 0.  1.
        -12    1    3    3    0    0 -0.20778787719E+01 -0.21716228138E+02  0.14308726957E+02  0.26089304549E+02  0.00000000000E+00 0.  1.
</event>
<event>
 7    1  0.2873608E-013  0.7246156E+02  0.7816164E-02  0.1226708E+00
        -11   -1    0    0    0    0  0.00000000000E+00  0.00000000000E+00  0.45593999997E+02  0.45594000000E+02  0.51100000000E-03 0. -1.
         11   -1    0    0    0    0 -0.00000000000E+00 -0.00000000000E+00 -0.45593999997E+02  0.45594000000E+02  0.51100000000E-03 0.  1.
    9900012    2    1    2    0    0  0.68849245338E+01 -0.12970108249E+02 -0.11621252968E+02  0.72461563757E+02  0.69999991484E+02 0.  0.
         12    1    1    2    0    0 -0.68849245338E+01  0.12970108249E+02  0.11621252968E+02  0.18726436243E+02  0.00000000000E+00 0. -1.
         11    1    3    3    0    0 -0.91507247072E+01  0.26164887480E+01  0.15628655673E+02  0.18298542413E+02  0.51100000000E-03 0. -1.
        -11    1    3    3    0    0 -0.10118415188E+02 -0.79080976340E+00 -0.21209514984E+02  0.23512788693E+02  0.51100000000E-03 0.  1.
        -12    1    3    3    0    0  0.26154064429E+02 -0.14795787234E+02 -0.60403936570E+01  0.30650232651E+02  0.00000000000E+00 0.  1.
</event>
<event>
 7    1  0.2873608E-013  0.7246165E+02  0.7816164E-02  0.1226708E+00
        -11   -1    0    0    0    0  0.00000000000E+00  0.00000000000E+00  0.45593999997E+02  0.45594000000E+02  0.51100000000E-03 0.  1.
         11   -1    0    0    0    0 -0.00000000000E+00 -0.00000000000E+00 -0.45593999997E+02  0.45594000000E+02  0.51100000000E-03 0. -1.
    9900012    2    1    2    0    0  0.15856644429E+02  0.88198165983E+01  0.46318266309E+01  0.72461650774E+02  0.70000104840E+02 0.  0.
         12    1    1    2    0    0 -0.15856644429E+02 -0.88198165983E+01 -0.46318266309E+01  0.18726349226E+02  0.00000000000E+00 0. -1.
         11    1    3    3    0    0 -0.13990642262E+02  0.38662964254E+01  0.26951471100E+00  0.14517539647E+02  0.51100000000E-03 0. -1.
        -11    1    3    3    0    0 -0.85185339761E+01  0.15639097706E+02 -0.54412980917E+00  0.17816926662E+02  0.51100000000E-03 0.  1.
        -12    1    3    3    0    0  0.38365820668E+02 -0.10685577533E+02  0.49064417291E+01  0.40127184466E+02  0.00000000000E+00 0.  1.
</event>
<event>
 7    1  0.2873608E-013  0.7246145E+02  0.7816164E-02  0.1226708E+00
        -11   -1    0    0    0    0  0.00000000000E+00  0.00000000000E+00  0.45593999997E+02  0.45594000000E+02  0.51100000000E-03 0.  1.
         11   -1    0    0    0    0 -0.00000000000E+00 -0.00000000000E+00 -0.45593999997E+02  0.45594000000E+02  0.51100000000E-03 0. -1.
    9900012    2    1    2    0    0 -0.53745596538E+00  0.14931510566E+02  0.11289151101E+02  0.72461446679E+02  0.69999838968E+02 0.  0.
         12    1    1    2    0    0  0.53745596538E+00 -0.14931510566E+02 -0.11289151101E+02  0.18726553321E+02  0.00000000000E+00 0. -1.
         11    1    3    3    0    0 -0.21372017419E+01  0.11706867908E+01 -0.14214288814E+01  0.28210989302E+01  0.51100000000E-03 0. -1.
        -11    1    3    3    0    0 -0.22767163228E+02  0.24831287784E+02  0.23189184141E+02  0.40898347594E+02  0.51100000000E-03 0.  1.
         12    1    3    3    0    0  0.24366909005E+02 -0.11070464009E+02 -0.10478604159E+02  0.28742000155E+02  0.00000000000E+00 0. -1.
</event>
<event>
 7    1  0.2873608E-013  0.7246147E+02  0.7816164E-02  0.1226708E+00
        -11   -1    0    0    0    0  0.00000000000E+00  0.00000000000E+00  0.45593999997E+02  0.45594000000E+02  0.51100000000E-03 0. -1.
         11   -1    0    0    0    0 -0.00000000000E+00 -0.00000000000E+00 -0.45593999997E+02  0.45594000000E+02  0.51100000000E-03 0.  1.
    9900012    2    1    2    0    0  0.96122970429E+00  0.15840384390E+02 -0.99418852923E+01  0.72461472737E+02  0.69999872913E+02 0.  0.
         12    1    1    2    0    0 -0.96122970429E+00 -0.15840384390E+02  0.99418852923E+01  0.18726527263E+02  0.00000000000E+00 0. -1.
         11    1    3    3    0    0 -0.13057609649E+02  0.14248181066E+02  0.25772816485E+02  0.32214125834E+02  0.51100000000E-03 0. -1.
        -11    1    3    3    0    0  0.25330990946E+01  0.22930556421E+01 -0.83339726420E+00  0.35169939525E+01  0.51100000000E-03 0.  1.
        -12    1    3    3    0    0  0.11485740259E+02 -0.70085231751E+00 -0.34881304513E+02  0.36730352950E+02  0.00000000000E+00 0.  1.
</event>
<event>
 7    1  0.2873608E-013  0.7246150E+02  0.7816164E-02  0.1226708E+00
        -11   -1    0    0    0    0  0.00000000000E+00  0.00000000000E+00  0.45593999997E+02  0.45594000000E+02  0.51100000000E-03 0. -1.
         11   -1    0    0    0    0 -0.00000000000E+00 -0.00000000000E+00 -0.45593999997E+02  0.45594000000E+02  0.51100000000E-03 0.  1.
    9900012    2    1    2    0    0 -0.61822029405E+01  0.11568563694E+02  0.13365265806E+02  0.72461504620E+02  0.69999914447E+02 0.  0.
         12    1    1    2    0    0  0.61822029405E+01 -0.11568563694E+02 -0.13365265806E+02  0.18726495380E+02  0.00000000000E+00 0. -1.
         11    1    3    3    0    0  0.13410301856E+02  0.26157795559E+02  0.22144666372E+02  0.36802890014E+02  0.51100000000E-03 0. -1.
        -11    1    3    3    0    0 -0.25374881374E+01  0.23088531866E+01  0.63945528427E+01  0.72567179499E+01  0.51100000000E-03 0.  1.
        -12    1    3    3    0    0 -0.17055016659E+02 -0.16898085051E+02 -0.15173953408E+02  0.28401896656E+02  0.00000000000E+00 0.  1.
</event>
<event>
 7    1  0.2873608E-013  0.7246157E+02  0.7816164E-02  0.1226708E+00
        -11   -1    0    0    0    0  0.00000000000E+00  0.00000000000E+00  0.45593999997E+02  0.45594000000E+02  0.51100000000E-03 0.  1.
         11   -1    0    0    0    0 -0.00000000000E+00 -0.00000000000E+00 -0.45593999997E+02  0.45594000000E+02  0.51100000000E-03 0. -1.
    9900012    2    1    2    0    0  0.41404442036E+01 -0.35922946232E+00  0.18259436548E+02  0.72461565554E+02  0.69999993825E+02 0.  0.
         12    1    1    2    0    0 -0.41404442036E+01  0.35922946232E+00 -0.18259436548E+02  0.18726434446E+02  0.00000000000E+00 0. -1.
         11    1    3    3    0    0 -0.44946714512E+01  0.56624493988E+01 -0.31821125029E+01  0.78988128785E+01  0.51100000000E-03 0. -1.
        -11    1    3    3    0    0 -0.12341794706E+01 -0.32174555837E+02  0.16487442906E+02  0.36174037874E+02  0.51100000000E-03 0.  1.
         12    1    3    3    0    0  0.98692951254E+01  0.26152876976E+02  0.49541061452E+01  0.28388714802E+02  0.00000000000E+00 0. -1.
</event>
<event>
 7    1  0.2873608E-013  0.7246157E+02  0.7816164E-02  0.1226708E+00
        -11   -1    0    0    0    0  0.00000000000E+00  0.00000000000E+00  0.45593999997E+02  0.45594000000E+02  0.51100000000E-03 0.  1.
         11   -1    0    0    0    0 -0.00000000000E+00 -0.00000000000E+00 -0.45593999997E+02  0.45594000000E+02  0.51100000000E-03 0. -1.
    9900012    2    1    2    0    0  0.91042429305E+01  0.12922785768E+02  0.10039601753E+02  0.72461568554E+02  0.69999997733E+02 0.  0.
         12    1    1    2    0    0 -0.91042429305E+01 -0.12922785768E+02 -0.10039601753E+02  0.18726431446E+02  0.00000000000E+00 0. -1.
         11    1    3    3    0    0 -0.10464992337E+02  0.22420193044E+02 -0.84024112010E+01  0.26130090604E+02  0.51100000000E-03 0. -1.
        -11    1    3    3    0    0 -0.17478359211E+01  0.69159265297E+00 -0.95315793422E+01  0.97151549562E+01  0.51100000000E-03 0.  1.
        -12    1    3    3    0    0  0.21317071189E+02 -0.10188999929E+02  0.27973592296E+02  0.36616322994E+02  0.00000000000E+00 0.  1.
</event>
<event>
 7    1  0.2873608E-013  0.7246167E+02  0.7816164E-02  0.1226708E+00
        -11   -1    0    0    0    0  0.00000000000E+00  0.00000000000E+00  0.45593999997E+02  0.45594000000E+02  0.51100000000E-03 0.  1.
         11   -1    0    0    0    0 -0.00000000000E+00 -0.00000000000E+00 -0.45593999997E+02  0.45594000000E+02  0.51100000000E-03 0. -1.
    9900012    2    1    2    0    0  0.71763009749E+01  0.12021249140E+02 -0.12436462684E+02  0.72461672794E+02  0.70000133524E+02 0.  0.
         12    1    1    2    0    0 -0.71763009749E+01 -0.12021249140E+02  0.12436462684E+02  0.18726327206E+02  0.00000000000E+00 0. -1.
         11    1    3    3    0    0  0.12031960880E+02 -0.44395794973E+01 -0.23907392471E+02  0.27130082266E+02  0.51100000000E-03 0. -1.
        -11    1    3    3    0    0  0.14302169842E+02  0.10906393753E+02 -0.58504278779E+01  0.18913725003E+02  0.51100000000E-03 0.  1.
        -12    1    3    3    0    0 -0.19157829746E+02  0.55544348839E+01  0.17321357666E+02  0.26417865524E+02  0.00000000000E+00 0.  1.
</event>
<event>
 7    1  0.2873608E-013  0.7246159E+02  0.7816164E-02  0.1226708E+00
        -11   -1    0    0    0    0  0.00000000000E+00  0.00000000000E+00  0.45593999997E+02  0.45594000000E+02  0.51100000000E-03 0. -1.
         11   -1    0    0    0    0 -0.00000000000E+00 -0.00000000000E+00 -0.45593999997E+02  0.45594000000E+02  0.51100000000E-03 0.  1.
    9900012    2    1    2    0    0  0.13479250148E+02  0.12248488910E+02  0.43546274164E+01  0.72461589637E+02  0.70000025197E+02 0.  0.
         12    1    1    2    0    0 -0.13479250148E+02 -0.12248488910E+02 -0.43546274164E+01  0.18726410363E+02  0.00000000000E+00 0. -1.
         11    1    3    3    0    0 -0.73833122307E+01  0.94260580639E+01  0.10075492222E+02  0.15648623387E+02  0.51100000000E-03 0. -1.
        -11    1    3    3    0    0 -0.40489991468E+01  0.22462818484E+02 -0.97795254190E+01  0.24831667806E+02  0.51100000000E-03 0.  1.
        -12    1    3    3    0    0  0.24911561526E+02 -0.19640387638E+02  0.40586606132E+01  0.31981298444E+02  0.00000000000E+00 0.  1.
</event>
<event>
 7    1  0.2873608E-013  0.7246157E+02  0.7816164E-02  0.1226708E+00
        -11   -1    0    0    0    0  0.00000000000E+00  0.00000000000E+00  0.45593999997E+02  0.45594000000E+02  0.51100000000E-03 0.  1.
         11   -1    0    0    0    0 -0.00000000000E+00 -0.00000000000E+00 -0.45593999997E+02  0.45594000000E+02  0.51100000000E-03 0. -1.
    9900012    2    1    2    0    0  0.22168867401E+01  0.10788627991E+02  0.15144971458E+02  0.72461568380E+02  0.69999997507E+02 0.  0.
         12    1    1    2    0    0 -0.22168867401E+01 -0.10788627991E+02 -0.15144971458E+02  0.18726431620E+02  0.00000000000E+00 0. -1.
         11    1    3    3    0    0  0.38598680951E+01 -0.10887264706E+02  0.12662385766E+02  0.17139636170E+02  0.51100000000E-03 0.  1.
        -11    1    3    3    0    0 -0.21151112210E+02  0.92396495550E+00  0.13133218381E+02  0.24913945577E+02  0.51100000000E-03 0. -1.
         12    1    3    3    0    0  0.19508130855E+02  0.20751927741E+02 -0.10650632688E+02  0.30407986633E+02  0.00000000000E+00 0. -1.
</event>
<event>
 7    1  0.2873608E-013  0.7246128E+02  0.7816164E-02  0.1226709E+00
        -11   -1    0    0    0    0  0.00000000000E+00  0.00000000000E+00  0.45593999997E+02  0.45594000000E+02  0.51100000000E-03 0.  1.
         11   -1    0    0    0    0 -0.00000000000E+00 -0.00000000000E+00 -0.45593999997E+02  0.45594000000E+02  0.51100000000E-03 0. -1.
    9900012    2    1    2    0    0  0.77226522871E+01 -0.15904171883E+02 -0.61731598032E+01  0.72461282627E+02  0.69999625258E+02 0.  0.
         12    1    1    2    0    0 -0.77226522871E+01  0.15904171883E+02  0.61731598032E+01  0.18726717373E+02  0.00000000000E+00 0. -1.
         11    1    3    3    0    0 -0.95685679818E+01 -0.10994228033E+02 -0.18187796889E+01  0.14688039457E+02  0.51100000000E-03 0. -1.
        -11    1    3    3    0    0  0.42609718073E+00 -0.28460117452E+02 -0.44358751647E+01  0.28806888637E+02  0.51100000000E-03 0.  1.
         12    1    3    3    0    0  0.16865123088E+02  0.23550173602E+02  0.81495050387E-01  0.28966354533E+02  0.00000000000E+00 0. -1.
</event>
<event>
 7    1  0.2873608E-013  0.7246160E+02  0.7816164E-02  0.1226708E+00
        -11   -1    0    0    0    0  0.00000000000E+00  0.00000000000E+00  0.45593999997E+02  0.45594000000E+02  0.51100000000E-03 0. -1.
         11   -1    0    0    0    0 -0.00000000000E+00 -0.00000000000E+00 -0.45593999997E+02  0.45594000000E+02  0.51100000000E-03 0.  1.
    9900012    2    1    2    0    0 -0.51406635225E+00  0.62906701605E+01 -0.17630688892E+02  0.72461601893E+02  0.70000041163E+02 0.  0.
         12    1    1    2    0    0  0.51406635225E+00 -0.62906701605E+01  0.17630688892E+02  0.18726398107E+02  0.00000000000E+00 0. -1.
         11    1    3    3    0    0  0.26329769164E+02 -0.48358560834E+00  0.32440033228E+01  0.26533265104E+02  0.51100000000E-03 0. -1.
        -11    1    3    3    0    0 -0.12438237673E+00 -0.44671898059E+01  0.52575522230E+01  0.69002254584E+01  0.51100000000E-03 0.  1.
        -12    1    3    3    0    0 -0.26719453139E+02  0.11241445575E+02 -0.26132244437E+02  0.39028111330E+02  0.00000000000E+00 0.  1.
</event>
<event>
 7    1  0.2873608E-013  0.7246169E+02  0.7816164E-02  0.1226708E+00
        -11   -1    0    0    0    0  0.00000000000E+00  0.00000000000E+00  0.45593999997E+02  0.45594000000E+02  0.51100000000E-03 0. -1.
         11   -1    0    0    0    0 -0.00000000000E+00 -0.00000000000E+00 -0.45593999997E+02  0.45594000000E+02  0.51100000000E-03 0.  1.
    9900012    2    1    2    0    0  0.18573345069E+02  0.23805534167E+01 -0.19582306106E+00  0.72461694216E+02  0.70000161431E+02 0.  0.
         12    1    1    2    0    0 -0.18573345069E+02 -0.23805534167E+01  0.19582306106E+00  0.18726305784E+02  0.00000000000E+00 0. -1.
         11    1    3    3    0    0 -0.23595593827E+01  0.61115069620E+01  0.89190899997E+00  0.66116215676E+01  0.51100000000E-03 0. -1.
        -11    1    3    3    0    0 -0.21302688016E+02 -0.86883776066E+01 -0.34272340678E+01  0.23260231206E+02  0.51100000000E-03 0.  1.
         12    1    3    3    0    0  0.42235592468E+02  0.49574240612E+01  0.23395020068E+01  0.42589841443E+02  0.00000000000E+00 0. -1.
</event>
<event>
 7    1  0.2873608E-013  0.7246157E+02  0.7816164E-02  0.1226708E+00
        -11   -1    0    0    0    0  0.00000000000E+00  0.00000000000E+00  0.45593999997E+02  0.45594000000E+02  0.51100000000E-03 0.  1.
         11   -1    0    0    0    0 -0.00000000000E+00 -0.00000000000E+00 -0.45593999997E+02  0.45594000000E+02  0.51100000000E-03 0. -1.
    9900012    2    1    2    0    0 -0.62980024652E+01  0.12290130155E+02  0.12647813141E+02  0.72461566503E+02  0.69999995061E+02 0.  0.
         12    1    1    2    0    0  0.62980024652E+01 -0.12290130155E+02 -0.12647813141E+02  0.18726433497E+02  0.00000000000E+00 0. -1.
         11    1    3    3    0    0  0.28880223159E+00  0.20086295364E+02 -0.19119067685E+02  0.27732317206E+02  0.51100000000E-03 0. -1.
        -11    1    3    3    0    0  0.22268553104E+01  0.10723660258E+02  0.10189525368E+02  0.14959351637E+02  0.51100000000E-03 0.  1.
        -12    1    3    3    0    0 -0.88136600072E+01 -0.18519825468E+02  0.21577355459E+02  0.29769897660E+02  0.00000000000E+00 0.  1.
</event>
<event>
 7    1  0.2873608E-013  0.7246150E+02  0.7816164E-02  0.1226708E+00
        -11   -1    0    0    0    0  0.00000000000E+00  0.00000000000E+00  0.45593999997E+02  0.45594000000E+02  0.51100000000E-03 0.  1.
         11   -1    0    0    0    0 -0.00000000000E+00 -0.00000000000E+00 -0.45593999997E+02  0.45594000000E+02  0.51100000000E-03 0. -1.
    9900012    2    1    2    0    0  0.86134392962E+01 -0.98362519949E+01  0.13406664646E+02  0.72461498812E+02  0.69999906881E+02 0.  0.
         12    1    1    2    0    0 -0.86134392962E+01  0.98362519949E+01 -0.13406664646E+02  0.18726501188E+02  0.00000000000E+00 0. -1.
         11    1    3    3    0    0 -0.16722134453E+02  0.57124033045E+01 -0.16754176414E+02  0.24350847208E+02  0.51100000000E-03 0. -1.
        -11    1    3    3    0    0  0.22322852930E+02 -0.15543632384E+02  0.12049955091E+02  0.29750893912E+02  0.51100000000E-03 0.  1.
        -12    1    3    3    0    0  0.30127208191E+01 -0.50229154142E-02  0.18110885968E+02  0.18359757692E+02  0.00000000000E+00 0.  1.
</event>
<event>
 7    1  0.2873608E-013  0.7246153E+02  0.7816164E-02  0.1226708E+00
        -11   -1    0    0    0    0  0.00000000000E+00  0.00000000000E+00  0.45593999997E+02  0.45594000000E+02  0.51100000000E-03 0. -1.
         11   -1    0    0    0    0 -0.00000000000E+00 -0.00000000000E+00 -0.45593999997E+02  0.45594000000E+02  0.51100000000E-03 0.  1.
    9900012    2    1    2    0    0 -0.16144605145E+02 -0.94349803377E+01  0.10068225910E+01  0.72461526200E+02  0.69999942558E+02 0.  0.
         12    1    1    2    0    0  0.16144605145E+02  0.94349803377E+01 -0.10068225910E+01  0.18726473800E+02  0.00000000000E+00 0. -1.
         11    1    3    3    0    0  0.44384896034E+01 -0.57065474571E+01  0.48824463627E+01  0.87237123168E+01  0.51100000000E-03 0. -1.
        -11    1    3    3    0    0 -0.34837943509E+02 -0.15314328451E+02  0.11529802912E+02  0.39763643185E+02  0.51100000000E-03 0.  1.
         12    1    3    3    0    0  0.14254848761E+02  0.11585895570E+02 -0.15405426684E+02  0.23974170698E+02  0.00000000000E+00 0. -1.
</event>
<event>
 7    1  0.2873608E-013  0.7246156E+02  0.7816164E-02  0.1226708E+00
        -11   -1    0    0    0    0  0.00000000000E+00  0.00000000000E+00  0.45593999997E+02  0.45594000000E+02  0.51100000000E-03 0.  1.
         11   -1    0    0    0    0 -0.00000000000E+00 -0.00000000000E+00 -0.45593999997E+02  0.45594000000E+02  0.51100000000E-03 0. -1.
    9900012    2    1    2    0    0 -0.25871517480E+01 -0.18209022325E+02  0.35238611541E+01  0.72461562922E+02  0.69999990396E+02 0.  0.
         12    1    1    2    0    0  0.25871517480E+01  0.18209022325E+02 -0.35238611541E+01  0.18726437078E+02  0.00000000000E+00 0. -1.
         11    1    3    3    0    0 -0.12063608125E+02 -0.34969381682E+01 -0.21661450235E+02  0.25039521642E+02  0.51100000000E-03 0. -1.
        -11    1    3    3    0    0  0.98887399192E+01 -0.44203642743E+01 -0.74851497094E+01  0.13166406645E+02  0.51100000000E-03 0.  1.
        -12    1    3    3    0    0 -0.41228354193E+00 -0.10291719883E+02  0.32670461098E+02  0.34255634635E+02  0.00000000000E+00 0.  1.
</event>
<event>
 7    1  0.2873608E-013  0.7246148E+02  0.7816164E-02  0.1226708E+00
        -11   -1    0    0    0    0  0.00000000000E+00  0.00000000000E+00  0.45593999997E+02  0.45594000000E+02  0.51100000000E-03 0.  1.
         11   -1    0    0    0    0 -0.00000000000E+00 -0.00000000000E+00 -0.45593999997E+02  0.45594000000E+02  0.51100000000E-03 0. -1.
    9900012    2    1    2    0    0  0.14080530375E+01  0.86599068372E+01  0.16544063170E+02  0.72461478007E+02  0.69999879778E+02 0.  0.
         12    1    1    2    0    0 -0.14080530375E+01 -0.86599068372E+01 -0.16544063170E+02  0.18726521993E+02  0.00000000000E+00 0. -1.
         11    1    3    3    0    0 -0.20222455204E+02 -0.99924385543E+01 -0.91135130781E+01  0.24328021778E+02  0.51100000000E-03 0. -1.
        -11    1    3    3    0    0  0.16948368731E+02  0.51614019775E+00  0.75521883171E+00  0.16973036236E+02  0.51100000000E-03 0.  1.
        -12    1    3    3    0    0  0.46821395103E+01  0.18136205194E+02  0.24902357417E+02  0.31160419993E+02  0.00000000000E+00 0.  1.
</event>
<event>
 7    1  0.2873608E-013  0.7246156E+02  0.7816164E-02  0.1226708E+00
        -11   -1    0    0    0    0  0.00000000000E+00  0.00000000000E+00  0.45593999997E+02  0.45594000000E+02  0.51100000000E-03 0.  1.
         11   -1    0    0    0    0 -0.00000000000E+00 -0.00000000000E+00 -0.45593999997E+02  0.45594000000E+02  0.51100000000E-03 0. -1.
    9900012    2    1    2    0    0  0.64181265587E+01 -0.54310412990E+01  0.16732928068E+02  0.72461563077E+02  0.69999990598E+02 0.  0.
         12    1    1    2    0    0 -0.64181265587E+01  0.54310412990E+01 -0.16732928068E+02  0.18726436923E+02  0.00000000000E+00 0. -1.
         11    1    3    3    0    0  0.28443295958E+00 -0.36340186994E+01 -0.33958149158E+01  0.49818222791E+01  0.51100000000E-03 0. -1.
        -11    1    3    3    0    0  0.72186060475E+01  0.12714822780E+02 -0.20011073478E+02  0.24783422960E+02  0.51100000000E-03 0.  1.
        -12    1    3    3    0    0 -0.10849124484E+01 -0.14511845380E+02  0.40139816462E+02  0.42696317838E+02  0.00000000000E+00 0.  1.
</event>
<event>
 7    1  0.3941480E-013  0.7246149E+02  0.7816164E-02  0.1226708E+00
        -11   -1    0    0    0    0  0.00000000000E+00  0.00000000000E+00  0.45593999997E+02  0.45594000000E+02  0.51100000000E-03 0. -1.
         11   -1    0    0    0    0 -0.00000000000E+00 -0.00000000000E+00 -0.45593999997E+02  0.45594000000E+02  0.51100000000E-03 0.  1.
    9900012    2    1    2    0    0 -0.77095173254E+01 -0.47475696011E+01 -0.16392262688E+02  0.72461485360E+02  0.69999889358E+02 0.  0.
         12    1    1    2    0    0  0.77095173254E+01  0.47475696011E+01  0.16392262688E+02  0.18726514640E+02  0.00000000000E+00 0. -1.
         11    1    3    3    0    0 -0.72199860612E+00  0.12022145911E+02 -0.34347851974E+01  0.12524017882E+02  0.51100000000E-03 0. -1.
        -11    1    3    3    0    0  0.15858310059E+02  0.46497282316E+01 -0.21837950590E+02  0.27386165427E+02  0.51100000000E-03 0.  1.
         12    1    3    3    0    0 -0.22845828778E+02 -0.21419443743E+02  0.88804730990E+01  0.32551302052E+02  0.00000000000E+00 0. -1.
</event>
<event>
 7    1  0.2873608E-013  0.7246156E+02  0.7816164E-02  0.1226708E+00
        -11   -1    0    0    0    0  0.00000000000E+00  0.00000000000E+00  0.45593999997E+02  0.45594000000E+02  0.51100000000E-03 0. -1.
         11   -1    0    0    0    0 -0.00000000000E+00 -0.00000000000E+00 -0.45593999997E+02  0.45594000000E+02  0.51100000000E-03 0.  1.
    9900012    2    1    2    0    0 -0.95371703335E+01 -0.12846750024E+02 -0.97305198585E+01  0.72461558243E+02  0.69999984302E+02 0.  0.
         12    1    1    2    0    0  0.95371703335E+01  0.12846750024E+02  0.97305198585E+01  0.18726441757E+02  0.00000000000E+00 0. -1.
         11    1    3    3    0    0 -0.45439002152E+01 -0.95652251990E+01  0.24241542858E+02  0.26453600184E+02  0.51100000000E-03 0. -1.
        -11    1    3    3    0    0  0.41383397622E+01  0.55671447004E+00  0.45834733812E+01  0.62003238210E+01  0.51100000000E-03 0.  1.
        -12    1    3    3    0    0 -0.91316098805E+01 -0.38382392948E+01 -0.38555536098E+02  0.39807634239E+02  0.00000000000E+00 0.  1.
</event>
<event>
 7    1  0.2873608E-013  0.7246155E+02  0.7816164E-02  0.1226708E+00
        -11   -1    0    0    0    0  0.00000000000E+00  0.00000000000E+00  0.45593999997E+02  0.45594000000E+02  0.51100000000E-03 0. -1.
         11   -1    0    0    0    0 -0.00000000000E+00 -0.00000000000E+00 -0.45593999997E+02  0.45594000000E+02  0.51100000000E-03 0.  1.
    9900012    2    1    2    0    0  0.97997497240E+01 -0.70727749974E+01 -0.14304570702E+02  0.72461548554E+02  0.69999971679E+02 0.  0.
         12    1    1    2    0    0 -0.97997497240E+01  0.70727749974E+01  0.14304570702E+02  0.18726451446E+02  0.00000000000E+00 0. -1.
         11    1    3    3    0    0 -0.74705996443E+01  0.26397109794E+02 -0.13536886773E+02  0.30591903640E+02  0.51100000000E-03 0. -1.
        -11    1    3    3    0    0 -0.24847857590E+01 -0.30251279708E+01  0.35959968733E+01  0.53157081637E+01  0.51100000000E-03 0.  1.
        -12    1    3    3    0    0  0.19755135127E+02 -0.30444756821E+02 -0.43636808016E+01  0.36553936750E+02  0.00000000000E+00 0.  1.
</event>
<event>
 7    1  0.2873608E-013  0.7246153E+02  0.7816164E-02  0.1226708E+00
        -11   -1    0    0    0    0  0.00000000000E+00  0.00000000000E+00  0.45593999997E+02  0.45594000000E+02  0.51100000000E-03 0.  1.
         11   -1    0    0    0    0 -0.00000000000E+00 -0.00000000000E+00 -0.45593999997E+02  0.45594000000E+02  0.51100000000E-03 0. -1.
    9900012    2    1    2    0    0  0.18096488098E+02 -0.46711548924E+01  0.11739838677E+01  0.72461526557E+02  0.69999943024E+02 0.  0.
         12    1    1    2    0    0 -0.18096488098E+02  0.46711548924E+01 -0.11739838677E+01  0.18726473443E+02  0.00000000000E+00 0. -1.
         11    1    3    3    0    0 -0.60434329238E+01  0.25672002132E+02  0.71273974791E+01  0.27319856699E+02  0.51100000000E-03 0. -1.
        -11    1    3    3    0    0 -0.32209698635E+01 -0.28767557347E+01  0.31169263330E+01  0.53259365791E+01  0.51100000000E-03 0.  1.
        -12    1    3    3    0    0  0.27360890885E+02 -0.27466401290E+02 -0.90703399445E+01  0.39815733279E+02  0.00000000000E+00 0.  1.
</event>
<event>
 7    1  0.2873608E-013  0.7246163E+02  0.7816164E-02  0.1226708E+00
        -11   -1    0    0    0    0  0.00000000000E+00  0.00000000000E+00  0.45593999997E+02  0.45594000000E+02  0.51100000000E-03 0. -1.
         11   -1    0    0    0    0 -0.00000000000E+00 -0.00000000000E+00 -0.45593999997E+02  0.45594000000E+02  0.51100000000E-03 0.  1.
    9900012    2    1    2    0    0 -0.66610050843E+01  0.16544075091E+02 -0.57097657009E+01  0.72461632661E+02  0.70000081244E+02 0.  0.
         12    1    1    2    0    0  0.66610050843E+01 -0.16544075091E+02  0.57097657009E+01  0.18726367339E+02  0.00000000000E+00 0. -1.
         11    1    3    3    0    0  0.31898856411E+01  0.29154309637E+02 -0.12037312528E+02  0.31702461008E+02  0.51100000000E-03 0. -1.
        -11    1    3    3    0    0 -0.67178639953E+01  0.16373021320E+01  0.19756339395E+02  0.20931397504E+02  0.51100000000E-03 0.  1.
        -12    1    3    3    0    0 -0.31330267302E+01 -0.14247536678E+02 -0.13428792568E+02  0.19827774149E+02  0.00000000000E+00 0.  1.
</event>
<event>
 7    1  0.2873608E-013  0.7246146E+02  0.7816164E-02  0.1226708E+00
        -11   -1    0    0    0    0  0.00000000000E+00  0.00000000000E+00  0.45593999997E+02  0.45594000000E+02  0.51100000000E-03 0. -1.
         11   -1    0    0    0    0 -0.00000000000E+00 -0.00000000000E+00 -0.45593999997E+02  0.45594000000E+02  0.51100000000E-03 0.  1.
    9900012    2    1    2    0    0 -0.59313111299E+01  0.16178720750E+02 -0.73315568128E+01  0.72461463157E+02  0.69999860433E+02 0.  0.
         12    1    1    2    0    0  0.59313111299E+01 -0.16178720750E+02  0.73315568128E+01  0.18726536843E+02  0.00000000000E+00 0. -1.
         11    1    3    3    0    0  0.17763837410E+02 -0.19203615781E+01 -0.22589045075E+02  0.28801157369E+02  0.51100000000E-03 0. -1.
        -11    1    3    3    0    0  0.34070457972E+00 -0.59452041680E+01  0.59350910137E+01  0.84075464799E+01  0.51100000000E-03 0.  1.
        -12    1    3    3    0    0 -0.24035853120E+02  0.24044286496E+02  0.93223972489E+01  0.35252759308E+02  0.00000000000E+00 0.  1.
</event>
<event>
 7    1  0.2873608E-013  0.7246146E+02  0.7816164E-02  0.1226708E+00
        -11   -1    0    0    0    0  0.00000000000E+00  0.00000000000E+00  0.45593999997E+02  0.45594000000E+02  0.51100000000E-03 0.  1.
         11   -1    0    0    0    0 -0.00000000000E+00 -0.00000000000E+00 -0.45593999997E+02  0.45594000000E+02  0.51100000000E-03 0. -1.
    9900012    2    1    2    0    0  0.15052893993E+02 -0.11124911349E+02 -0.57455223502E+00  0.72461457864E+02  0.69999853539E+02 0.  0.
         12    1    1    2    0    0 -0.15052893993E+02  0.11124911349E+02  0.57455223502E+00  0.18726542136E+02  0.00000000000E+00 0. -1.
         11    1    3    3    0    0  0.42328802629E+01  0.11548048801E+02  0.48578930841E+01  0.13223986990E+02  0.51100000000E-03 0. -1.
        -11    1    3    3    0    0 -0.20638185525E+02 -0.88892744784E+00 -0.32448095839E+01  0.20910611738E+02  0.51100000000E-03 0.  1.
         12    1    3    3    0    0  0.31458199255E+02 -0.21784032702E+02 -0.21876357352E+01  0.38326859136E+02  0.00000000000E+00 0. -1.
</event>
<event>
 7    1  0.2873608E-013  0.7246154E+02  0.7816164E-02  0.1226708E+00
        -11   -1    0    0    0    0  0.00000000000E+00  0.00000000000E+00  0.45593999997E+02  0.45594000000E+02  0.51100000000E-03 0. -1.
         11   -1    0    0    0    0 -0.00000000000E+00 -0.00000000000E+00 -0.45593999997E+02  0.45594000000E+02  0.51100000000E-03 0.  1.
    9900012    2    1    2    0    0  0.76878391614E+01 -0.15086564255E+02 -0.79983181545E+01  0.72461537833E+02  0.69999957713E+02 0.  0.
         12    1    1    2    0    0 -0.76878391614E+01  0.15086564255E+02  0.79983181545E+01  0.18726462167E+02  0.00000000000E+00 0. -1.
         11    1    3    3    0    0 -0.17973465269E+02 -0.11455439761E+01 -0.10014141674E+02  0.20606813400E+02  0.51100000000E-03 0.  1.
        -11    1    3    3    0    0  0.73723150976E+01 -0.13228898585E+01  0.21209475141E+02  0.22493174598E+02  0.51100000000E-03 0. -1.
        -12    1    3    3    0    0  0.18288989333E+02 -0.12618130420E+02 -0.19193651622E+02  0.29361549835E+02  0.00000000000E+00 0.  1.
</event>
<event>
 7    1  0.2873608E-013  0.7246142E+02  0.7816164E-02  0.1226708E+00
        -11   -1    0    0    0    0  0.00000000000E+00  0.00000000000E+00  0.45593999997E+02  0.45594000000E+02  0.51100000000E-03 0.  1.
         11   -1    0    0    0    0 -0.00000000000E+00 -0.00000000000E+00 -0.45593999997E+02  0.45594000000E+02  0.51100000000E-03 0. -1.
    9900012    2    1    2    0    0 -0.90959803471E+01 -0.14026961436E+02  0.84375471918E+01  0.72461422410E+02  0.69999807353E+02 0.  0.
         12    1    1    2    0    0  0.90959803471E+01  0.14026961436E+02 -0.84375471918E+01  0.18726577590E+02  0.00000000000E+00 0. -1.
         11    1    3    3    0    0 -0.98155773283E+01  0.38478718885E+01 -0.14383677011E+02  0.17833727624E+02  0.51100000000E-03 0. -1.
        -11    1    3    3    0    0  0.12983979479E+02  0.11705675799E+02  0.99551379304E+01  0.20117438716E+02  0.51100000000E-03 0.  1.
         12    1    3    3    0    0 -0.12264382497E+02 -0.29580509124E+02  0.12866086272E+02  0.34510256070E+02  0.00000000000E+00 0. -1.
</event>
<event>
 7    1  0.2873608E-013  0.7246150E+02  0.7816164E-02  0.1226708E+00
        -11   -1    0    0    0    0  0.00000000000E+00  0.00000000000E+00  0.45593999997E+02  0.45594000000E+02  0.51100000000E-03 0. -1.
         11   -1    0    0    0    0 -0.00000000000E+00 -0.00000000000E+00 -0.45593999997E+02  0.45594000000E+02  0.51100000000E-03 0.  1.
    9900012    2    1    2    0    0  0.12571702003E+02 -0.62871904152E+01 -0.12373582021E+02  0.72461495078E+02  0.69999902017E+02 0.  0.
         12    1    1    2    0    0 -0.12571702003E+02  0.62871904152E+01  0.12373582021E+02  0.18726504922E+02  0.00000000000E+00 0. -1.
         11    1    3    3    0    0 -0.76490063305E+01  0.12171728804E+02 -0.23356441522E+02  0.27425930080E+02  0.51100000000E-03 0. -1.
        -11    1    3    3    0    0  0.77257465947E+01 -0.12985590846E+02 -0.11328075994E+02  0.18884862617E+02  0.51100000000E-03 0.  1.
         12    1    3    3    0    0  0.12494961738E+02 -0.54733283727E+01  0.22310935496E+02  0.26150702381E+02  0.00000000000E+00 0. -1.
</event>
<event>
 7    1  0.2873608E-013  0.7246164E+02  0.7816164E-02  0.1226708E+00
        -11   -1    0    0    0    0  0.00000000000E+00  0.00000000000E+00  0.45593999997E+02  0.45594000000E+02  0.51100000000E-03 0.  1.
         11   -1    0    0    0    0 -0.00000000000E+00 -0.00000000000E+00 -0.45593999997E+02  0.45594000000E+02  0.51100000000E-03 0. -1.
    9900012    2    1    2    0    0 -0.75314202617E+01 -0.85328551748E+01  0.14870928513E+02  0.72461643616E+02  0.70000095514E+02 0.  0.
         12    1    1    2    0    0  0.75314202617E+01  0.85328551748E+01 -0.14870928513E+02  0.18726356384E+02  0.00000000000E+00 0. -1.
         11    1    3    3    0    0 -0.48205789118E+01 -0.63375486763E+01 -0.79382117793E+01  0.11243563082E+02  0.51100000000E-03 0. -1.
        -11    1    3    3    0    0  0.94337129357E+01 -0.41329669017E+01 -0.16820966422E+02  0.19723622050E+02  0.51100000000E-03 0.  1.
        -12    1    3    3    0    0 -0.12144554286E+02  0.19376604032E+01  0.39630106714E+02  0.41494458483E+02  0.00000000000E+00 0.  1.
</event>
<event>
 7    1  0.2873608E-013  0.7246199E+02  0.7816164E-02  0.1226707E+00
        -11   -1    0    0    0    0  0.00000000000E+00  0.00000000000E+00  0.45593999997E+02  0.45594000000E+02  0.51100000000E-03 0.  1.
         11   -1    0    0    0    0 -0.00000000000E+00 -0.00000000000E+00 -0.45593999997E+02  0.45594000000E+02  0.51100000000E-03 0. -1.
    9900012    2    1    2    0    0 -0.12500342775E+02  0.13920585746E+02  0.78883877440E+00  0.72461987514E+02  0.70000543504E+02 0.  0.
         12    1    1    2    0    0  0.12500342775E+02 -0.13920585746E+02 -0.78883877440E+00  0.18726012486E+02  0.00000000000E+00 0. -1.
         11    1    3    3    0    0 -0.16116234647E+02 -0.23211302185E+02 -0.60791501288E+01  0.28904214829E+02  0.51100000000E-03 0. -1.
        -11    1    3    3    0    0 -0.27585771931E+01  0.39071556086E+00 -0.38551859698E+01  0.47565603016E+01  0.51100000000E-03 0.  1.
        -12    1    3    3    0    0  0.63744690654E+01  0.36741172371E+02  0.10723174873E+02  0.38801212383E+02  0.00000000000E+00 0.  1.
</event>
<event>
 7    1  0.2873608E-013  0.7246163E+02  0.7816164E-02  0.1226708E+00
        -11   -1    0    0    0    0  0.00000000000E+00  0.00000000000E+00  0.45593999997E+02  0.45594000000E+02  0.51100000000E-03 0.  1.
         11   -1    0    0    0    0 -0.00000000000E+00 -0.00000000000E+00 -0.45593999997E+02  0.45594000000E+02  0.51100000000E-03 0. -1.
    9900012    2    1    2    0    0  0.90838677638E+01  0.14994555877E+02  0.65820530152E+01  0.72461634058E+02  0.70000083064E+02 0.  0.
         12    1    1    2    0    0 -0.90838677638E+01 -0.14994555877E+02 -0.65820530152E+01  0.18726365942E+02  0.00000000000E+00 0. -1.
         11    1    3    3    0    0  0.74692354087E+01 -0.57098386333E-01  0.16735891955E+02  0.18327106089E+02  0.51100000000E-03 0. -1.
        -11    1    3    3    0    0 -0.32644352196E+01  0.23909111885E+01  0.20350400121E+02  0.20748777770E+02  0.51100000000E-03 0.  1.
         12    1    3    3    0    0  0.48790675747E+01  0.12660743075E+02 -0.30504239061E+02  0.33385750198E+02  0.00000000000E+00 0. -1.
</event>
<event>
 7    1  0.2873608E-013  0.7246158E+02  0.7816164E-02  0.1226708E+00
        -11   -1    0    0    0    0  0.00000000000E+00  0.00000000000E+00  0.45593999997E+02  0.45594000000E+02  0.51100000000E-03 0.  1.
         11   -1    0    0    0    0 -0.00000000000E+00 -0.00000000000E+00 -0.45593999997E+02  0.45594000000E+02  0.51100000000E-03 0. -1.
    9900012    2    1    2    0    0 -0.15908735854E+02  0.91291702976E+01  0.37748290251E+01  0.72461575863E+02  0.70000007254E+02 0.  0.
         12    1    1    2    0    0  0.15908735854E+02 -0.91291702976E+01 -0.37748290251E+01  0.18726424137E+02  0.00000000000E+00 0. -1.
         11    1    3    3    0    0 -0.34820231953E+02 -0.32697017617E+01  0.57960379403E+01  0.35450438064E+02  0.51100000000E-03 0. -1.
        -11    1    3    3    0    0 -0.60212996712E+01  0.91928211121E+01 -0.42320996404E+01  0.11776021287E+02  0.51100000000E-03 0.  1.
         12    1    3    3    0    0  0.24932795769E+02  0.32060509471E+01  0.22108907253E+01  0.25235116512E+02  0.00000000000E+00 0. -1.
</event>
<event>
 7    1  0.2873608E-013  0.7246160E+02  0.7816164E-02  0.1226708E+00
        -11   -1    0    0    0    0  0.00000000000E+00  0.00000000000E+00  0.45593999997E+02  0.45594000000E+02  0.51100000000E-03 0. -1.
         11   -1    0    0    0    0 -0.00000000000E+00 -0.00000000000E+00 -0.45593999997E+02  0.45594000000E+02  0.51100000000E-03 0.  1.
    9900012    2    1    2    0    0  0.24790185819E+01 -0.22265930594E+01 -0.18427560075E+02  0.72461595644E+02  0.70000033023E+02 0.  0.
         12    1    1    2    0    0 -0.24790185819E+01  0.22265930594E+01  0.18427560075E+02  0.18726404356E+02  0.00000000000E+00 0. -1.
         11    1    3    3    0    0  0.96702793928E+01 -0.16009064843E+02 -0.36054052335E+01  0.19047398979E+02  0.51100000000E-03 0. -1.
        -11    1    3    3    0    0 -0.43478275909E-02 -0.87556206919E+01 -0.25865510080E+02  0.27307243078E+02  0.51100000000E-03 0.  1.
         12    1    3    3    0    0 -0.71869129833E+01  0.22538092476E+02  0.11043355238E+02  0.26106953587E+02  0.00000000000E+00 0. -1.
</event>
<event>
 7    1  0.2873608E-013  0.7246159E+02  0.7816164E-02  0.1226708E+00
        -11   -1    0    0    0    0  0.00000000000E+00  0.00000000000E+00  0.45593999997E+02  0.45594000000E+02  0.51100000000E-03 0.  1.
         11   -1    0    0    0    0 -0.00000000000E+00 -0.00000000000E+00 -0.45593999997E+02  0.45594000000E+02  0.51100000000E-03 0. -1.
    9900012    2    1    2    0    0 -0.15247081760E+02  0.14047545171E+01  0.10781073745E+02  0.72461591146E+02  0.70000027164E+02 0.  0.
         12    1    1    2    0    0  0.15247081760E+02 -0.14047545171E+01 -0.10781073745E+02  0.18726408854E+02  0.00000000000E+00 0. -1.
         11    1    3    3    0    0 -0.97086532968E+01 -0.63339798611E+01 -0.10601610380E+02  0.15708958992E+02  0.51100000000E-03 0. -1.
        -11    1    3    3    0    0  0.90314595269E+01 -0.35263354408E+01 -0.13903018606E+02  0.16949815027E+02  0.51100000000E-03 0.  1.
        -12    1    3    3    0    0 -0.14569887990E+02  0.11265069819E+02  0.35285702731E+02  0.39802817127E+02  0.00000000000E+00 0.  1.
</event>
<event>
 7    1  0.2873608E-013  0.7246158E+02  0.7816164E-02  0.1226708E+00
        -11   -1    0    0    0    0  0.00000000000E+00  0.00000000000E+00  0.45593999997E+02  0.45594000000E+02  0.51100000000E-03 0. -1.
         11   -1    0    0    0    0 -0.00000000000E+00 -0.00000000000E+00 -0.45593999997E+02  0.45594000000E+02  0.51100000000E-03 0.  1.
    9900012    2    1    2    0    0 -0.73915630383E+00 -0.16792660403E+02 -0.82546364307E+01  0.72461579679E+02  0.70000012225E+02 0.  0.
         12    1    1    2    0    0  0.73915630383E+00  0.16792660403E+02  0.82546364307E+01  0.18726420321E+02  0.00000000000E+00 0. -1.
         11    1    3    3    0    0  0.75849608958E+01  0.97742072474E+01 -0.74058193870E+00  0.12394160761E+02  0.51100000000E-03 0. -1.
        -11    1    3    3    0    0 -0.10298022441E+01 -0.39115133960E+02 -0.17069738111E+02  0.42689930391E+02  0.51100000000E-03 0.  1.
         12    1    3    3    0    0 -0.72943149555E+01  0.12548266310E+02  0.95556836193E+01  0.17377488526E+02  0.00000000000E+00 0. -1.
</event>
<event>
 7    1  0.2873608E-013  0.7246153E+02  0.7816164E-02  0.1226708E+00
        -11   -1    0    0    0    0  0.00000000000E+00  0.00000000000E+00  0.45593999997E+02  0.45594000000E+02  0.51100000000E-03 0.  1.
         11   -1    0    0    0    0 -0.00000000000E+00 -0.00000000000E+00 -0.45593999997E+02  0.45594000000E+02  0.51100000000E-03 0. -1.
    9900012    2    1    2    0    0 -0.11769058226E+02  0.14252292330E+02 -0.30070343548E+01  0.72461526125E+02  0.69999942461E+02 0.  0.
         12    1    1    2    0    0  0.11769058226E+02 -0.14252292330E+02  0.30070343548E+01  0.18726473875E+02  0.00000000000E+00 0. -1.
         11    1    3    3    0    0 -0.39217533811E+01  0.17624589840E+02 -0.21365649023E+02  0.27973152755E+02  0.51100000000E-03 0. -1.
        -11    1    3    3    0    0 -0.73875886881E+01  0.15546184503E+02 -0.12244760713E+01  0.17255713869E+02  0.51100000000E-03 0.  1.
         12    1    3    3    0    0 -0.45971615660E+00 -0.18918482013E+02  0.19583090739E+02  0.27232659501E+02  0.00000000000E+00 0. -1.
</event>
<event>
 7    1  0.2873608E-013  0.7246157E+02  0.7816164E-02  0.1226708E+00
        -11   -1    0    0    0    0  0.00000000000E+00  0.00000000000E+00  0.45593999997E+02  0.45594000000E+02  0.51100000000E-03 0. -1.
         11   -1    0    0    0    0 -0.00000000000E+00 -0.00000000000E+00 -0.45593999997E+02  0.45594000000E+02  0.51100000000E-03 0.  1.
    9900012    2    1    2    0    0 -0.74797472194E+01  0.16596118018E+02  0.43933454268E+01  0.72461568526E+02  0.69999997696E+02 0.  0.
         12    1    1    2    0    0  0.74797472194E+01 -0.16596118018E+02 -0.43933454268E+01  0.18726431474E+02  0.00000000000E+00 0. -1.
         11    1    3    3    0    0  0.20136495100E+02 -0.12940957673E+02  0.58070254267E+01  0.24630638745E+02  0.51100000000E-03 0. -1.
        -11    1    3    3    0    0 -0.57212772822E+01  0.19825616325E+01  0.92508546784E+01  0.11056304849E+02  0.51100000000E-03 0.  1.
        -12    1    3    3    0    0 -0.21894965037E+02  0.27554514059E+02 -0.10664534678E+02  0.36774624932E+02  0.00000000000E+00 0.  1.
</event>
<event>
 7    1  0.2873608E-013  0.7246150E+02  0.7816164E-02  0.1226708E+00
        -11   -1    0    0    0    0  0.00000000000E+00  0.00000000000E+00  0.45593999997E+02  0.45594000000E+02  0.51100000000E-03 0.  1.
         11   -1    0    0    0    0 -0.00000000000E+00 -0.00000000000E+00 -0.45593999997E+02  0.45594000000E+02  0.51100000000E-03 0. -1.
    9900012    2    1    2    0    0 -0.15112087355E+02 -0.55053722025E+01 -0.95915318490E+01  0.72461500313E+02  0.69999908837E+02 0.  0.
         12    1    1    2    0    0  0.15112087355E+02  0.55053722025E+01  0.95915318490E+01  0.18726499687E+02  0.00000000000E+00 0. -1.
         11    1    3    3    0    0 -0.17816280135E+02  0.11599875116E+02 -0.15339572073E+02  0.26216014422E+02  0.51100000000E-03 0. -1.
        -11    1    3    3    0    0 -0.19210096510E+02 -0.51303043630E+01  0.74059506251E+01  0.21217821182E+02  0.51100000000E-03 0.  1.
         12    1    3    3    0    0  0.21914289290E+02 -0.11974942956E+02 -0.16579104013E+01  0.25027664709E+02  0.00000000000E+00 0. -1.
</event>
<event>
 7    1  0.2873608E-013  0.7246157E+02  0.7816164E-02  0.1226708E+00
        -11   -1    0    0    0    0  0.00000000000E+00  0.00000000000E+00  0.45593999997E+02  0.45594000000E+02  0.51100000000E-03 0. -1.
         11   -1    0    0    0    0 -0.00000000000E+00 -0.00000000000E+00 -0.45593999997E+02  0.45594000000E+02  0.51100000000E-03 0.  1.
    9900012    2    1    2    0    0 -0.17680617867E+02  0.51959381800E+01  0.33282527393E+01  0.72461567130E+02  0.69999995878E+02 0.  0.
         12    1    1    2    0    0  0.17680617867E+02 -0.51959381800E+01 -0.33282527393E+01  0.18726432870E+02  0.00000000000E+00 0. -1.
         11    1    3    3    0    0 -0.11057291429E+02 -0.99815269726E+00  0.26682626754E+01  0.11418389927E+02  0.51100000000E-03 0. -1.
        -11    1    3    3    0    0 -0.17086710175E+02  0.94762554763E+01 -0.25821677525E+02  0.32380767640E+02  0.51100000000E-03 0.  1.
         12    1    3    3    0    0  0.10463383737E+02 -0.32821645990E+01  0.26481667589E+02  0.28662409563E+02  0.00000000000E+00 0. -1.
</event>
<event>
 7    1  0.2873608E-013  0.7246153E+02  0.7816164E-02  0.1226708E+00
        -11   -1    0    0    0    0  0.00000000000E+00  0.00000000000E+00  0.45593999997E+02  0.45594000000E+02  0.51100000000E-03 0.  1.
         11   -1    0    0    0    0 -0.00000000000E+00 -0.00000000000E+00 -0.45593999997E+02  0.45594000000E+02  0.51100000000E-03 0. -1.
    9900012    2    1    2    0    0  0.16435993245E+01  0.25737680197E+00  0.18652430802E+02  0.72461525789E+02  0.69999942024E+02 0.  0.
         12    1    1    2    0    0 -0.16435993245E+01 -0.25737680197E+00 -0.18652430802E+02  0.18726474211E+02  0.00000000000E+00 0. -1.
         11    1    3    3    0    0  0.17341660451E+02 -0.48264039369E+01 -0.76801483228E+01  0.19570693413E+02  0.51100000000E-03 0. -1.
        -11    1    3    3    0    0  0.13587083956E+02  0.69488664934E+01  0.15103704810E+02  0.21471317966E+02  0.51100000000E-03 0.  1.
        -12    1    3    3    0    0 -0.29285145082E+02 -0.18650857546E+01  0.11228874315E+02  0.31419514410E+02  0.00000000000E+00 0.  1.
</event>
<event>
 7    1  0.2873608E-013  0.7246176E+02  0.7816164E-02  0.1226708E+00
        -11   -1    0    0    0    0  0.00000000000E+00  0.00000000000E+00  0.45593999997E+02  0.45594000000E+02  0.51100000000E-03 0.  1.
         11   -1    0    0    0    0 -0.00000000000E+00 -0.00000000000E+00 -0.45593999997E+02  0.45594000000E+02  0.51100000000E-03 0. -1.
    9900012    2    1    2    0    0 -0.83711703033E+01  0.89998832122E+01  0.14127901079E+02  0.72461762284E+02  0.70000250102E+02 0.  0.
         12    1    1    2    0    0  0.83711703033E+01 -0.89998832122E+01 -0.14127901079E+02  0.18726237716E+02  0.00000000000E+00 0. -1.
         11    1    3    3    0    0  0.25126050104E+00 -0.21646401994E+02  0.13639653614E+02  0.25586519929E+02  0.51100000000E-03 0. -1.
        -11    1    3    3    0    0  0.10341373768E+02  0.19440768201E+01 -0.56303283552E+01  0.11934154505E+02  0.51100000000E-03 0.  1.
        -12    1    3    3    0    0 -0.18963804572E+02  0.28702208386E+02  0.61185758201E+01  0.34941087850E+02  0.00000000000E+00 0.  1.
</event>
<event>
 7    1  0.2873608E-013  0.7246157E+02  0.7816164E-02  0.1226708E+00
        -11   -1    0    0    0    0  0.00000000000E+00  0.00000000000E+00  0.45593999997E+02  0.45594000000E+02  0.51100000000E-03 0.  1.
         11   -1    0    0    0    0 -0.00000000000E+00 -0.00000000000E+00 -0.45593999997E+02  0.45594000000E+02  0.51100000000E-03 0. -1.
    9900012    2    1    2    0    0 -0.16483089682E+02  0.87632389569E+01  0.14807412555E+01  0.72461569557E+02  0.69999999039E+02 0.  0.
         12    1    1    2    0    0  0.16483089682E+02 -0.87632389569E+01 -0.14807412555E+01  0.18726430443E+02  0.00000000000E+00 0. -1.
         11    1    3    3    0    0  0.28874540487E+01  0.47656337234E+01 -0.19696918338E+01  0.59100204611E+01  0.51100000000E-03 0. -1.
        -11    1    3    3    0    0 -0.25770880399E+02  0.29887454116E+02 -0.11888915681E+01  0.39481788884E+02  0.51100000000E-03 0.  1.
        -12    1    3    3    0    0  0.64003366680E+01 -0.25889848883E+02  0.46393246574E+01  0.27069760212E+02  0.00000000000E+00 0.  1.
</event>
<event>
 7    1  0.2873608E-013  0.7246154E+02  0.7816164E-02  0.1226708E+00
        -11   -1    0    0    0    0  0.00000000000E+00  0.00000000000E+00  0.45593999997E+02  0.45594000000E+02  0.51100000000E-03 0.  1.
         11   -1    0    0    0    0 -0.00000000000E+00 -0.00000000000E+00 -0.45593999997E+02  0.45594000000E+02  0.51100000000E-03 0. -1.
    9900012    2    1    2    0    0 -0.13367958687E+02  0.13096753953E+02 -0.67296708513E+00  0.72461543628E+02  0.69999965262E+02 0.  0.
         12    1    1    2    0    0  0.13367958687E+02 -0.13096753953E+02  0.67296708513E+00  0.18726456372E+02  0.00000000000E+00 0. -1.
         11    1    3    3    0    0 -0.10463954088E+01  0.25285241623E+01  0.62278912117E+01  0.68025735568E+01  0.51100000000E-03 0. -1.
        -11    1    3    3    0    0 -0.25356919332E+02  0.29615541362E+02  0.56360404329E+01  0.39393128845E+02  0.51100000000E-03 0.  1.
         12    1    3    3    0    0  0.13035356054E+02 -0.19047311571E+02 -0.12536898730E+02  0.26265841226E+02  0.00000000000E+00 0. -1.
</event>
<event>
 7    1  0.2873608E-013  0.7246157E+02  0.7816164E-02  0.1226708E+00
        -11   -1    0    0    0    0  0.00000000000E+00  0.00000000000E+00  0.45593999997E+02  0.45594000000E+02  0.51100000000E-03 0. -1.
         11   -1    0    0    0    0 -0.00000000000E+00 -0.00000000000E+00 -0.45593999997E+02  0.45594000000E+02  0.51100000000E-03 0.  1.
    9900012    2    1    2    0    0 -0.12679594317E+02 -0.13073061231E+02 -0.43591390736E+01  0.72461571204E+02  0.70000001185E+02 0.  0.
         12    1    1    2    0    0  0.12679594317E+02  0.13073061231E+02  0.43591390736E+01  0.18726428796E+02  0.00000000000E+00 0. -1.
         11    1    3    3    0    0  0.83390116567E+00  0.82699276263E+00 -0.16892025572E+01  0.20573560032E+01  0.51100000000E-03 0. -1.
        -11    1    3    3    0    0  0.18324853365E+02 -0.15869378908E+02  0.19870877380E+02  0.31344683854E+02  0.51100000000E-03 0.  1.
         12    1    3    3    0    0 -0.31838348847E+02  0.19693249143E+01 -0.22540813896E+02  0.39059531347E+02  0.00000000000E+00 0. -1.
</event>
<event>
 7    1  0.2873608E-013  0.7246159E+02  0.7816164E-02  0.1226708E+00
        -11   -1    0    0    0    0  0.00000000000E+00  0.00000000000E+00  0.45593999997E+02  0.45594000000E+02  0.51100000000E-03 0.  1.
         11   -1    0    0    0    0 -0.00000000000E+00 -0.00000000000E+00 -0.45593999997E+02  0.45594000000E+02  0.51100000000E-03 0. -1.
    9900012    2    1    2    0    0  0.15980861393E+02 -0.64053454676E+01 -0.73662737791E+01  0.72461591620E+02  0.70000027780E+02 0.  0.
         12    1    1    2    0    0 -0.15980861393E+02  0.64053454676E+01  0.73662737791E+01  0.18726408380E+02  0.00000000000E+00 0. -1.
         11    1    3    3    0    0  0.28290657533E+02 -0.51317258819E+01 -0.10210444338E+02  0.30511458307E+02  0.51100000000E-03 0. -1.
        -11    1    3    3    0    0  0.14351623590E+02 -0.35175165609E+01  0.35045477813E+01  0.15186305602E+02  0.51100000000E-03 0.  1.
         12    1    3    3    0    0 -0.26661419730E+02  0.22438969753E+01 -0.66037722196E+00  0.26763827711E+02  0.00000000000E+00 0. -1.
</event>
<event>
 7    1  0.2873608E-013  0.7246148E+02  0.7816164E-02  0.1226708E+00
        -11   -1    0    0    0    0  0.00000000000E+00  0.00000000000E+00  0.45593999997E+02  0.45594000000E+02  0.51100000000E-03 0.  1.
         11   -1    0    0    0    0 -0.00000000000E+00 -0.00000000000E+00 -0.45593999997E+02  0.45594000000E+02  0.51100000000E-03 0. -1.
    9900012    2    1    2    0    0 -0.73723854901E+01 -0.16462064924E+02  0.50329703680E+01  0.72461482969E+02  0.69999886242E+02 0.  0.
         12    1    1    2    0    0  0.73723854901E+01  0.16462064924E+02 -0.50329703680E+01  0.18726517031E+02  0.00000000000E+00 0. -1.
         11    1    3    3    0    0 -0.26678089860E+02 -0.82551006318E+01 -0.16121057661E+02  0.32245242524E+02  0.51100000000E-03 0. -1.
        -11    1    3    3    0    0  0.27220822047E+01  0.75698124736E+01 -0.13039644299E+01  0.81493629143E+01  0.51100000000E-03 0.  1.
        -12    1    3    3    0    0  0.16583622166E+02 -0.15776776766E+02  0.22457992459E+02  0.32066877531E+02  0.00000000000E+00 0.  1.
</event>
<event>
 7    1  0.2873608E-013  0.7246152E+02  0.7816164E-02  0.1226708E+00
        -11   -1    0    0    0    0  0.00000000000E+00  0.00000000000E+00  0.45593999997E+02  0.45594000000E+02  0.51100000000E-03 0.  1.
         11   -1    0    0    0    0 -0.00000000000E+00 -0.00000000000E+00 -0.45593999997E+02  0.45594000000E+02  0.51100000000E-03 0. -1.
    9900012    2    1    2    0    0  0.11074147494E+02  0.47797581217E+00  0.15093566179E+02  0.72461522926E+02  0.69999938294E+02 0.  0.
         12    1    1    2    0    0 -0.11074147494E+02 -0.47797581217E+00 -0.15093566179E+02  0.18726477074E+02  0.00000000000E+00 0. -1.
         11    1    3    3    0    0 -0.90498125262E+00 -0.41939558525E+01  0.13431462510E+01  0.44958090344E+01  0.51100000000E-03 0. -1.
        -11    1    3    3    0    0  0.24044576153E+02 -0.16355322849E+02  0.27560507743E+02  0.40065194561E+02  0.51100000000E-03 0.  1.
         12    1    3    3    0    0 -0.12065447406E+02  0.21027254514E+02 -0.13810087815E+02  0.27900519331E+02  0.00000000000E+00 0. -1.
</event>
<event>
 7    1  0.2873608E-013  0.7246158E+02  0.7816164E-02  0.1226708E+00
        -11   -1    0    0    0    0  0.00000000000E+00  0.00000000000E+00  0.45593999997E+02  0.45594000000E+02  0.51100000000E-03 0.  1.
         11   -1    0    0    0    0 -0.00000000000E+00 -0.00000000000E+00 -0.45593999997E+02  0.45594000000E+02  0.51100000000E-03 0. -1.
    9900012    2    1    2    0    0 -0.62391195247E+00  0.98789549666E+01  0.15896410345E+02  0.72461578045E+02  0.70000010097E+02 0.  0.
         12    1    1    2    0    0  0.62391195247E+00 -0.98789549666E+01 -0.15896410345E+02  0.18726421955E+02  0.00000000000E+00 0. -1.
         11    1    3    3    0    0  0.19928981184E+02 -0.13498100705E+01  0.11414435699E+02  0.23005990977E+02  0.51100000000E-03 0. -1.
        -11    1    3    3    0    0 -0.15109466977E+02 -0.45037675766E+01 -0.16400181355E+02  0.22749634359E+02  0.51100000000E-03 0.  1.
        -12    1    3    3    0    0 -0.54434261593E+01  0.15732532614E+02  0.20882156002E+02  0.26705952709E+02  0.00000000000E+00 0.  1.
</event>
<event>
 7    1  0.2873608E-013  0.7246165E+02  0.7816164E-02  0.1226708E+00
        -11   -1    0    0    0    0  0.00000000000E+00  0.00000000000E+00  0.45593999997E+02  0.45594000000E+02  0.51100000000E-03 0.  1.
         11   -1    0    0    0    0 -0.00000000000E+00 -0.00000000000E+00 -0.45593999997E+02  0.45594000000E+02  0.51100000000E-03 0. -1.
    9900012    2    1    2    0    0  0.16321457662E+02  0.54995098132E+01  0.73512940812E+01  0.72461651902E+02  0.70000106310E+02 0.  0.
         12    1    1    2    0    0 -0.16321457662E+02 -0.54995098132E+01 -0.73512940812E+01  0.18726348098E+02  0.00000000000E+00 0. -1.
         11    1    3    3    0    0  0.22158563882E+02 -0.49867987804E+01 -0.21182057709E+02  0.31057200203E+02  0.51100000000E-03 0. -1.
        -11    1    3    3    0    0 -0.59279048081E+01  0.23399889092E+01 -0.42262738790E+01  0.76470252170E+01  0.51100000000E-03 0.  1.
        -12    1    3    3    0    0  0.90798588283E-01  0.81463196844E+01  0.32759625669E+02  0.33757426483E+02  0.00000000000E+00 0.  1.
</event>
<event>
 7    1  0.2873608E-013  0.7246156E+02  0.7816164E-02  0.1226708E+00
        -11   -1    0    0    0    0  0.00000000000E+00  0.00000000000E+00  0.45593999997E+02  0.45594000000E+02  0.51100000000E-03 0. -1.
         11   -1    0    0    0    0 -0.00000000000E+00 -0.00000000000E+00 -0.45593999997E+02  0.45594000000E+02  0.51100000000E-03 0.  1.
    9900012    2    1    2    0    0  0.24250464871E+01  0.31422790336E+01 -0.18300950218E+02  0.72461560219E+02  0.69999986875E+02 0.  0.
         12    1    1    2    0    0 -0.24250464871E+01 -0.31422790336E+01  0.18300950218E+02  0.18726439781E+02  0.00000000000E+00 0. -1.
         11    1    3    3    0    0 -0.15218253818E+02 -0.24612200688E+02 -0.38588376773E+01  0.29193257791E+02  0.51100000000E-03 0. -1.
        -11    1    3    3    0    0 -0.43650142349E+01 -0.96783036952E+00 -0.27143389936E+01  0.52304570860E+01  0.51100000000E-03 0.  1.
        -12    1    3    3    0    0  0.22008314540E+02  0.28722310091E+02 -0.11727773547E+02  0.38037845342E+02  0.00000000000E+00 0.  1.
</event>
<event>
 7    1  0.2873608E-013  0.7246158E+02  0.7816164E-02  0.1226708E+00
        -11   -1    0    0    0    0  0.00000000000E+00  0.00000000000E+00  0.45593999997E+02  0.45594000000E+02  0.51100000000E-03 0.  1.
         11   -1    0    0    0    0 -0.00000000000E+00 -0.00000000000E+00 -0.45593999997E+02  0.45594000000E+02  0.51100000000E-03 0. -1.
    9900012    2    1    2    0    0  0.35984216790E+00  0.15114839877E+02  0.11049474312E+02  0.72461581403E+02  0.70000014471E+02 0.  0.
         12    1    1    2    0    0 -0.35984216790E+00 -0.15114839877E+02 -0.11049474312E+02  0.18726418597E+02  0.00000000000E+00 0. -1.
         11    1    3    3    0    0 -0.13030294832E+02  0.90448568014E+01 -0.13782353839E+02  0.21013121985E+02  0.51100000000E-03 0. -1.
        -11    1    3    3    0    0  0.14281453257E+02  0.69786417513E+01 -0.85455492452E+01  0.18046821326E+02  0.51100000000E-03 0.  1.
        -12    1    3    3    0    0 -0.89131625727E+00 -0.90865867540E+00  0.33377377397E+02  0.33401638091E+02  0.00000000000E+00 0.  1.
</event>
<event>
 7    1  0.2873608E-013  0.7246155E+02  0.7816164E-02  0.1226708E+00
        -11   -1    0    0    0    0  0.00000000000E+00  0.00000000000E+00  0.45593999997E+02  0.45594000000E+02  0.51100000000E-03 0.  1.
         11   -1    0    0    0    0 -0.00000000000E+00 -0.00000000000E+00 -0.45593999997E+02  0.45594000000E+02  0.51100000000E-03 0. -1.
    9900012    2    1    2    0    0 -0.60917069801E+01 -0.17641659874E+02  0.15306026273E+01  0.72461553422E+02  0.69999978021E+02 0.  0.
         12    1    1    2    0    0  0.60917069801E+01  0.17641659874E+02 -0.15306026273E+01  0.18726446578E+02  0.00000000000E+00 0. -1.
         11    1    3    3    0    0  0.19790900053E+01 -0.44844726685E+01 -0.29805245952E+02  0.30205628265E+02  0.51100000000E-03 0. -1.
        -11    1    3    3    0    0 -0.35299351132E-01  0.65619904507E+01  0.11018276667E+02  0.12824327884E+02  0.51100000000E-03 0.  1.
        -12    1    3    3    0    0 -0.80354976343E+01 -0.19719177656E+02  0.20317571912E+02  0.29431597273E+02  0.00000000000E+00 0.  1.
</event>
<event>
 7    1  0.2873608E-013  0.7246161E+02  0.7816164E-02  0.1226708E+00
        -11   -1    0    0    0    0  0.00000000000E+00  0.00000000000E+00  0.45593999997E+02  0.45594000000E+02  0.51100000000E-03 0.  1.
         11   -1    0    0    0    0 -0.00000000000E+00 -0.00000000000E+00 -0.45593999997E+02  0.45594000000E+02  0.51100000000E-03 0. -1.
    9900012    2    1    2    0    0 -0.18464054662E+02 -0.18881221309E+01  0.24882195156E+01  0.72461613373E+02  0.70000056118E+02 0.  0.
         12    1    1    2    0    0  0.18464054662E+02  0.18881221309E+01 -0.24882195156E+01  0.18726386627E+02  0.00000000000E+00 0. -1.
         11    1    3    3    0    0 -0.31620555951E+01 -0.76803054532E+01  0.56419350948E+01  0.10040772845E+02  0.51100000000E-03 0. -1.
        -11    1    3    3    0    0  0.89989103559E+01 -0.20528133605E+02  0.96163075687E+01  0.24389711528E+02  0.51100000000E-03 0.  1.
         12    1    3    3    0    0 -0.24300909423E+02  0.26320316927E+02 -0.12770023148E+02  0.38031129001E+02  0.00000000000E+00 0. -1.
</event>
<event>
 7    1  0.2873608E-013  0.7246157E+02  0.7816164E-02  0.1226708E+00
        -11   -1    0    0    0    0  0.00000000000E+00  0.00000000000E+00  0.45593999997E+02  0.45594000000E+02  0.51100000000E-03 0. -1.
         11   -1    0    0    0    0 -0.00000000000E+00 -0.00000000000E+00 -0.45593999997E+02  0.45594000000E+02  0.51100000000E-03 0.  1.
    9900012    2    1    2    0    0  0.13411445837E+00 -0.30045742058E+01 -0.18483337443E+02  0.72461569057E+02  0.69999998388E+02 0.  0.
         12    1    1    2    0    0 -0.13411445837E+00  0.30045742058E+01  0.18483337443E+02  0.18726430943E+02  0.00000000000E+00 0. -1.
         11    1    3    3    0    0 -0.18668163811E+01  0.10237957693E+02  0.89573270512E+01  0.13730786186E+02  0.51100000000E-03 0. -1.
        -11    1    3    3    0    0  0.24537485479E+02 -0.92828092235E+01 -0.50497278704E+01  0.26716258955E+02  0.51100000000E-03 0.  1.
        -12    1    3    3    0    0 -0.22536554640E+02 -0.39597226756E+01 -0.22390936623E+02  0.32014523916E+02  0.00000000000E+00 0.  1.
</event>
<event>
 7    1  0.2873608E-013  0.7246153E+02  0.7816164E-02  0.1226708E+00
        -11   -1    0    0    0    0  0.00000000000E+00  0.00000000000E+00  0.45593999997E+02  0.45594000000E+02  0.51100000000E-03 0.  1.
         11   -1    0    0    0    0 -0.00000000000E+00 -0.00000000000E+00 -0.45593999997E+02  0.45594000000E+02  0.51100000000E-03 0. -1.
    9900012    2    1    2    0    0 -0.65517550277E+01 -0.12047972746E+02  0.12751526344E+02  0.72461533026E+02  0.69999951451E+02 0.  0.
         12    1    1    2    0    0  0.65517550277E+01  0.12047972746E+02 -0.12751526344E+02  0.18726466974E+02  0.00000000000E+00 0. -1.
         11    1    3    3    0    0  0.13450380286E+01 -0.34925588889E+02  0.66383422490E+01  0.35576304960E+02  0.51100000000E-03 0. -1.
        -11    1    3    3    0    0 -0.63685005872E+01 -0.39096735117E+01  0.67164599318E+01  0.10047595781E+02  0.51100000000E-03 0.  1.
        -12    1    3    3    0    0 -0.15282924691E+01  0.26787289654E+02 -0.60327583700E+00  0.26837632285E+02  0.00000000000E+00 0.  1.
</event>
<event>
 7    1  0.2873608E-013  0.7246155E+02  0.7816164E-02  0.1226708E+00
        -11   -1    0    0    0    0  0.00000000000E+00  0.00000000000E+00  0.45593999997E+02  0.45594000000E+02  0.51100000000E-03 0.  1.
         11   -1    0    0    0    0 -0.00000000000E+00 -0.00000000000E+00 -0.45593999997E+02  0.45594000000E+02  0.51100000000E-03 0. -1.
    9900012    2    1    2    0    0 -0.14913971888E+02 -0.11315820901E+02  0.45346182394E+00  0.72461548447E+02  0.69999971540E+02 0.  0.
         12    1    1    2    0    0  0.14913971888E+02  0.11315820901E+02 -0.45346182394E+00  0.18726451553E+02  0.00000000000E+00 0. -1.
         11    1    3    3    0    0  0.62316345829E+01 -0.17966868086E+02 -0.70472285395E+01  0.20280657010E+02  0.51100000000E-03 0. -1.
        -11    1    3    3    0    0  0.12226233506E+02  0.45546136311E+01 -0.80219508427E+01  0.15315906328E+02  0.51100000000E-03 0.  1.
        -12    1    3    3    0    0 -0.33371839977E+02  0.20964335540E+01  0.15522641206E+02  0.36864985109E+02  0.00000000000E+00 0.  1.
</event>
<event>
 7    1  0.3026395E-013  0.7246157E+02  0.7816164E-02  0.1226708E+00
        -11   -1    0    0    0    0  0.00000000000E+00  0.00000000000E+00  0.45593999997E+02  0.45594000000E+02  0.51100000000E-03 0. -1.
         11   -1    0    0    0    0 -0.00000000000E+00 -0.00000000000E+00 -0.45593999997E+02  0.45594000000E+02  0.51100000000E-03 0.  1.
    9900012    2    1    2    0    0 -0.34634299497E+00 -0.17571073114E+02 -0.64665657785E+01  0.72461573838E+02  0.70000004616E+02 0.  0.
         12    1    1    2    0    0  0.34634299497E+00  0.17571073114E+02  0.64665657785E+01  0.18726426162E+02  0.00000000000E+00 0. -1.
         11    1    3    3    0    0  0.80289074640E+01 -0.56716434822E+01  0.83049013049E+01  0.12868654972E+02  0.51100000000E-03 0. -1.
        -11    1    3    3    0    0  0.13350361365E+02 -0.12982216234E+02 -0.28372877939E+02  0.33938036032E+02  0.51100000000E-03 0.  1.
         12    1    3    3    0    0 -0.21725611824E+02  0.10827866025E+01  0.13601410855E+02  0.25654882833E+02  0.00000000000E+00 0. -1.
</event>
<event>
 7    1  0.2873608E-013  0.7246158E+02  0.7816164E-02  0.1226708E+00
        -11   -1    0    0    0    0  0.00000000000E+00  0.00000000000E+00  0.45593999997E+02  0.45594000000E+02  0.51100000000E-03 0.  1.
         11   -1    0    0    0    0 -0.00000000000E+00 -0.00000000000E+00 -0.45593999997E+02  0.45594000000E+02  0.51100000000E-03 0. -1.
    9900012    2    1    2    0    0 -0.24976997827E+00 -0.16841053257E+02  0.81850653429E+01  0.72461581375E+02  0.70000014435E+02 0.  0.
         12    1    1    2    0    0  0.24976997827E+00  0.16841053257E+02 -0.81850653429E+01  0.18726418625E+02  0.00000000000E+00 0. -1.
         11    1    3    3    0    0 -0.29538463418E+02 -0.17581479271E+02 -0.27464401223E+01  0.34484375709E+02  0.51100000000E-03 0. -1.
        -11    1    3    3    0    0 -0.46015332372E+00  0.18999569678E+01  0.78003315783E+01  0.80415639370E+01  0.51100000000E-03 0.  1.
        -12    1    3    3    0    0  0.29748846764E+02 -0.11595309536E+01  0.31311738869E+01  0.29935641729E+02  0.00000000000E+00 0.  1.
</event>
<event>
 7    1  0.2873608E-013  0.7246158E+02  0.7816164E-02  0.1226708E+00
        -11   -1    0    0    0    0  0.00000000000E+00  0.00000000000E+00  0.45593999997E+02  0.45594000000E+02  0.51100000000E-03 0.  1.
         11   -1    0    0    0    0 -0.00000000000E+00 -0.00000000000E+00 -0.45593999997E+02  0.45594000000E+02  0.51100000000E-03 0. -1.
    9900012    2    1    2    0    0 -0.15646927710E+02 -0.77726758111E+01  0.67407568297E+01  0.72461584468E+02  0.70000018464E+02 0.  0.
         12    1    1    2    0    0  0.15646927710E+02  0.77726758111E+01 -0.67407568297E+01  0.18726415532E+02  0.00000000000E+00 0. -1.
         11    1    3    3    0    0  0.78662274618E+01  0.13805888752E+02 -0.43005079699E+01  0.16461302129E+02  0.51100000000E-03 0.  1.
        -11    1    3    3    0    0 -0.66773210430E+01 -0.28533201539E+02  0.20219633898E+02  0.35602862267E+02  0.51100000000E-03 0. -1.
         12    1    3    3    0    0 -0.16835834129E+02  0.69546369751E+01 -0.91783690987E+01  0.20397420072E+02  0.00000000000E+00 0. -1.
</event>
<event>
 7    1  0.2873608E-013  0.7246156E+02  0.7816164E-02  0.1226708E+00
        -11   -1    0    0    0    0  0.00000000000E+00  0.00000000000E+00  0.45593999997E+02  0.45594000000E+02  0.51100000000E-03 0. -1.
         11   -1    0    0    0    0 -0.00000000000E+00 -0.00000000000E+00 -0.45593999997E+02  0.45594000000E+02  0.51100000000E-03 0.  1.
    9900012    2    1    2    0    0  0.74489222102E+01 -0.12932162015E+02 -0.11311594495E+02  0.72461563433E+02  0.69999991062E+02 0.  0.
         12    1    1    2    0    0 -0.74489222102E+01  0.12932162015E+02  0.11311594495E+02  0.18726436567E+02  0.00000000000E+00 0. -1.
         11    1    3    3    0    0 -0.32959528234E+01  0.91953211261E+01  0.15182885846E+02  0.18053732537E+02  0.51100000000E-03 0. -1.
        -11    1    3    3    0    0 -0.10672941137E+02 -0.97933260888E+01  0.41220875062E+01  0.15060295949E+02  0.51100000000E-03 0.  1.
        -12    1    3    3    0    0  0.21417816171E+02 -0.12334157052E+02 -0.30616567847E+02  0.39347534948E+02  0.00000000000E+00 0.  1.
</event>
<event>
 7    1  0.2873608E-013  0.7246157E+02  0.7816164E-02  0.1226708E+00
        -11   -1    0    0    0    0  0.00000000000E+00  0.00000000000E+00  0.45593999997E+02  0.45594000000E+02  0.51100000000E-03 0.  1.
         11   -1    0    0    0    0 -0.00000000000E+00 -0.00000000000E+00 -0.45593999997E+02  0.45594000000E+02  0.51100000000E-03 0. -1.
    9900012    2    1    2    0    0 -0.13020990001E+02  0.11519550629E+02  0.69593666098E+01  0.72461574529E+02  0.70000005517E+02 0.  0.
         12    1    1    2    0    0  0.13020990001E+02 -0.11519550629E+02 -0.69593666098E+01  0.18726425471E+02  0.00000000000E+00 0. -1.
         11    1    3    3    0    0  0.12092357468E+00  0.37912396410E+01 -0.97264353584E+01  0.10439907354E+02  0.51100000000E-03 0. -1.
        -11    1    3    3    0    0  0.34184770570E+01  0.30774904382E+02  0.12242339173E+02  0.33296480202E+02  0.51100000000E-03 0.  1.
         12    1    3    3    0    0 -0.16560390633E+02 -0.23046593395E+02  0.44434627947E+01  0.28725186973E+02  0.00000000000E+00 0. -1.
</event>
<event>
 7    1  0.2873608E-013  0.7246153E+02  0.7816164E-02  0.1226708E+00
        -11   -1    0    0    0    0  0.00000000000E+00  0.00000000000E+00  0.45593999997E+02  0.45594000000E+02  0.51100000000E-03 0. -1.
         11   -1    0    0    0    0 -0.00000000000E+00 -0.00000000000E+00 -0.45593999997E+02  0.45594000000E+02  0.51100000000E-03 0.  1.
    9900012    2    1    2    0    0 -0.14811028482E+02 -0.93691107900E+01  0.65980296423E+01  0.72461526844E+02  0.69999943398E+02 0.  0.
         12    1    1    2    0    0  0.14811028482E+02  0.93691107900E+01 -0.65980296423E+01  0.18726473156E+02  0.00000000000E+00 0. -1.
         11    1    3    3    0    0 -0.28118700963E+01 -0.60547485855E+01 -0.31361581178E+02  0.32064238150E+02  0.51100000000E-03 0.  1.
        -11    1    3    3    0    0 -0.53905432635E+01 -0.37297903731E+01  0.12799529854E+02  0.14380447060E+02  0.51100000000E-03 0. -1.
        -12    1    3    3    0    0 -0.66086151220E+01  0.41542816861E+00  0.25160080967E+02  0.26016841635E+02  0.00000000000E+00 0.  1.
</event>
<event>
 7    1  0.2873608E-013  0.7246160E+02  0.7816164E-02  0.1226708E+00
        -11   -1    0    0    0    0  0.00000000000E+00  0.00000000000E+00  0.45593999997E+02  0.45594000000E+02  0.51100000000E-03 0.  1.
         11   -1    0    0    0    0 -0.00000000000E+00 -0.00000000000E+00 -0.45593999997E+02  0.45594000000E+02  0.51100000000E-03 0. -1.
    9900012    2    1    2    0    0 -0.16313187043E+02  0.87312040970E+01 -0.28851507495E+01  0.72461599082E+02  0.70000037501E+02 0.  0.
         12    1    1    2    0    0  0.16313187043E+02 -0.87312040970E+01  0.28851507495E+01  0.18726400918E+02  0.00000000000E+00 0. -1.
         11    1    3    3    0    0  0.13151759208E+02  0.12670104947E+02 -0.22253501211E+02  0.28787473770E+02  0.51100000000E-03 0. -1.
        -11    1    3    3    0    0  0.44122798321E+01 -0.93599824718E+00 -0.50359487035E-01  0.45107474297E+01  0.51100000000E-03 0.  1.
        -12    1    3    3    0    0 -0.33877226083E+02 -0.30029026024E+01  0.19418709949E+02  0.39163377883E+02  0.00000000000E+00 0.  1.
</event>
<event>
 7    1  0.2873608E-013  0.7246159E+02  0.7816164E-02  0.1226708E+00
        -11   -1    0    0    0    0  0.00000000000E+00  0.00000000000E+00  0.45593999997E+02  0.45594000000E+02  0.51100000000E-03 0. -1.
         11   -1    0    0    0    0 -0.00000000000E+00 -0.00000000000E+00 -0.45593999997E+02  0.45594000000E+02  0.51100000000E-03 0.  1.
    9900012    2    1    2    0    0 -0.14713677832E+02  0.11162913475E+02 -0.30944165997E+01  0.72461591730E+02  0.70000027924E+02 0.  0.
         12    1    1    2    0    0  0.14713677832E+02 -0.11162913475E+02  0.30944165997E+01  0.18726408270E+02  0.00000000000E+00 0. -1.
         11    1    3    3    0    0  0.86548494718E+01  0.23986378117E+02  0.15802373004E+02  0.29999462451E+02  0.51100000000E-03 0. -1.
        -11    1    3    3    0    0 -0.13644882434E+02  0.11522893753E+01  0.36855999664E+01  0.14180769895E+02  0.51100000000E-03 0.  1.
        -12    1    3    3    0    0 -0.97236448697E+01 -0.13975754017E+02 -0.22582389570E+02  0.28281359384E+02  0.00000000000E+00 0.  1.
</event>
<event>
 7    1  0.2873608E-013  0.7246154E+02  0.7816164E-02  0.1226708E+00
        -11   -1    0    0    0    0  0.00000000000E+00  0.00000000000E+00  0.45593999997E+02  0.45594000000E+02  0.51100000000E-03 0.  1.
         11   -1    0    0    0    0 -0.00000000000E+00 -0.00000000000E+00 -0.45593999997E+02  0.45594000000E+02  0.51100000000E-03 0. -1.
    9900012    2    1    2    0    0  0.15390306139E+02 -0.93938509619E+01  0.50570918593E+01  0.72461544462E+02  0.69999966348E+02 0.  0.
         12    1    1    2    0    0 -0.15390306139E+02  0.93938509619E+01 -0.50570918593E+01  0.18726455538E+02  0.00000000000E+00 0. -1.
         11    1    3    3    0    0  0.58240580107E+01  0.49869603782E+01 -0.43054062554E+01  0.87935174311E+01  0.51100000000E-03 0. -1.
        -11    1    3    3    0    0  0.15987259270E+02 -0.25793693498E+02  0.27731647180E+02  0.41109017731E+02  0.51100000000E-03 0.  1.
         12    1    3    3    0    0 -0.64210111413E+01  0.11412882158E+02 -0.18369149065E+02  0.22559009300E+02  0.00000000000E+00 0. -1.
</event>
<event>
 7    1  0.2873608E-013  0.7246143E+02  0.7816164E-02  0.1226708E+00
        -11   -1    0    0    0    0  0.00000000000E+00  0.00000000000E+00  0.45593999997E+02  0.45594000000E+02  0.51100000000E-03 0.  1.
         11   -1    0    0    0    0 -0.00000000000E+00 -0.00000000000E+00 -0.45593999997E+02  0.45594000000E+02  0.51100000000E-03 0. -1.
    9900012    2    1    2    0    0 -0.24486670540E+01  0.70794840677E+01  0.17163027295E+02  0.72461426076E+02  0.69999812128E+02 0.  0.
         12    1    1    2    0    0  0.24486670540E+01 -0.70794840677E+01 -0.17163027295E+02  0.18726573924E+02  0.00000000000E+00 0. -1.
         11    1    3    3    0    0 -0.24622331313E+02  0.26514857880E+01 -0.11907298694E+02  0.27478597829E+02  0.51100000000E-03 0. -1.
        -11    1    3    3    0    0 -0.27724061659E+01  0.83762973455E+01  0.52594191930E+01  0.10271810146E+02  0.51100000000E-03 0.  1.
        -12    1    3    3    0    0  0.24946070425E+02 -0.39482990658E+01  0.23810906796E+02  0.34711018101E+02  0.00000000000E+00 0.  1.
</event>
<event>
 7    1  0.2873608E-013  0.7246163E+02  0.7816164E-02  0.1226708E+00
        -11   -1    0    0    0    0  0.00000000000E+00  0.00000000000E+00  0.45593999997E+02  0.45594000000E+02  0.51100000000E-03 0. -1.
         11   -1    0    0    0    0 -0.00000000000E+00 -0.00000000000E+00 -0.45593999997E+02  0.45594000000E+02  0.51100000000E-03 0.  1.
    9900012    2    1    2    0    0 -0.16596514687E+00 -0.31041524023E+01 -0.18466559012E+02  0.72461625329E+02  0.70000071693E+02 0.  0.
         12    1    1    2    0    0  0.16596514687E+00  0.31041524023E+01  0.18466559012E+02  0.18726374671E+02  0.00000000000E+00 0. -1.
         11    1    3    3    0    0 -0.53764509883E+00 -0.52983002086E+01 -0.24179467778E+02  0.24758992500E+02  0.51100000000E-03 0. -1.
        -11    1    3    3    0    0 -0.14820148051E+02 -0.10337803166E+02 -0.11607037531E+02  0.21476272560E+02  0.51100000000E-03 0.  1.
         12    1    3    3    0    0  0.15191828003E+02  0.12531950972E+02  0.17319946297E+02  0.26226360269E+02  0.00000000000E+00 0. -1.
</event>
<event>
 7    1  0.2873608E-013  0.7246156E+02  0.7816164E-02  0.1226708E+00
        -11   -1    0    0    0    0  0.00000000000E+00  0.00000000000E+00  0.45593999997E+02  0.45594000000E+02  0.51100000000E-03 0. -1.
         11   -1    0    0    0    0 -0.00000000000E+00 -0.00000000000E+00 -0.45593999997E+02  0.45594000000E+02  0.51100000000E-03 0.  1.
    9900012    2    1    2    0    0  0.12934769652E+02 -0.12033339534E+02 -0.62104839534E+01  0.72461557806E+02  0.69999983732E+02 0.  0.
         12    1    1    2    0    0 -0.12934769652E+02  0.12033339534E+02  0.62104839534E+01  0.18726442194E+02  0.00000000000E+00 0. -1.
         11    1    3    3    0    0  0.22665029353E+02 -0.19678651790E+01  0.14307241852E+02  0.26875141276E+02  0.51100000000E-03 0.  1.
        -11    1    3    3    0    0 -0.13576024911E+02 -0.12907817311E+02  0.51893297257E+01  0.19438347239E+02  0.51100000000E-03 0. -1.
        -12    1    3    3    0    0  0.38457652104E+01  0.28423429558E+01 -0.25707055531E+02  0.26148069290E+02  0.00000000000E+00 0.  1.
</event>
<event>
 7    1  0.2873608E-013  0.7246161E+02  0.7816164E-02  0.1226708E+00
        -11   -1    0    0    0    0  0.00000000000E+00  0.00000000000E+00  0.45593999997E+02  0.45594000000E+02  0.51100000000E-03 0.  1.
         11   -1    0    0    0    0 -0.00000000000E+00 -0.00000000000E+00 -0.45593999997E+02  0.45594000000E+02  0.51100000000E-03 0. -1.
    9900012    2    1    2    0    0 -0.18438417987E+02  0.21533073296E+01  0.24628727049E+01  0.72461608669E+02  0.70000049990E+02 0.  0.
         12    1    1    2    0    0  0.18438417987E+02 -0.21533073296E+01 -0.24628727049E+01  0.18726391331E+02  0.00000000000E+00 0. -1.
         11    1    3    3    0    0 -0.82708389192E+00  0.22215011660E+02  0.60080360576E+01  0.23027967959E+02  0.51100000000E-03 0. -1.
        -11    1    3    3    0    0  0.13563584807E+02 -0.56399813762E+01  0.12895174573E+01  0.14745951250E+02  0.51100000000E-03 0.  1.
        -12    1    3    3    0    0 -0.31174918902E+02 -0.14421722954E+02 -0.48346808100E+01  0.34687689460E+02  0.00000000000E+00 0.  1.
</event>
<event>
 7    1  0.2873608E-013  0.7246158E+02  0.7816164E-02  0.1226708E+00
        -11   -1    0    0    0    0  0.00000000000E+00  0.00000000000E+00  0.45593999997E+02  0.45594000000E+02  0.51100000000E-03 0. -1.
         11   -1    0    0    0    0 -0.00000000000E+00 -0.00000000000E+00 -0.45593999997E+02  0.45594000000E+02  0.51100000000E-03 0.  1.
    9900012    2    1    2    0    0  0.10484803011E+01 -0.12105119483E+02 -0.14249408371E+02  0.72461578356E+02  0.70000010502E+02 0.  0.
         12    1    1    2    0    0 -0.10484803011E+01  0.12105119483E+02  0.14249408371E+02  0.18726421644E+02  0.00000000000E+00 0. -1.
         11    1    3    3    0    0  0.58199447714E+01  0.19191378249E+02 -0.10483278209E+02  0.22629182012E+02  0.51100000000E-03 0. -1.
        -11    1    3    3    0    0 -0.46713793387E+01 -0.14029248033E+02 -0.20837455160E+02  0.25550755823E+02  0.51100000000E-03 0.  1.
         12    1    3    3    0    0 -0.10008513163E+00 -0.17267249700E+02  0.17071324999E+02  0.24281640522E+02  0.00000000000E+00 0. -1.
</event>
<event>
 7    1  0.2873608E-013  0.7246179E+02  0.7816164E-02  0.1226707E+00
        -11   -1    0    0    0    0  0.00000000000E+00  0.00000000000E+00  0.45593999997E+02  0.45594000000E+02  0.51100000000E-03 0. -1.
         11   -1    0    0    0    0 -0.00000000000E+00 -0.00000000000E+00 -0.45593999997E+02  0.45594000000E+02  0.51100000000E-03 0.  1.
    9900012    2    1    2    0    0 -0.28058643296E+01 -0.60846683228E+01 -0.17486422906E+02  0.72461787108E+02  0.70000282440E+02 0.  0.
         12    1    1    2    0    0  0.28058643296E+01  0.60846683228E+01  0.17486422906E+02  0.18726212892E+02  0.00000000000E+00 0. -1.
         11    1    3    3    0    0 -0.15654862849E+02  0.57781981004E+00  0.95598746066E+01  0.18352106400E+02  0.51100000000E-03 0. -1.
        -11    1    3    3    0    0  0.36311847071E+01 -0.18004265263E+02 -0.33444051771E+02  0.38155519511E+02  0.51100000000E-03 0.  1.
         12    1    3    3    0    0  0.92178138127E+01  0.11341777130E+02  0.63977542586E+01  0.15954161197E+02  0.00000000000E+00 0. -1.
</event>
<event>
 7    1  0.2873608E-013  0.7246139E+02  0.7816164E-02  0.1226708E+00
        -11   -1    0    0    0    0  0.00000000000E+00  0.00000000000E+00  0.45593999997E+02  0.45594000000E+02  0.51100000000E-03 0.  1.
         11   -1    0    0    0    0 -0.00000000000E+00 -0.00000000000E+00 -0.45593999997E+02  0.45594000000E+02  0.51100000000E-03 0. -1.
    9900012    2    1    2    0    0 -0.16751308730E+01  0.77438100991E+01  0.16968004053E+02  0.72461392730E+02  0.69999768689E+02 0.  0.
         12    1    1    2    0    0  0.16751308730E+01 -0.77438100991E+01 -0.16968004053E+02  0.18726607270E+02  0.00000000000E+00 0. -1.
         11    1    3    3    0    0 -0.20958560041E+02 -0.13134211589E+02  0.18908200773E+02  0.31133403441E+02  0.51100000000E-03 0. -1.
        -11    1    3    3    0    0 -0.91077450494E+00  0.87049363760E+01  0.11294039586E+02  0.14288483402E+02  0.51100000000E-03 0.  1.
         12    1    3    3    0    0  0.20194203673E+02  0.12173085312E+02 -0.13234236306E+02  0.27039505887E+02  0.00000000000E+00 0. -1.
</event>
<event>
 7    1  0.2873608E-013  0.7246157E+02  0.7816164E-02  0.1226708E+00
        -11   -1    0    0    0    0  0.00000000000E+00  0.00000000000E+00  0.45593999997E+02  0.45594000000E+02  0.51100000000E-03 0.  1.
         11   -1    0    0    0    0 -0.00000000000E+00 -0.00000000000E+00 -0.45593999997E+02  0.45594000000E+02  0.51100000000E-03 0. -1.
    9900012    2    1    2    0    0  0.15006351447E+02  0.81206528798E+01 -0.77164554731E+01  0.72461567558E+02  0.69999996435E+02 0.  0.
         12    1    1    2    0    0 -0.15006351447E+02 -0.81206528798E+01  0.77164554731E+01  0.18726432442E+02  0.00000000000E+00 0. -1.
         11    1    3    3    0    0  0.48042557202E+00  0.18760841402E+01 -0.27494159739E+02  0.27562280756E+02  0.51100000000E-03 0. -1.
        -11    1    3    3    0    0  0.14621442110E+02  0.45388122589E+01 -0.78595371951E+01  0.17209291423E+02  0.51100000000E-03 0.  1.
        -12    1    3    3    0    0 -0.95516234638E-01  0.17057564808E+01  0.27637241461E+02  0.27689995379E+02  0.00000000000E+00 0.  1.
</event>
<event>
 7    1  0.2873608E-013  0.7246145E+02  0.7816164E-02  0.1226708E+00
        -11   -1    0    0    0    0  0.00000000000E+00  0.00000000000E+00  0.45593999997E+02  0.45594000000E+02  0.51100000000E-03 0.  1.
         11   -1    0    0    0    0 -0.00000000000E+00 -0.00000000000E+00 -0.45593999997E+02  0.45594000000E+02  0.51100000000E-03 0. -1.
    9900012    2    1    2    0    0 -0.54009822117E+01 -0.15567987718E+02  0.88966763432E+01  0.72461449319E+02  0.69999842407E+02 0.  0.
         12    1    1    2    0    0  0.54009822117E+01  0.15567987718E+02 -0.88966763432E+01  0.18726550681E+02  0.00000000000E+00 0. -1.
         11    1    3    3    0    0 -0.20390466570E+01  0.47650038046E+01 -0.34868729711E+00  0.51946660739E+01  0.51100000000E-03 0. -1.
        -11    1    3    3    0    0 -0.19052858284E+02 -0.30278942825E+02  0.24390454293E+02  0.43298037465E+02  0.51100000000E-03 0.  1.
         12    1    3    3    0    0  0.15690922729E+02  0.99459513024E+01 -0.15145090653E+02  0.23968745781E+02  0.00000000000E+00 0. -1.
</event>
<event>
 7    1  0.2873608E-013  0.7246159E+02  0.7816164E-02  0.1226708E+00
        -11   -1    0    0    0    0  0.00000000000E+00  0.00000000000E+00  0.45593999997E+02  0.45594000000E+02  0.51100000000E-03 0. -1.
         11   -1    0    0    0    0 -0.00000000000E+00 -0.00000000000E+00 -0.45593999997E+02  0.45594000000E+02  0.51100000000E-03 0.  1.
    9900012    2    1    2    0    0  0.14500241347E+02  0.58347881734E-01  0.11849811385E+02  0.72461589947E+02  0.70000025602E+02 0.  0.
         12    1    1    2    0    0 -0.14500241347E+02 -0.58347881734E-01 -0.11849811385E+02  0.18726410053E+02  0.00000000000E+00 0. -1.
         11    1    3    3    0    0 -0.11865059753E+02  0.91279990428E+01  0.10442694569E+02  0.18252393804E+02  0.51100000000E-03 0. -1.
        -11    1    3    3    0    0  0.18718075117E+02  0.12318921718E+02  0.15710098032E+02  0.27366573568E+02  0.51100000000E-03 0.  1.
         12    1    3    3    0    0  0.76472259829E+01 -0.21388572879E+02 -0.14302981216E+02  0.26842622575E+02  0.00000000000E+00 0. -1.
</event>
<event>
 7    1  0.2873608E-013  0.7246154E+02  0.7816164E-02  0.1226708E+00
        -11   -1    0    0    0    0  0.00000000000E+00  0.00000000000E+00  0.45593999997E+02  0.45594000000E+02  0.51100000000E-03 0.  1.
         11   -1    0    0    0    0 -0.00000000000E+00 -0.00000000000E+00 -0.45593999997E+02  0.45594000000E+02  0.51100000000E-03 0. -1.
    9900012    2    1    2    0    0  0.11153931112E+02  0.11196715049E+02  0.10045074226E+02  0.72461544827E+02  0.69999966824E+02 0.  0.
         12    1    1    2    0    0 -0.11153931112E+02 -0.11196715049E+02 -0.10045074226E+02  0.18726455173E+02  0.00000000000E+00 0. -1.
         11    1    3    3    0    0  0.10164421945E+02 -0.15540281874E+02  0.94353363635E+00  0.18593173214E+02  0.51100000000E-03 0. -1.
        -11    1    3    3    0    0  0.19926045999E+02  0.14723231560E+02  0.17050221861E+02  0.30075420570E+02  0.51100000000E-03 0.  1.
        -12    1    3    3    0    0 -0.18936536832E+02  0.12013765362E+02 -0.79486812714E+01  0.23792951043E+02  0.00000000000E+00 0.  1.
</event>
<event>
 7    1  0.2873608E-013  0.7246152E+02  0.7816164E-02  0.1226708E+00
        -11   -1    0    0    0    0  0.00000000000E+00  0.00000000000E+00  0.45593999997E+02  0.45594000000E+02  0.51100000000E-03 0. -1.
         11   -1    0    0    0    0 -0.00000000000E+00 -0.00000000000E+00 -0.45593999997E+02  0.45594000000E+02  0.51100000000E-03 0.  1.
    9900012    2    1    2    0    0  0.11061352664E+02  0.12582228435E+02 -0.83675064626E+01  0.72461517160E+02  0.69999930782E+02 0.  0.
         12    1    1    2    0    0 -0.11061352664E+02 -0.12582228435E+02  0.83675064626E+01  0.18726482840E+02  0.00000000000E+00 0. -1.
         11    1    3    3    0    0 -0.23827227110E+01 -0.30293347037E+01  0.61571334861E+01  0.72639196919E+01  0.51100000000E-03 0. -1.
        -11    1    3    3    0    0 -0.73497892713E+01  0.11555627234E+02 -0.33853958432E+02  0.36519069332E+02  0.51100000000E-03 0.  1.
         12    1    3    3    0    0  0.20793864647E+02  0.40559359044E+01  0.19329318483E+02  0.28678528136E+02  0.00000000000E+00 0. -1.
</event>
<event>
 7    1  0.2873608E-013  0.7246157E+02  0.7816164E-02  0.1226708E+00
        -11   -1    0    0    0    0  0.00000000000E+00  0.00000000000E+00  0.45593999997E+02  0.45594000000E+02  0.51100000000E-03 0. -1.
         11   -1    0    0    0    0 -0.00000000000E+00 -0.00000000000E+00 -0.45593999997E+02  0.45594000000E+02  0.51100000000E-03 0.  1.
    9900012    2    1    2    0    0 -0.10555244402E+02 -0.13071463470E+02 -0.82705972554E+01  0.72461571601E+02  0.70000001702E+02 0.  0.
         12    1    1    2    0    0  0.10555244402E+02  0.13071463470E+02  0.82705972554E+01  0.18726428399E+02  0.00000000000E+00 0. -1.
         11    1    3    3    0    0 -0.29526527145E+01  0.98210003241E+01  0.25121744158E+02  0.27134336831E+02  0.51100000000E-03 0. -1.
        -11    1    3    3    0    0 -0.42987529631E+01  0.22215346628E+01 -0.86876258932E+01  0.99443118021E+01  0.51100000000E-03 0.  1.
        -12    1    3    3    0    0 -0.33038387241E+01 -0.25113998457E+02 -0.24704715521E+02  0.35382922968E+02  0.00000000000E+00 0.  1.
</event>
<event>
 7    1  0.2873608E-013  0.7246146E+02  0.7816164E-02  0.1226708E+00
        -11   -1    0    0    0    0  0.00000000000E+00  0.00000000000E+00  0.45593999997E+02  0.45594000000E+02  0.51100000000E-03 0. -1.
         11   -1    0    0    0    0 -0.00000000000E+00 -0.00000000000E+00 -0.45593999997E+02  0.45594000000E+02  0.51100000000E-03 0.  1.
    9900012    2    1    2    0    0  0.15506260862E+02 -0.36602161537E+01 -0.98408252787E+01  0.72461464005E+02  0.69999861538E+02 0.  0.
         12    1    1    2    0    0 -0.15506260862E+02  0.36602161537E+01  0.98408252787E+01  0.18726535995E+02  0.00000000000E+00 0. -1.
         11    1    3    3    0    0  0.15896216362E+02  0.45453773950E+01  0.15444721190E+00  0.16534025659E+02  0.51100000000E-03 0. -1.
        -11    1    3    3    0    0  0.17237969069E+02  0.77697061707E+00 -0.25501138276E+02  0.30790571846E+02  0.51100000000E-03 0.  1.
        -12    1    3    3    0    0 -0.17627924569E+02 -0.89825641658E+01  0.15505865786E+02  0.25136866499E+02  0.00000000000E+00 0.  1.
</event>
<event>
 7    1  0.2873608E-013  0.7246155E+02  0.7816164E-02  0.1226708E+00
        -11   -1    0    0    0    0  0.00000000000E+00  0.00000000000E+00  0.45593999997E+02  0.45594000000E+02  0.51100000000E-03 0. -1.
         11   -1    0    0    0    0 -0.00000000000E+00 -0.00000000000E+00 -0.45593999997E+02  0.45594000000E+02  0.51100000000E-03 0.  1.
    9900012    2    1    2    0    0 -0.16356583445E+02 -0.90742724801E+01 -0.89425138689E+00  0.72461550028E+02  0.69999973599E+02 0.  0.
         12    1    1    2    0    0  0.16356583445E+02  0.90742724801E+01  0.89425138689E+00  0.18726449972E+02  0.00000000000E+00 0. -1.
         11    1    3    3    0    0  0.47097597811E+01 -0.13668318592E+02  0.68467246820E+01  0.15996324873E+02  0.51100000000E-03 0. -1.
        -11    1    3    3    0    0 -0.29653975941E+02 -0.15771172337E+02 -0.20875542560E+01  0.33651835746E+02  0.51100000000E-03 0.  1.
         12    1    3    3    0    0  0.85876327155E+01  0.20365218449E+02 -0.56534218129E+01  0.22813389409E+02  0.00000000000E+00 0. -1.
</event>
<event>
 7    1  0.2873608E-013  0.7246155E+02  0.7816164E-02  0.1226708E+00
        -11   -1    0    0    0    0  0.00000000000E+00  0.00000000000E+00  0.45593999997E+02  0.45594000000E+02  0.51100000000E-03 0.  1.
         11   -1    0    0    0    0 -0.00000000000E+00 -0.00000000000E+00 -0.45593999997E+02  0.45594000000E+02  0.51100000000E-03 0. -1.
    9900012    2    1    2    0    0  0.16125180471E+02  0.22716304266E+01  0.92465194581E+01  0.72461551535E+02  0.69999975563E+02 0.  0.
         12    1    1    2    0    0 -0.16125180471E+02 -0.22716304266E+01 -0.92465194581E+01  0.18726448465E+02  0.00000000000E+00 0. -1.
         11    1    3    3    0    0 -0.95565735149E+01  0.59841050227E+01  0.76480168648E+01  0.13624601737E+02  0.51100000000E-03 0. -1.
        -11    1    3    3    0    0  0.31250610093E+01 -0.19352658300E+02  0.18207547289E+02  0.26754554157E+02  0.51100000000E-03 0.  1.
        -12    1    3    3    0    0  0.22556692976E+02  0.15640183704E+02 -0.16609044696E+02  0.32082395641E+02  0.00000000000E+00 0.  1.
</event>
<event>
 7    1  0.2873608E-013  0.7246153E+02  0.7816164E-02  0.1226708E+00
        -11   -1    0    0    0    0  0.00000000000E+00  0.00000000000E+00  0.45593999997E+02  0.45594000000E+02  0.51100000000E-03 0.  1.
         11   -1    0    0    0    0 -0.00000000000E+00 -0.00000000000E+00 -0.45593999997E+02  0.45594000000E+02  0.51100000000E-03 0. -1.
    9900012    2    1    2    0    0 -0.41037625303E+01  0.40657819379E+01  0.17813180654E+02  0.72461525301E+02  0.69999941387E+02 0.  0.
         12    1    1    2    0    0  0.41037625303E+01 -0.40657819379E+01 -0.17813180654E+02  0.18726474699E+02  0.00000000000E+00 0. -1.
         11    1    3    3    0    0  0.30862194395E+01  0.12802999913E+02 -0.10056914635E+02  0.16570548858E+02  0.51100000000E-03 0. -1.
        -11    1    3    3    0    0  0.14181621510E+02 -0.18743961150E+02  0.73725238138E+01  0.24633484851E+02  0.51100000000E-03 0.  1.
        -12    1    3    3    0    0 -0.21371603480E+02  0.10006743175E+02  0.20497571475E+02  0.31257491592E+02  0.00000000000E+00 0.  1.
</event>
<event>
 7    1  0.2873608E-013  0.7246159E+02  0.7816164E-02  0.1226708E+00
        -11   -1    0    0    0    0  0.00000000000E+00  0.00000000000E+00  0.45593999997E+02  0.45594000000E+02  0.51100000000E-03 0. -1.
         11   -1    0    0    0    0 -0.00000000000E+00 -0.00000000000E+00 -0.45593999997E+02  0.45594000000E+02  0.51100000000E-03 0.  1.
    9900012    2    1    2    0    0 -0.70323991172E+00 -0.18093395023E+02 -0.47762967336E+01  0.72461588162E+02  0.70000023276E+02 0.  0.
         12    1    1    2    0    0  0.70323991172E+00  0.18093395023E+02  0.47762967336E+01  0.18726411838E+02  0.00000000000E+00 0. -1.
         11    1    3    3    0    0  0.25235360143E+02 -0.16831018208E+02 -0.67221382130E+01  0.31069176331E+02  0.51100000000E-03 0. -1.
        -11    1    3    3    0    0 -0.22901438656E+02 -0.70381002389E+00  0.15388041644E+02  0.27600055561E+02  0.51100000000E-03 0.  1.
        -12    1    3    3    0    0 -0.30371613988E+01 -0.55856679135E+00 -0.13442200165E+02  0.13792356271E+02  0.00000000000E+00 0.  1.
</event>
<event>
 7    1  0.2873608E-013  0.7246158E+02  0.7816164E-02  0.1226708E+00
        -11   -1    0    0    0    0  0.00000000000E+00  0.00000000000E+00  0.45593999997E+02  0.45594000000E+02  0.51100000000E-03 0. -1.
         11   -1    0    0    0    0 -0.00000000000E+00 -0.00000000000E+00 -0.45593999997E+02  0.45594000000E+02  0.51100000000E-03 0.  1.
    9900012    2    1    2    0    0 -0.90560408368E+01 -0.16281800881E+02  0.18893705791E+01  0.72461584520E+02  0.70000018531E+02 0.  0.
         12    1    1    2    0    0  0.90560408368E+01  0.16281800881E+02 -0.18893705791E+01  0.18726415480E+02  0.00000000000E+00 0. -1.
         11    1    3    3    0    0 -0.17259151846E+02  0.59726333128E+01 -0.20581974933E+01  0.18378978435E+02  0.51100000000E-03 0. -1.
        -11    1    3    3    0    0  0.73814547092E+01 -0.13398411396E+02 -0.21919306343E+02  0.26729371343E+02  0.51100000000E-03 0.  1.
        -12    1    3    3    0    0  0.82165629966E+00 -0.88560227971E+01  0.25866874415E+02  0.27353234742E+02  0.00000000000E+00 0.  1.
</event>
<event>
 7    1  0.2873608E-013  0.7246159E+02  0.7816164E-02  0.1226708E+00
        -11   -1    0    0    0    0  0.00000000000E+00  0.00000000000E+00  0.45593999997E+02  0.45594000000E+02  0.51100000000E-03 0. -1.
         11   -1    0    0    0    0 -0.00000000000E+00 -0.00000000000E+00 -0.45593999997E+02  0.45594000000E+02  0.51100000000E-03 0.  1.
    9900012    2    1    2    0    0  0.67707583021E+01  0.17402598610E+02  0.14088858699E+01  0.72461586415E+02  0.70000021001E+02 0.  0.
         12    1    1    2    0    0 -0.67707583021E+01 -0.17402598610E+02 -0.14088858699E+01  0.18726413585E+02  0.00000000000E+00 0. -1.
         11    1    3    3    0    0  0.68237290177E+00  0.53773425435E+01  0.58722531789E+01  0.79915457369E+01  0.51100000000E-03 0. -1.
        -11    1    3    3    0    0  0.28017151990E+02  0.19185309250E+02  0.12125629422E+02  0.36056452762E+02  0.51100000000E-03 0.  1.
         12    1    3    3    0    0 -0.21928766589E+02 -0.71600531843E+01 -0.16588996731E+02  0.28413587916E+02  0.00000000000E+00 0. -1.
</event>
<event>
 7    1  0.2873608E-013  0.7246157E+02  0.7816164E-02  0.1226708E+00
        -11   -1    0    0    0    0  0.00000000000E+00  0.00000000000E+00  0.45593999997E+02  0.45594000000E+02  0.51100000000E-03 0.  1.
         11   -1    0    0    0    0 -0.00000000000E+00 -0.00000000000E+00 -0.45593999997E+02  0.45594000000E+02  0.51100000000E-03 0. -1.
    9900012    2    1    2    0    0 -0.57637052818E+01  0.17283159904E+02 -0.43302524507E+01  0.72461574791E+02  0.70000005857E+02 0.  0.
         12    1    1    2    0    0  0.57637052818E+01 -0.17283159904E+02  0.43302524507E+01  0.18726425209E+02  0.00000000000E+00 0. -1.
         11    1    3    3    0    0 -0.50635357093E+01 -0.50742524285E+01  0.10616477813E+02  0.12810036417E+02  0.51100000000E-03 0. -1.
        -11    1    3    3    0    0 -0.16182626346E+02  0.20331465808E+02  0.11910550996E+02  0.28585085668E+02  0.51100000000E-03 0.  1.
         12    1    3    3    0    0  0.15482456773E+02  0.20259465244E+01 -0.26857281260E+02  0.31066452706E+02  0.00000000000E+00 0. -1.
</event>
<event>
 7    1  0.2873608E-013  0.7246157E+02  0.7816164E-02  0.1226708E+00
        -11   -1    0    0    0    0  0.00000000000E+00  0.00000000000E+00  0.45593999997E+02  0.45594000000E+02  0.51100000000E-03 0. -1.
         11   -1    0    0    0    0 -0.00000000000E+00 -0.00000000000E+00 -0.45593999997E+02  0.45594000000E+02  0.51100000000E-03 0.  1.
    9900012    2    1    2    0    0 -0.39561097925E+00  0.14999753538E+02 -0.11204020806E+02  0.72461569575E+02  0.69999999063E+02 0.  0.
         12    1    1    2    0    0  0.39561097925E+00 -0.14999753538E+02  0.11204020806E+02  0.18726430425E+02  0.00000000000E+00 0. -1.
         11    1    3    3    0    0  0.27115261765E+02  0.12278256161E+02  0.21364405690E+01  0.29842207919E+02  0.51100000000E-03 0. -1.
        -11    1    3    3    0    0 -0.11189396389E+02  0.71742832186E+01  0.79018585781E+01  0.15463256465E+02  0.51100000000E-03 0.  1.
        -12    1    3    3    0    0 -0.16321476356E+02 -0.44527858418E+01 -0.21242319953E+02  0.27156105191E+02  0.00000000000E+00 0.  1.
</event>
<event>
 7    1  0.2873608E-013  0.7246159E+02  0.7816164E-02  0.1226708E+00
        -11   -1    0    0    0    0  0.00000000000E+00  0.00000000000E+00  0.45593999997E+02  0.45594000000E+02  0.51100000000E-03 0.  1.
         11   -1    0    0    0    0 -0.00000000000E+00 -0.00000000000E+00 -0.45593999997E+02  0.45594000000E+02  0.51100000000E-03 0. -1.
    9900012    2    1    2    0    0  0.26470449793E+01  0.18490433746E+02  0.13325191581E+01  0.72461585647E+02  0.70000019999E+02 0.  0.
         12    1    1    2    0    0 -0.26470449793E+01 -0.18490433746E+02 -0.13325191581E+01  0.18726414353E+02  0.00000000000E+00 0. -1.
         11    1    3    3    0    0 -0.21626229776E+02  0.96049253938E+01  0.68923152151E+01  0.24646549767E+02  0.51100000000E-03 0. -1.
        -11    1    3    3    0    0  0.42319150065E+01 -0.13891685453E+02 -0.93025353019E+01  0.17246019617E+02  0.51100000000E-03 0.  1.
         12    1    3    3    0    0  0.20041359749E+02  0.22777193805E+02  0.37427392449E+01  0.30569016262E+02  0.00000000000E+00 0. -1.
</event>
<event>
 7    1  0.2873608E-013  0.7246161E+02  0.7816164E-02  0.1226708E+00
        -11   -1    0    0    0    0  0.00000000000E+00  0.00000000000E+00  0.45593999997E+02  0.45594000000E+02  0.51100000000E-03 0.  1.
         11   -1    0    0    0    0 -0.00000000000E+00 -0.00000000000E+00 -0.45593999997E+02  0.45594000000E+02  0.51100000000E-03 0. -1.
    9900012    2    1    2    0    0  0.48921672871E+01 -0.15818013955E+02  0.87484183591E+01  0.72461609797E+02  0.70000051460E+02 0.  0.
         12    1    1    2    0    0 -0.48921672871E+01  0.15818013955E+02 -0.87484183591E+01  0.18726390203E+02  0.00000000000E+00 0. -1.
         11    1    3    3    0    0 -0.29033610395E+01 -0.15437477121E-01 -0.80178076587E+00  0.30120750819E+01  0.51100000000E-03 0. -1.
        -11    1    3    3    0    0  0.32160853896E+02  0.54514908235E+01  0.16229695848E+02  0.36434081615E+02  0.51100000000E-03 0.  1.
         12    1    3    3    0    0 -0.24365325570E+02 -0.21254067301E+02 -0.66794967227E+01  0.33015453100E+02  0.00000000000E+00 0. -1.
</event>
<event>
 7    1  0.2873608E-013  0.7246155E+02  0.7816164E-02  0.1226708E+00
        -11   -1    0    0    0    0  0.00000000000E+00  0.00000000000E+00  0.45593999997E+02  0.45594000000E+02  0.51100000000E-03 0.  1.
         11   -1    0    0    0    0 -0.00000000000E+00 -0.00000000000E+00 -0.45593999997E+02  0.45594000000E+02  0.51100000000E-03 0. -1.
    9900012    2    1    2    0    0 -0.83672545004E+01  0.22881877894E+01  0.16596185266E+02  0.72461545006E+02  0.69999967058E+02 0.  0.
         12    1    1    2    0    0  0.83672545004E+01 -0.22881877894E+01 -0.16596185266E+02  0.18726454994E+02  0.00000000000E+00 0. -1.
         11    1    3    3    0    0  0.10725510379E+02  0.12852080334E+02  0.22085914675E+02  0.27712815972E+02  0.51100000000E-03 0. -1.
        -11    1    3    3    0    0 -0.59667772640E+01  0.14722005707E+02 -0.11062079320E+01  0.15923679826E+02  0.51100000000E-03 0.  1.
        -12    1    3    3    0    0 -0.13125987616E+02 -0.25285898252E+02 -0.43835214766E+01  0.28825049208E+02  0.00000000000E+00 0.  1.
</event>
<event>
 7    1  0.2873608E-013  0.7246156E+02  0.7816164E-02  0.1226708E+00
        -11   -1    0    0    0    0  0.00000000000E+00  0.00000000000E+00  0.45593999997E+02  0.45594000000E+02  0.51100000000E-03 0.  1.
         11   -1    0    0    0    0 -0.00000000000E+00 -0.00000000000E+00 -0.45593999997E+02  0.45594000000E+02  0.51100000000E-03 0. -1.
    9900012    2    1    2    0    0 -0.55432857223E+01  0.16896419415E+02 -0.58704872183E+01  0.72461558111E+02  0.69999984129E+02 0.  0.
         12    1    1    2    0    0  0.55432857223E+01 -0.16896419415E+02  0.58704872183E+01  0.18726441889E+02  0.00000000000E+00 0. -1.
         11    1    3    3    0    0 -0.30150159137E+02  0.17541792604E+02 -0.47665660867E+01  0.35206061074E+02  0.51100000000E-03 0. -1.
        -11    1    3    3    0    0  0.53251128800E+00  0.10389245562E+02 -0.26253544083E+01  0.10729048311E+02  0.51100000000E-03 0.  1.
        -12    1    3    3    0    0  0.24074362127E+02 -0.11034618752E+02  0.15214332767E+01  0.26526448727E+02  0.00000000000E+00 0.  1.
</event>
<event>
 7    1  0.2873608E-013  0.7246156E+02  0.7816164E-02  0.1226708E+00
        -11   -1    0    0    0    0  0.00000000000E+00  0.00000000000E+00  0.45593999997E+02  0.45594000000E+02  0.51100000000E-03 0.  1.
         11   -1    0    0    0    0 -0.00000000000E+00 -0.00000000000E+00 -0.45593999997E+02  0.45594000000E+02  0.51100000000E-03 0. -1.
    9900012    2    1    2    0    0  0.14275855913E+02 -0.16328745648E+00  0.12118291560E+02  0.72461555725E+02  0.69999981021E+02 0.  0.
         12    1    1    2    0    0 -0.14275855913E+02  0.16328745648E+00 -0.12118291560E+02  0.18726444275E+02  0.00000000000E+00 0. -1.
         11    1    3    3    0    0  0.24590042908E+02 -0.49208992823E+01  0.47448825146E+01  0.25522526723E+02  0.51100000000E-03 0. -1.
        -11    1    3    3    0    0 -0.11135492102E+02 -0.13901527268E+02 -0.10840435502E+02  0.20851059610E+02  0.51100000000E-03 0.  1.
        -12    1    3    3    0    0  0.82130510649E+00  0.18659139094E+02  0.18213844548E+02  0.26087969392E+02  0.00000000000E+00 0.  1.
</event>
<event>
 7    1  0.2873608E-013  0.7246157E+02  0.7816164E-02  0.1226708E+00
        -11   -1    0    0    0    0  0.00000000000E+00  0.00000000000E+00  0.45593999997E+02  0.45594000000E+02  0.51100000000E-03 0.  1.
         11   -1    0    0    0    0 -0.00000000000E+00 -0.00000000000E+00 -0.45593999997E+02  0.45594000000E+02  0.51100000000E-03 0. -1.
    9900012    2    1    2    0    0  0.14341594348E+02 -0.85469895703E+01 -0.84821552853E+01  0.72461566345E+02  0.69999994855E+02 0.  0.
         12    1    1    2    0    0 -0.14341594348E+02  0.85469895703E+01  0.84821552853E+01  0.18726433655E+02  0.00000000000E+00 0. -1.
         11    1    3    3    0    0 -0.21178613713E+02 -0.21589760948E+01 -0.15885289513E+02  0.26561951731E+02  0.51100000000E-03 0. -1.
        -11    1    3    3    0    0  0.29975295467E+01  0.82765241098E+01  0.50449466493E+01  0.10145813012E+02  0.51100000000E-03 0.  1.
        -12    1    3    3    0    0  0.32522678514E+02 -0.14664537585E+02  0.23581875787E+01  0.35753801602E+02  0.00000000000E+00 0.  1.
</event>
<event>
 7    1  0.2873608E-013  0.7246153E+02  0.7816164E-02  0.1226708E+00
        -11   -1    0    0    0    0  0.00000000000E+00  0.00000000000E+00  0.45593999997E+02  0.45594000000E+02  0.51100000000E-03 0.  1.
         11   -1    0    0    0    0 -0.00000000000E+00 -0.00000000000E+00 -0.45593999997E+02  0.45594000000E+02  0.51100000000E-03 0. -1.
    9900012    2    1    2    0    0  0.11909685690E+02 -0.19978886940E+01  0.14312528044E+02  0.72461531260E+02  0.69999949150E+02 0.  0.
         12    1    1    2    0    0 -0.11909685690E+02  0.19978886940E+01 -0.14312528044E+02  0.18726468740E+02  0.00000000000E+00 0. -1.
         11    1    3    3    0    0  0.78406933901E+01 -0.15835252452E+02 -0.15604122179E+02  0.23573721011E+02  0.51100000000E-03 0. -1.
        -11    1    3    3    0    0 -0.10575173923E+01  0.13124652026E+01 -0.82356233590E+01  0.84063309663E+01  0.51100000000E-03 0.  1.
        -12    1    3    3    0    0  0.51265096923E+01  0.12524898555E+02  0.38152273582E+02  0.40481479283E+02  0.00000000000E+00 0.  1.
</event>
<event>
 7    1  0.2873608E-013  0.7246157E+02  0.7816164E-02  0.1226708E+00
        -11   -1    0    0    0    0  0.00000000000E+00  0.00000000000E+00  0.45593999997E+02  0.45594000000E+02  0.51100000000E-03 0. -1.
         11   -1    0    0    0    0 -0.00000000000E+00 -0.00000000000E+00 -0.45593999997E+02  0.45594000000E+02  0.51100000000E-03 0.  1.
    9900012    2    1    2    0    0  0.54303527318E+01 -0.77658945741E+01 -0.16151819910E+02  0.72461571197E+02  0.70000001175E+02 0.  0.
         12    1    1    2    0    0 -0.54303527318E+01  0.77658945741E+01  0.16151819910E+02  0.18726428803E+02  0.00000000000E+00 0. -1.
         11    1    3    3    0    0  0.32238722778E+02 -0.23122926579E+01 -0.80175619684E+01  0.33301099739E+02  0.51100000000E-03 0. -1.
        -11    1    3    3    0    0 -0.11815704259E+02  0.82061483158E+01 -0.11730072831E+02  0.18561959654E+02  0.51100000000E-03 0.  1.
        -12    1    3    3    0    0 -0.14992665787E+02 -0.13659750232E+02  0.35958148891E+01  0.20598511803E+02  0.00000000000E+00 0.  1.
</event>
<event>
 7    1  0.2873608E-013  0.7246164E+02  0.7816164E-02  0.1226708E+00
        -11   -1    0    0    0    0  0.00000000000E+00  0.00000000000E+00  0.45593999997E+02  0.45594000000E+02  0.51100000000E-03 0.  1.
         11   -1    0    0    0    0 -0.00000000000E+00 -0.00000000000E+00 -0.45593999997E+02  0.45594000000E+02  0.51100000000E-03 0. -1.
    9900012    2    1    2    0    0 -0.10767579422E+02 -0.15110054333E+02  0.25341737689E+01  0.72461640363E+02  0.70000091278E+02 0.  0.
         12    1    1    2    0    0  0.10767579422E+02  0.15110054333E+02 -0.25341737689E+01  0.18726359637E+02  0.00000000000E+00 0. -1.
         11    1    3    3    0    0 -0.61448187099E+01  0.54866397193E+01 -0.19581175841E+02  0.21243456874E+02  0.51100000000E-03 0. -1.
        -11    1    3    3    0    0 -0.35968388671E+01  0.12254676258E+02  0.98806657986E+01  0.16147504356E+02  0.51100000000E-03 0.  1.
        -12    1    3    3    0    0 -0.10259218453E+01 -0.32851370310E+02  0.12234683812E+02  0.35070679133E+02  0.00000000000E+00 0.  1.
</event>
<event>
 7    1  0.2873608E-013  0.7246150E+02  0.7816164E-02  0.1226708E+00
        -11   -1    0    0    0    0  0.00000000000E+00  0.00000000000E+00  0.45593999997E+02  0.45594000000E+02  0.51100000000E-03 0. -1.
         11   -1    0    0    0    0 -0.00000000000E+00 -0.00000000000E+00 -0.45593999997E+02  0.45594000000E+02  0.51100000000E-03 0.  1.
    9900012    2    1    2    0    0  0.59666246759E+01  0.84243549486E+01 -0.15624064424E+02  0.72461501250E+02  0.69999910056E+02 0.  0.
         12    1    1    2    0    0 -0.59666246759E+01 -0.84243549486E+01  0.15624064424E+02  0.18726498750E+02  0.00000000000E+00 0. -1.
         11    1    3    3    0    0  0.10254647606E+02 -0.37789473636E+01  0.81421297910E+01  0.13628371821E+02  0.51100000000E-03 0. -1.
        -11    1    3    3    0    0  0.59437518333E+01  0.30860691777E+02 -0.19921175903E+02  0.37209726314E+02  0.51100000000E-03 0.  1.
         12    1    3    3    0    0 -0.10231774763E+02 -0.18657389464E+02 -0.38450183122E+01  0.21623403114E+02  0.00000000000E+00 0. -1.
</event>
<event>
 7    1  0.2873608E-013  0.7246153E+02  0.7816164E-02  0.1226708E+00
        -11   -1    0    0    0    0  0.00000000000E+00  0.00000000000E+00  0.45593999997E+02  0.45594000000E+02  0.51100000000E-03 0. -1.
         11   -1    0    0    0    0 -0.00000000000E+00 -0.00000000000E+00 -0.45593999997E+02  0.45594000000E+02  0.51100000000E-03 0.  1.
    9900012    2    1    2    0    0 -0.78961985061E+01 -0.65938413588E+01 -0.15647751962E+02  0.72461525794E+02  0.69999942030E+02 0.  0.
         12    1    1    2    0    0  0.78961985061E+01  0.65938413588E+01  0.15647751962E+02  0.18726474206E+02  0.00000000000E+00 0. -1.
         11    1    3    3    0    0  0.79215326027E+01 -0.11976532830E+02 -0.37288190108E+01  0.14835501639E+02  0.51100000000E-03 0. -1.
        -11    1    3    3    0    0  0.60187240254E+01 -0.10949236028E+01 -0.28693659257E+02  0.29338540837E+02  0.51100000000E-03 0.  1.
         12    1    3    3    0    0 -0.21836455134E+02  0.64776150738E+01  0.16774726306E+02  0.28287483319E+02  0.00000000000E+00 0. -1.
</event>
<event>
 7    1  0.2873608E-013  0.7246178E+02  0.7816164E-02  0.1226707E+00
        -11   -1    0    0    0    0  0.00000000000E+00  0.00000000000E+00  0.45593999997E+02  0.45594000000E+02  0.51100000000E-03 0.  1.
         11   -1    0    0    0    0 -0.00000000000E+00 -0.00000000000E+00 -0.45593999997E+02  0.45594000000E+02  0.51100000000E-03 0. -1.
    9900012    2    1    2    0    0  0.21116122063E+01  0.10964592803E+02  0.15032971283E+02  0.72461777022E+02  0.70000269300E+02 0.  0.
         12    1    1    2    0    0 -0.21116122063E+01 -0.10964592803E+02 -0.15032971283E+02  0.18726222978E+02  0.00000000000E+00 0. -1.
         11    1    3    3    0    0  0.10803587319E+01 -0.71068949215E+01 -0.15507944536E+02  0.17093024145E+02  0.51100000000E-03 0. -1.
        -11    1    3    3    0    0  0.35199583386E+01  0.13186693992E+02 -0.84116394686E+01  0.16032301268E+02  0.51100000000E-03 0.  1.
        -12    1    3    3    0    0 -0.24887048643E+01  0.48847937327E+01  0.38952555288E+02  0.39336451608E+02  0.00000000000E+00 0.  1.
</event>
<event>
 7    1  0.2873608E-013  0.7246159E+02  0.7816164E-02  0.1226708E+00
        -11   -1    0    0    0    0  0.00000000000E+00  0.00000000000E+00  0.45593999997E+02  0.45594000000E+02  0.51100000000E-03 0. -1.
         11   -1    0    0    0    0 -0.00000000000E+00 -0.00000000000E+00 -0.45593999997E+02  0.45594000000E+02  0.51100000000E-03 0.  1.
    9900012    2    1    2    0    0 -0.96448698566E+01  0.78496619279E+01 -0.14001351502E+02  0.72461586814E+02  0.70000021519E+02 0.  0.
         12    1    1    2    0    0  0.96448698566E+01 -0.78496619279E+01  0.14001351502E+02  0.18726413186E+02  0.00000000000E+00 0. -1.
         11    1    3    3    0    0  0.19927718282E+01  0.20355177240E+02 -0.10351367687E+02  0.22922809454E+02  0.51100000000E-03 0. -1.
        -11    1    3    3    0    0  0.27309582035E+00 -0.20888992946E+01 -0.23814315933E+02  0.23907315307E+02  0.51100000000E-03 0.  1.
         12    1    3    3    0    0 -0.11910737505E+02 -0.10416616017E+02  0.20164332118E+02  0.25631462052E+02  0.00000000000E+00 0. -1.
</event>
<event>
 7    1  0.2873608E-013  0.7246167E+02  0.7816164E-02  0.1226708E+00
        -11   -1    0    0    0    0  0.00000000000E+00  0.00000000000E+00  0.45593999997E+02  0.45594000000E+02  0.51100000000E-03 0.  1.
         11   -1    0    0    0    0 -0.00000000000E+00 -0.00000000000E+00 -0.45593999997E+02  0.45594000000E+02  0.51100000000E-03 0. -1.
    9900012    2    1    2    0    0 -0.16611372840E+02  0.79702168244E+01  0.33486387971E+01  0.72461669722E+02  0.70000129523E+02 0.  0.
         12    1    1    2    0    0  0.16611372840E+02 -0.79702168244E+01 -0.33486387971E+01  0.18726330278E+02  0.00000000000E+00 0. -1.
         11    1    3    3    0    0 -0.97259902670E+01  0.23966905107E+02 -0.16496416828E+02  0.30677992039E+02  0.51100000000E-03 0.  1.
        -11    1    3    3    0    0  0.17435004280E+00 -0.14467176178E+02 -0.54627504776E+01  0.15465161737E+02  0.51100000000E-03 0. -1.
        -12    1    3    3    0    0 -0.70597326162E+01 -0.15295121044E+01  0.25307806103E+02  0.26318515947E+02  0.00000000000E+00 0.  1.
</event>
<event>
 7    1  0.2873608E-013  0.7246155E+02  0.7816164E-02  0.1226708E+00
        -11   -1    0    0    0    0  0.00000000000E+00  0.00000000000E+00  0.45593999997E+02  0.45594000000E+02  0.51100000000E-03 0.  1.
         11   -1    0    0    0    0 -0.00000000000E+00 -0.00000000000E+00 -0.45593999997E+02  0.45594000000E+02  0.51100000000E-03 0. -1.
    9900012    2    1    2    0    0  0.57540404943E+00 -0.51557246644E+01 -0.17993540846E+02  0.72461545482E+02  0.69999967678E+02 0.  0.
         12    1    1    2    0    0 -0.57540404943E+00  0.51557246644E+01  0.17993540846E+02  0.18726454518E+02  0.00000000000E+00 0. -1.
         11    1    3    3    0    0  0.15756073050E+02  0.88619090498E+01 -0.84083528441E+01  0.19937092762E+02  0.51100000000E-03 0. -1.
        -11    1    3    3    0    0  0.16917717145E+01  0.12984088499E+02 -0.15340398634E+02  0.20168700409E+02  0.51100000000E-03 0.  1.
        -12    1    3    3    0    0 -0.16872440715E+02 -0.27001722214E+02  0.57552106320E+01  0.32355752311E+02  0.00000000000E+00 0.  1.
</event>
<event>
 7    1  0.2873608E-013  0.7246151E+02  0.7816164E-02  0.1226708E+00
        -11   -1    0    0    0    0  0.00000000000E+00  0.00000000000E+00  0.45593999997E+02  0.45594000000E+02  0.51100000000E-03 0.  1.
         11   -1    0    0    0    0 -0.00000000000E+00 -0.00000000000E+00 -0.45593999997E+02  0.45594000000E+02  0.51100000000E-03 0. -1.
    9900012    2    1    2    0    0  0.58878109594E+01  0.16590605451E+02  0.63848954864E+01  0.72461510807E+02  0.69999922507E+02 0.  0.
         12    1    1    2    0    0 -0.58878109594E+01 -0.16590605451E+02 -0.63848954864E+01  0.18726489193E+02  0.00000000000E+00 0. -1.
         11    1    3    3    0    0  0.21127210987E+01 -0.63497035372E+01 -0.15357937589E+01  0.68659295206E+01  0.51100000000E-03 0. -1.
        -11    1    3    3    0    0  0.53735279968E+01 -0.24623465663E+01  0.30805505682E+02  0.31367453424E+02  0.51100000000E-03 0.  1.
         12    1    3    3    0    0 -0.15984381361E+01  0.25402655554E+02 -0.22884816436E+02  0.34228127863E+02  0.00000000000E+00 0. -1.
</event>
<event>
 7    1  0.2873608E-013  0.7246158E+02  0.7816164E-02  0.1226708E+00
        -11   -1    0    0    0    0  0.00000000000E+00  0.00000000000E+00  0.45593999997E+02  0.45594000000E+02  0.51100000000E-03 0. -1.
         11   -1    0    0    0    0 -0.00000000000E+00 -0.00000000000E+00 -0.45593999997E+02  0.45594000000E+02  0.51100000000E-03 0.  1.
    9900012    2    1    2    0    0 -0.13674432279E+02  0.82356090334E+01 -0.97909793364E+01  0.72461584682E+02  0.70000018742E+02 0.  0.
         12    1    1    2    0    0  0.13674432279E+02 -0.82356090334E+01  0.97909793364E+01  0.18726415318E+02  0.00000000000E+00 0. -1.
         11    1    3    3    0    0  0.52423935276E+01 -0.38830336250E+01 -0.26621897777E+02  0.27409598347E+02  0.51100000000E-03 0. -1.
        -11    1    3    3    0    0 -0.10743503137E+02 -0.81928530654E+01 -0.47383583591E+01  0.14317742182E+02  0.51100000000E-03 0.  1.
        -12    1    3    3    0    0 -0.81733226699E+01  0.20311495724E+02  0.21569276799E+02  0.30734244153E+02  0.00000000000E+00 0.  1.
</event>
<event>
 7    1  0.2873608E-013  0.7246155E+02  0.7816164E-02  0.1226708E+00
        -11   -1    0    0    0    0  0.00000000000E+00  0.00000000000E+00  0.45593999997E+02  0.45594000000E+02  0.51100000000E-03 0. -1.
         11   -1    0    0    0    0 -0.00000000000E+00 -0.00000000000E+00 -0.45593999997E+02  0.45594000000E+02  0.51100000000E-03 0.  1.
    9900012    2    1    2    0    0 -0.75844617847E+01  0.15181485807E+02 -0.79169729284E+01  0.72461547260E+02  0.69999969994E+02 0.  0.
         12    1    1    2    0    0  0.75844617847E+01 -0.15181485807E+02  0.79169729284E+01  0.18726452740E+02  0.00000000000E+00 0. -1.
         11    1    3    3    0    0  0.91313346295E+00  0.33750785960E+02 -0.53692123775E+01  0.34187392522E+02  0.51100000000E-03 0. -1.
        -11    1    3    3    0    0 -0.59962826497E+01  0.38754494183E+01 -0.11862157871E+02  0.13845046170E+02  0.51100000000E-03 0.  1.
         12    1    3    3    0    0 -0.25013125979E+01 -0.22444749571E+02  0.93143973205E+01  0.24429108569E+02  0.00000000000E+00 0. -1.
</event>
<event>
 7    1  0.2873608E-013  0.7246137E+02  0.7816164E-02  0.1226709E+00
        -11   -1    0    0    0    0  0.00000000000E+00  0.00000000000E+00  0.45593999997E+02  0.45594000000E+02  0.51100000000E-03 0. -1.
         11   -1    0    0    0    0 -0.00000000000E+00 -0.00000000000E+00 -0.45593999997E+02  0.45594000000E+02  0.51100000000E-03 0.  1.
    9900012    2    1    2    0    0 -0.75900029935E+01  0.17975488626E+01 -0.17024908646E+02  0.72461365445E+02  0.69999733145E+02 0.  0.
         12    1    1    2    0    0  0.75900029935E+01 -0.17975488626E+01  0.17024908646E+02  0.18726634555E+02  0.00000000000E+00 0. -1.
         11    1    3    3    0    0  0.15959543578E+02  0.24051989936E+02 -0.14920776633E+02  0.32493612091E+02  0.51100000000E-03 0. -1.
        -11    1    3    3    0    0 -0.13919877593E+02 -0.13811323491E+02 -0.12685872387E+02  0.23354806941E+02  0.51100000000E-03 0.  1.
        -12    1    3    3    0    0 -0.96296689790E+01 -0.84431175829E+01  0.10581740375E+02  0.16612946413E+02  0.00000000000E+00 0.  1.
</event>
<event>
 7    1  0.2873608E-013  0.7246149E+02  0.7816164E-02  0.1226708E+00
        -11   -1    0    0    0    0  0.00000000000E+00  0.00000000000E+00  0.45593999997E+02  0.45594000000E+02  0.51100000000E-03 0.  1.
         11   -1    0    0    0    0 -0.00000000000E+00 -0.00000000000E+00 -0.45593999997E+02  0.45594000000E+02  0.51100000000E-03 0. -1.
    9900012    2    1    2    0    0  0.18621729139E+02 -0.17463734434E+01  0.92927559042E+00  0.72461490196E+02  0.69999895657E+02 0.  0.
         12    1    1    2    0    0 -0.18621729139E+02  0.17463734434E+01 -0.92927559042E+00  0.18726509804E+02  0.00000000000E+00 0. -1.
         11    1    3    3    0    0 -0.91066436390E+01 -0.10765510833E+02 -0.46629841504E+01  0.14851619552E+02  0.51100000000E-03 0. -1.
        -11    1    3    3    0    0  0.15930262336E+02 -0.20225225983E+02  0.37994958189E+01  0.26024396110E+02  0.51100000000E-03 0.  1.
        -12    1    3    3    0    0  0.11798110441E+02  0.29244363373E+02  0.17927639219E+01  0.31585474534E+02  0.00000000000E+00 0.  1.
</event>
<event>
 7    1  0.2873608E-013  0.7246162E+02  0.7816164E-02  0.1226708E+00
        -11   -1    0    0    0    0  0.00000000000E+00  0.00000000000E+00  0.45593999997E+02  0.45594000000E+02  0.51100000000E-03 0.  1.
         11   -1    0    0    0    0 -0.00000000000E+00 -0.00000000000E+00 -0.45593999997E+02  0.45594000000E+02  0.51100000000E-03 0. -1.
    9900012    2    1    2    0    0  0.34708136958E-01 -0.39392762978E+01  0.18307330491E+02  0.72461616150E+02  0.70000059735E+02 0.  0.
         12    1    1    2    0    0 -0.34708136958E-01  0.39392762978E+01 -0.18307330491E+02  0.18726383850E+02  0.00000000000E+00 0. -1.
         11    1    3    3    0    0  0.20125156352E+01  0.91159798601E+01  0.83044311686E+01  0.12494594243E+02  0.51100000000E-03 0. -1.
        -11    1    3    3    0    0  0.53112808300E+01  0.66106164938E+01  0.29886697153E+02  0.31066454923E+02  0.51100000000E-03 0.  1.
         12    1    3    3    0    0 -0.72890883283E+01 -0.19665872652E+02 -0.19883797831E+02  0.28900566984E+02  0.00000000000E+00 0. -1.
</event>
<event>
 7    1  0.2873608E-013  0.7246160E+02  0.7816164E-02  0.1226708E+00
        -11   -1    0    0    0    0  0.00000000000E+00  0.00000000000E+00  0.45593999997E+02  0.45594000000E+02  0.51100000000E-03 0.  1.
         11   -1    0    0    0    0 -0.00000000000E+00 -0.00000000000E+00 -0.45593999997E+02  0.45594000000E+02  0.51100000000E-03 0. -1.
    9900012    2    1    2    0    0  0.12910618656E+02 -0.24192558143E+01  0.13346960516E+02  0.72461595438E+02  0.70000032754E+02 0.  0.
         12    1    1    2    0    0 -0.12910618656E+02  0.24192558143E+01 -0.13346960516E+02  0.18726404562E+02  0.00000000000E+00 0. -1.
         11    1    3    3    0    0  0.10233115595E+02 -0.28070179525E+01 -0.23915332526E+01  0.10877289926E+02  0.51100000000E-03 0. -1.
        -11    1    3    3    0    0  0.16488215474E+02  0.25798651575E+02  0.81989441787E+01  0.31696283039E+02  0.51100000000E-03 0.  1.
         12    1    3    3    0    0 -0.13810712413E+02 -0.25410889437E+02  0.75395495903E+01  0.29888022473E+02  0.00000000000E+00 0. -1.
</event>
<event>
 7    1  0.2873608E-013  0.7246160E+02  0.7816164E-02  0.1226708E+00
        -11   -1    0    0    0    0  0.00000000000E+00  0.00000000000E+00  0.45593999997E+02  0.45594000000E+02  0.51100000000E-03 0.  1.
         11   -1    0    0    0    0 -0.00000000000E+00 -0.00000000000E+00 -0.45593999997E+02  0.45594000000E+02  0.51100000000E-03 0. -1.
    9900012    2    1    2    0    0  0.55656551909E+00 -0.75804960137E+01  0.17114451582E+02  0.72461597837E+02  0.70000035880E+02 0.  0.
         12    1    1    2    0    0 -0.55656551909E+00  0.75804960137E+01 -0.17114451582E+02  0.18726402163E+02  0.00000000000E+00 0. -1.
         11    1    3    3    0    0 -0.15324195793E+01  0.75926161217E+01 -0.24041764941E+02  0.25258713172E+02  0.51100000000E-03 0. -1.
        -11    1    3    3    0    0  0.22796592709E+01 -0.70244224975E+01  0.26542175499E+01  0.78475619703E+01  0.51100000000E-03 0.  1.
        -12    1    3    3    0    0 -0.19067417247E+00 -0.81486896379E+01  0.38501998974E+02  0.39355322695E+02  0.00000000000E+00 0.  1.
</event>
<event>
 7    1  0.2873608E-013  0.7246140E+02  0.7816164E-02  0.1226708E+00
        -11   -1    0    0    0    0  0.00000000000E+00  0.00000000000E+00  0.45593999997E+02  0.45594000000E+02  0.51100000000E-03 0.  1.
         11   -1    0    0    0    0 -0.00000000000E+00 -0.00000000000E+00 -0.45593999997E+02  0.45594000000E+02  0.51100000000E-03 0. -1.
    9900012    2    1    2    0    0 -0.81776188310E+01  0.16784917894E+02  0.14417881888E+01  0.72461396687E+02  0.69999773844E+02 0.  0.
         12    1    1    2    0    0  0.81776188310E+01 -0.16784917894E+02 -0.14417881888E+01  0.18726603313E+02  0.00000000000E+00 0. -1.
         11    1    3    3    0    0  0.31908454930E+01  0.39278747458E+01 -0.17278416624E+02  0.18004259948E+02  0.51100000000E-03 0. -1.
        -11    1    3    3    0    0 -0.17425633026E+02 -0.10884029408E+02 -0.41272514094E+01  0.20955881918E+02  0.51100000000E-03 0.  1.
         12    1    3    3    0    0  0.60571687016E+01  0.23741072556E+02  0.22847456222E+02  0.33501254821E+02  0.00000000000E+00 0. -1.
</event>
<event>
 7    1  0.2873608E-013  0.7246168E+02  0.7816164E-02  0.1226708E+00
        -11   -1    0    0    0    0  0.00000000000E+00  0.00000000000E+00  0.45593999997E+02  0.45594000000E+02  0.51100000000E-03 0. -1.
         11   -1    0    0    0    0 -0.00000000000E+00 -0.00000000000E+00 -0.45593999997E+02  0.45594000000E+02  0.51100000000E-03 0.  1.
    9900012    2    1    2    0    0 -0.61611215546E+01 -0.17632945265E+02 -0.13397894037E+01  0.72461675930E+02  0.70000137610E+02 0.  0.
         12    1    1    2    0    0  0.61611215546E+01  0.17632945265E+02  0.13397894037E+01  0.18726324070E+02  0.00000000000E+00 0. -1.
         11    1    3    3    0    0  0.97334510279E+00  0.20609936505E+02  0.55657052753E+01  0.21370399128E+02  0.51100000000E-03 0. -1.
        -11    1    3    3    0    0 -0.92126279559E+01  0.17864331767E+01  0.29075321869E+01  0.98243371801E+01  0.51100000000E-03 0.  1.
        -12    1    3    3    0    0  0.20781612985E+01 -0.40029314947E+02 -0.98130268659E+01  0.41266939622E+02  0.00000000000E+00 0.  1.
</event>
<event>
 7    1  0.2873608E-013  0.7246158E+02  0.7816164E-02  0.1226708E+00
        -11   -1    0    0    0    0  0.00000000000E+00  0.00000000000E+00  0.45593999997E+02  0.45594000000E+02  0.51100000000E-03 0.  1.
         11   -1    0    0    0    0 -0.00000000000E+00 -0.00000000000E+00 -0.45593999997E+02  0.45594000000E+02  0.51100000000E-03 0. -1.
    9900012    2    1    2    0    0 -0.87527275790E+01 -0.98964446452E+01  0.13271363558E+02  0.72461576226E+02  0.70000007727E+02 0.  0.
         12    1    1    2    0    0  0.87527275790E+01  0.98964446452E+01 -0.13271363558E+02  0.18726423774E+02  0.00000000000E+00 0. -1.
         11    1    3    3    0    0  0.13613662258E+01 -0.53449724326E+01  0.64676784144E+01  0.85001713300E+01  0.51100000000E-03 0. -1.
        -11    1    3    3    0    0 -0.15865385472E+02 -0.31897533224E+02  0.47693126881E+01  0.35943141567E+02  0.51100000000E-03 0.  1.
         12    1    3    3    0    0  0.57512916667E+01  0.27346061011E+02  0.20343724555E+01  0.28018263329E+02  0.00000000000E+00 0. -1.
</event>
<event>
 7    1  0.2873608E-013  0.7246155E+02  0.7816164E-02  0.1226708E+00
        -11   -1    0    0    0    0  0.00000000000E+00  0.00000000000E+00  0.45593999997E+02  0.45594000000E+02  0.51100000000E-03 0. -1.
         11   -1    0    0    0    0 -0.00000000000E+00 -0.00000000000E+00 -0.45593999997E+02  0.45594000000E+02  0.51100000000E-03 0.  1.
    9900012    2    1    2    0    0  0.35950955704E+01 -0.13873230396E+02 -0.12053582453E+02  0.72461545885E+02  0.69999968202E+02 0.  0.
         12    1    1    2    0    0 -0.35950955704E+01  0.13873230396E+02  0.12053582453E+02  0.18726454115E+02  0.00000000000E+00 0. -1.
         11    1    3    3    0    0 -0.70600394432E+01  0.32463014960E+01 -0.20362004859E+01  0.80329784652E+01  0.51100000000E-03 0. -1.
        -11    1    3    3    0    0  0.41696654362E+01  0.19749292928E+02 -0.16949453422E+02  0.26357250474E+02  0.51100000000E-03 0.  1.
         12    1    3    3    0    0  0.64854695774E+01 -0.36868824820E+02  0.69320714549E+01  0.38071316945E+02  0.00000000000E+00 0. -1.
</event>
<event>
 7    1  0.2873608E-013  0.7246143E+02  0.7816164E-02  0.1226708E+00
        -11   -1    0    0    0    0  0.00000000000E+00  0.00000000000E+00  0.45593999997E+02  0.45594000000E+02  0.51100000000E-03 0. -1.
         11   -1    0    0    0    0 -0.00000000000E+00 -0.00000000000E+00 -0.45593999997E+02  0.45594000000E+02  0.51100000000E-03 0.  1.
    9900012    2    1    2    0    0  0.32393546225E+01  0.99335462765E+01 -0.15540768257E+02  0.72461434965E+02  0.69999823708E+02 0.  0.
         12    1    1    2    0    0 -0.32393546225E+01 -0.99335462765E+01  0.15540768257E+02  0.18726565035E+02  0.00000000000E+00 0. -1.
         11    1    3    3    0    0  0.41490467166E+00 -0.87021674396E+01 -0.27410579888E+01  0.91330861811E+01  0.51100000000E-03 0. -1.
        -11    1    3    3    0    0  0.82088696058E+01 -0.13529568345E+02 -0.24084443538E+02  0.28818313286E+02  0.51100000000E-03 0.  1.
         12    1    3    3    0    0 -0.53844196549E+01  0.32165282061E+02  0.11284733270E+02  0.34510035498E+02  0.00000000000E+00 0. -1.
</event>
<event>
 7    1  0.2873608E-013  0.7246158E+02  0.7816164E-02  0.1226708E+00
        -11   -1    0    0    0    0  0.00000000000E+00  0.00000000000E+00  0.45593999997E+02  0.45594000000E+02  0.51100000000E-03 0.  1.
         11   -1    0    0    0    0 -0.00000000000E+00 -0.00000000000E+00 -0.45593999997E+02  0.45594000000E+02  0.51100000000E-03 0. -1.
    9900012    2    1    2    0    0  0.18677923380E+02  0.28855628120E-02 -0.13469036974E+01  0.72461575363E+02  0.70000006603E+02 0.  0.
         12    1    1    2    0    0 -0.18677923380E+02 -0.28855628120E-02  0.13469036974E+01  0.18726424637E+02  0.00000000000E+00 0. -1.
         11    1    3    3    0    0  0.54682913550E+01 -0.17712197235E+02 -0.94424897357E+01  0.20803479370E+02  0.51100000000E-03 0. -1.
        -11    1    3    3    0    0  0.17628055454E+02  0.16349126096E+02 -0.14844816769E+02  0.28256164785E+02  0.51100000000E-03 0.  1.
         12    1    3    3    0    0 -0.44184234288E+01  0.13659567017E+01  0.22940402807E+02  0.23401931208E+02  0.00000000000E+00 0. -1.
</event>
<event>
 7    1  0.2873608E-013  0.7246162E+02  0.7816164E-02  0.1226708E+00
        -11   -1    0    0    0    0  0.00000000000E+00  0.00000000000E+00  0.45593999997E+02  0.45594000000E+02  0.51100000000E-03 0. -1.
         11   -1    0    0    0    0 -0.00000000000E+00 -0.00000000000E+00 -0.45593999997E+02  0.45594000000E+02  0.51100000000E-03 0.  1.
    9900012    2    1    2    0    0 -0.16885967424E+02 -0.13896182669E+01 -0.79756118634E+01  0.72461619694E+02  0.70000064352E+02 0.  0.
         12    1    1    2    0    0  0.16885967424E+02  0.13896182669E+01  0.79756118634E+01  0.18726380306E+02  0.00000000000E+00 0. -1.
         11    1    3    3    0    0 -0.53448405914E+00 -0.25157369767E+01  0.10632302637E+02  0.10938942607E+02  0.51100000000E-03 0.  1.
        -11    1    3    3    0    0  0.17501513335E+02  0.13988953513E+02 -0.63023343184E+01  0.23274733243E+02  0.51100000000E-03 0. -1.
        -12    1    3    3    0    0 -0.33852996700E+02 -0.12862834803E+02 -0.12305580182E+02  0.38247943844E+02  0.00000000000E+00 0.  1.
</event>
<event>
 7    1  0.2873608E-013  0.7246153E+02  0.7816164E-02  0.1226708E+00
        -11   -1    0    0    0    0  0.00000000000E+00  0.00000000000E+00  0.45593999997E+02  0.45594000000E+02  0.51100000000E-03 0.  1.
         11   -1    0    0    0    0 -0.00000000000E+00 -0.00000000000E+00 -0.45593999997E+02  0.45594000000E+02  0.51100000000E-03 0. -1.
    9900012    2    1    2    0    0 -0.11077922896E+02 -0.12462546102E+02 -0.85232140037E+01  0.72461531887E+02  0.69999949968E+02 0.  0.
         12    1    1    2    0    0  0.11077922896E+02  0.12462546102E+02  0.85232140037E+01  0.18726468113E+02  0.00000000000E+00 0. -1.
         11    1    3    3    0    0 -0.18440343028E+02  0.16532636492E+01 -0.31090203499E+01  0.18773532952E+02  0.51100000000E-03 0.  1.
        -11    1    3    3    0    0 -0.23796688719E+01 -0.19121259617E+02  0.18918659480E+02  0.27003723263E+02  0.51100000000E-03 0. -1.
         12    1    3    3    0    0  0.97420890046E+01  0.50054498655E+01 -0.24332853134E+02  0.26684275673E+02  0.00000000000E+00 0. -1.
</event>
<event>
 7    1  0.2873608E-013  0.7246147E+02  0.7816164E-02  0.1226708E+00
        -11   -1    0    0    0    0  0.00000000000E+00  0.00000000000E+00  0.45593999997E+02  0.45594000000E+02  0.51100000000E-03 0. -1.
         11   -1    0    0    0    0 -0.00000000000E+00 -0.00000000000E+00 -0.45593999997E+02  0.45594000000E+02  0.51100000000E-03 0.  1.
    9900012    2    1    2    0    0 -0.10285361644E+02 -0.55721114908E+01  0.14623470709E+02  0.72461468388E+02  0.69999867248E+02 0.  0.
         12    1    1    2    0    0  0.10285361644E+02  0.55721114908E+01 -0.14623470709E+02  0.18726531612E+02  0.00000000000E+00 0. -1.
         11    1    3    3    0    0 -0.19854624468E+02  0.16353388436E+02  0.23417875793E+02  0.34785576508E+02  0.51100000000E-03 0. -1.
        -11    1    3    3    0    0  0.42511234700E+00  0.61653920012E+01  0.15569007373E+01  0.63731247598E+01  0.51100000000E-03 0.  1.
        -12    1    3    3    0    0  0.91441504763E+01 -0.28090891928E+02 -0.10351305821E+02  0.31302767121E+02  0.00000000000E+00 0.  1.
</event>
<event>
 7    1  0.2873608E-013  0.7246157E+02  0.7816164E-02  0.1226708E+00
        -11   -1    0    0    0    0  0.00000000000E+00  0.00000000000E+00  0.45593999997E+02  0.45594000000E+02  0.51100000000E-03 0.  1.
         11   -1    0    0    0    0 -0.00000000000E+00 -0.00000000000E+00 -0.45593999997E+02  0.45594000000E+02  0.51100000000E-03 0. -1.
    9900012    2    1    2    0    0 -0.93555530215E+01  0.64438686093E+01  0.14887218877E+02  0.72461572127E+02  0.70000002388E+02 0.  0.
         12    1    1    2    0    0  0.93555530215E+01 -0.64438686093E+01 -0.14887218877E+02  0.18726427873E+02  0.00000000000E+00 0. -1.
         11    1    3    3    0    0  0.87196968764E+01 -0.48765750510E+01  0.19782963463E+02  0.22162575245E+02  0.51100000000E-03 0.  1.
        -11    1    3    3    0    0  0.60304732913E+01 -0.13766689000E+02  0.76938488045E+00  0.15049262025E+02  0.51100000000E-03 0. -1.
         12    1    3    3    0    0 -0.24105723189E+02  0.25087132661E+02 -0.56651294668E+01  0.35249734857E+02  0.00000000000E+00 0. -1.
</event>
<event>
 7    1  0.2873608E-013  0.7246156E+02  0.7816164E-02  0.1226708E+00
        -11   -1    0    0    0    0  0.00000000000E+00  0.00000000000E+00  0.45593999997E+02  0.45594000000E+02  0.51100000000E-03 0. -1.
         11   -1    0    0    0    0 -0.00000000000E+00 -0.00000000000E+00 -0.45593999997E+02  0.45594000000E+02  0.51100000000E-03 0.  1.
    9900012    2    1    2    0    0  0.10640213622E+02  0.11269033907E+02 -0.10510666836E+02  0.72461564448E+02  0.69999992385E+02 0.  0.
         12    1    1    2    0    0 -0.10640213622E+02 -0.11269033907E+02  0.10510666836E+02  0.18726435552E+02  0.00000000000E+00 0. -1.
         11    1    3    3    0    0 -0.29309239622E+01 -0.14416843368E+02 -0.18373322280E+01  0.14826040535E+02  0.51100000000E-03 0. -1.
        -11    1    3    3    0    0  0.14801793993E+02 -0.21915655030E+01 -0.22083888337E+02  0.26675722842E+02  0.51100000000E-03 0.  1.
         12    1    3    3    0    0 -0.12306564088E+01  0.27877442779E+02  0.13410553729E+02  0.30959801072E+02  0.00000000000E+00 0. -1.
</event>
<event>
 7    1  0.2873608E-013  0.7246158E+02  0.7816164E-02  0.1226708E+00
        -11   -1    0    0    0    0  0.00000000000E+00  0.00000000000E+00  0.45593999997E+02  0.45594000000E+02  0.51100000000E-03 0.  1.
         11   -1    0    0    0    0 -0.00000000000E+00 -0.00000000000E+00 -0.45593999997E+02  0.45594000000E+02  0.51100000000E-03 0. -1.
    9900012    2    1    2    0    0 -0.78008032602E+01  0.13332725711E+01  0.16971997850E+02  0.72461578604E+02  0.70000010825E+02 0.  0.
         12    1    1    2    0    0  0.78008032602E+01 -0.13332725711E+01 -0.16971997850E+02  0.18726421396E+02  0.00000000000E+00 0. -1.
         11    1    3    3    0    0 -0.11572136918E+01  0.46292002498E+00  0.30054007599E+01  0.32535937772E+01  0.51100000000E-03 0. -1.
        -11    1    3    3    0    0 -0.29979076671E+02 -0.18274527037E+02 -0.17966196899E+01  0.35155813446E+02  0.51100000000E-03 0.  1.
         12    1    3    3    0    0  0.23335487102E+02  0.19144879583E+02  0.15763216780E+02  0.34052171382E+02  0.00000000000E+00 0. -1.
</event>
<event>
 7    1  0.2873608E-013  0.7246160E+02  0.7816164E-02  0.1226708E+00
        -11   -1    0    0    0    0  0.00000000000E+00  0.00000000000E+00  0.45593999997E+02  0.45594000000E+02  0.51100000000E-03 0.  1.
         11   -1    0    0    0    0 -0.00000000000E+00 -0.00000000000E+00 -0.45593999997E+02  0.45594000000E+02  0.51100000000E-03 0. -1.
    9900012    2    1    2    0    0  0.57921012178E+01  0.10752817955E+02 -0.14195305241E+02  0.72461595611E+02  0.70000032979E+02 0.  0.
         12    1    1    2    0    0 -0.57921012178E+01 -0.10752817955E+02  0.14195305241E+02  0.18726404389E+02  0.00000000000E+00 0. -1.
         11    1    3    3    0    0  0.15771355084E+02 -0.88165769296E+01 -0.78092877533E+01  0.19683816841E+02  0.51100000000E-03 0. -1.
        -11    1    3    3    0    0  0.14465359587E+02  0.98498453031E+01 -0.17012208729E+02  0.24406583672E+02  0.51100000000E-03 0.  1.
        -12    1    3    3    0    0 -0.24444613453E+02  0.97195495811E+01  0.10626191242E+02  0.28371195097E+02  0.00000000000E+00 0.  1.
</event>
<event>
 7    1  0.2873608E-013  0.7246153E+02  0.7816164E-02  0.1226708E+00
        -11   -1    0    0    0    0  0.00000000000E+00  0.00000000000E+00  0.45593999997E+02  0.45594000000E+02  0.51100000000E-03 0.  1.
         11   -1    0    0    0    0 -0.00000000000E+00 -0.00000000000E+00 -0.45593999997E+02  0.45594000000E+02  0.51100000000E-03 0. -1.
    9900012    2    1    2    0    0 -0.83576037265E+01 -0.10181267032E+02  0.13310628163E+02  0.72461533154E+02  0.69999951618E+02 0.  0.
         12    1    1    2    0    0  0.83576037265E+01  0.10181267032E+02 -0.13310628163E+02  0.18726466846E+02  0.00000000000E+00 0. -1.
         11    1    3    3    0    0 -0.65167355664E+01  0.28966794703E+01 -0.17557311883E+01  0.73444663974E+01  0.51100000000E-03 0. -1.
        -11    1    3    3    0    0 -0.10263318158E+02  0.17844616920E+02  0.24220035113E+02  0.31786414610E+02  0.51100000000E-03 0.  1.
         12    1    3    3    0    0  0.84224499976E+01 -0.30922563422E+02 -0.91536757620E+01  0.33330652147E+02  0.00000000000E+00 0. -1.
</event>
<event>
 7    1  0.2873608E-013  0.7246159E+02  0.7816164E-02  0.1226708E+00
        -11   -1    0    0    0    0  0.00000000000E+00  0.00000000000E+00  0.45593999997E+02  0.45594000000E+02  0.51100000000E-03 0. -1.
         11   -1    0    0    0    0 -0.00000000000E+00 -0.00000000000E+00 -0.45593999997E+02  0.45594000000E+02  0.51100000000E-03 0.  1.
    9900012    2    1    2    0    0 -0.17832319163E+02 -0.55092888785E+01  0.15279204405E+01  0.72461590532E+02  0.70000026363E+02 0.  0.
         12    1    1    2    0    0  0.17832319163E+02  0.55092888785E+01 -0.15279204405E+01  0.18726409468E+02  0.00000000000E+00 0. -1.
         11    1    3    3    0    0 -0.13764352221E+02  0.34382004782E+01  0.21780935892E+02  0.25993995137E+02  0.51100000000E-03 0. -1.
        -11    1    3    3    0    0 -0.20133865479E+02 -0.14309742236E+02 -0.14134441999E+02  0.28459158682E+02  0.51100000000E-03 0.  1.
        -12    1    3    3    0    0  0.16065898537E+02  0.53622528797E+01 -0.61185734525E+01  0.18008436713E+02  0.00000000000E+00 0.  1.
</event>
<event>
 7    1  0.2873608E-013  0.7246158E+02  0.7816164E-02  0.1226708E+00
        -11   -1    0    0    0    0  0.00000000000E+00  0.00000000000E+00  0.45593999997E+02  0.45594000000E+02  0.51100000000E-03 0.  1.
         11   -1    0    0    0    0 -0.00000000000E+00 -0.00000000000E+00 -0.45593999997E+02  0.45594000000E+02  0.51100000000E-03 0. -1.
    9900012    2    1    2    0    0 -0.18643746645E+02  0.15815284399E+01  0.76688970606E+00  0.72461584406E+02  0.70000018383E+02 0.  0.
         12    1    1    2    0    0  0.18643746645E+02 -0.15815284399E+01 -0.76688970606E+00  0.18726415594E+02  0.00000000000E+00 0. -1.
         11    1    3    3    0    0 -0.49668693557E+01  0.12087108250E+02  0.42800616826E+01  0.13750887437E+02  0.51100000000E-03 0. -1.
        -11    1    3    3    0    0 -0.24486274946E+02  0.12151765526E+02  0.11280940759E+02  0.29571991661E+02  0.51100000000E-03 0.  1.
         12    1    3    3    0    0  0.10809397657E+02 -0.22657345336E+02 -0.14794112736E+02  0.29138705308E+02  0.00000000000E+00 0. -1.
</event>
<event>
 7    1  0.2873608E-013  0.7246153E+02  0.7816164E-02  0.1226708E+00
        -11   -1    0    0    0    0  0.00000000000E+00  0.00000000000E+00  0.45593999997E+02  0.45594000000E+02  0.51100000000E-03 0.  1.
         11   -1    0    0    0    0 -0.00000000000E+00 -0.00000000000E+00 -0.45593999997E+02  0.45594000000E+02  0.51100000000E-03 0. -1.
    9900012    2    1    2    0    0  0.72595971810E+00  0.12255217114E+02  0.14140844027E+02  0.72461525857E+02  0.69999942112E+02 0.  0.
         12    1    1    2    0    0 -0.72595971810E+00 -0.12255217114E+02 -0.14140844027E+02  0.18726474143E+02  0.00000000000E+00 0. -1.
         11    1    3    3    0    0 -0.98609020187E+01  0.36743915907E+01 -0.13131849964E+02  0.16828072555E+02  0.51100000000E-03 0. -1.
        -11    1    3    3    0    0 -0.25277825507E+00  0.25908093288E+02  0.69824729374E+01  0.26833712439E+02  0.51100000000E-03 0.  1.
         12    1    3    3    0    0  0.10839639992E+02 -0.17327267765E+02  0.20290221054E+02  0.28799740863E+02  0.00000000000E+00 0. -1.
</event>
<event>
 7    1  0.2873608E-013  0.7246161E+02  0.7816164E-02  0.1226708E+00
        -11   -1    0    0    0    0  0.00000000000E+00  0.00000000000E+00  0.45593999997E+02  0.45594000000E+02  0.51100000000E-03 0.  1.
         11   -1    0    0    0    0 -0.00000000000E+00 -0.00000000000E+00 -0.45593999997E+02  0.45594000000E+02  0.51100000000E-03 0. -1.
    9900012    2    1    2    0    0  0.13363779236E+02 -0.11754313415E+02 -0.58243630395E+01  0.72461609955E+02  0.70000051665E+02 0.  0.
         12    1    1    2    0    0 -0.13363779236E+02  0.11754313415E+02  0.58243630395E+01  0.18726390045E+02  0.00000000000E+00 0. -1.
         11    1    3    3    0    0  0.66638730363E+01  0.44561784322E+01  0.70394830086E+01  0.10668601190E+02  0.51100000000E-03 0. -1.
        -11    1    3    3    0    0  0.37557206940E+01  0.20998595598E+02  0.24016618138E+01  0.21466588801E+02  0.51100000000E-03 0.  1.
         12    1    3    3    0    0  0.29441855053E+01 -0.37209087445E+02 -0.15265507862E+02  0.40326419964E+02  0.00000000000E+00 0. -1.
</event>
<event>
 7    1  0.2873608E-013  0.7246155E+02  0.7816164E-02  0.1226708E+00
        -11   -1    0    0    0    0  0.00000000000E+00  0.00000000000E+00  0.45593999997E+02  0.45594000000E+02  0.51100000000E-03 0.  1.
         11   -1    0    0    0    0 -0.00000000000E+00 -0.00000000000E+00 -0.45593999997E+02  0.45594000000E+02  0.51100000000E-03 0. -1.
    9900012    2    1    2    0    0  0.31095524532E+00 -0.99536302799E+01  0.15859024013E+02  0.72461545676E+02  0.69999967930E+02 0.  0.
         12    1    1    2    0    0 -0.31095524532E+00  0.99536302799E+01 -0.15859024013E+02  0.18726454324E+02  0.00000000000E+00 0. -1.
         11    1    3    3    0    0  0.24507939983E+02  0.13433761747E+02 -0.48489222519E+01  0.28365773816E+02  0.51100000000E-03 0. -1.
        -11    1    3    3    0    0  0.29257841704E+01 -0.34686145339E+01  0.56027533629E+01  0.72098783140E+01  0.51100000000E-03 0.  1.
        -12    1    3    3    0    0 -0.27122768908E+02 -0.19918777493E+02  0.15105192902E+02  0.36885893546E+02  0.00000000000E+00 0.  1.
</event>
<event>
 7    1  0.2873608E-013  0.7246150E+02  0.7816164E-02  0.1226708E+00
        -11   -1    0    0    0    0  0.00000000000E+00  0.00000000000E+00  0.45593999997E+02  0.45594000000E+02  0.51100000000E-03 0.  1.
         11   -1    0    0    0    0 -0.00000000000E+00 -0.00000000000E+00 -0.45593999997E+02  0.45594000000E+02  0.51100000000E-03 0. -1.
    9900012    2    1    2    0    0 -0.47561897576E+01 -0.10748898087E+02  0.14578122859E+02  0.72461499602E+02  0.69999907909E+02 0.  0.
         12    1    1    2    0    0  0.47561897576E+01  0.10748898087E+02 -0.14578122859E+02  0.18726500398E+02  0.00000000000E+00 0. -1.
         11    1    3    3    0    0  0.17304629468E+02 -0.10927997538E+02 -0.62000053329E+01  0.21384840369E+02  0.51100000000E-03 0. -1.
        -11    1    3    3    0    0  0.71576967397E+01 -0.10180300669E+02  0.15088101877E+02  0.19558168699E+02  0.51100000000E-03 0.  1.
        -12    1    3    3    0    0 -0.29218515965E+02  0.10359400121E+02  0.56900263143E+01  0.31518490534E+02  0.00000000000E+00 0.  1.
</event>
<event>
 7    1  0.2873608E-013  0.7246153E+02  0.7816164E-02  0.1226708E+00
        -11   -1    0    0    0    0  0.00000000000E+00  0.00000000000E+00  0.45593999997E+02  0.45594000000E+02  0.51100000000E-03 0.  1.
         11   -1    0    0    0    0 -0.00000000000E+00 -0.00000000000E+00 -0.45593999997E+02  0.45594000000E+02  0.51100000000E-03 0. -1.
    9900012    2    1    2    0    0 -0.75239626489E+01  0.37287631394E+01  0.16738189559E+02  0.72461530012E+02  0.69999947525E+02 0.  0.
         12    1    1    2    0    0  0.75239626489E+01 -0.37287631394E+01 -0.16738189559E+02  0.18726469988E+02  0.00000000000E+00 0. -1.
         11    1    3    3    0    0 -0.11553646453E+02 -0.17678838189E+02  0.21619240532E+02  0.30222832883E+02  0.51100000000E-03 0. -1.
        -11    1    3    3    0    0 -0.81800332616E+01  0.65268305325E+01 -0.16658467579E+02  0.19672747731E+02  0.51100000000E-03 0.  1.
        -12    1    3    3    0    0  0.12209717066E+02  0.14880770796E+02  0.11777416606E+02  0.22565949398E+02  0.00000000000E+00 0.  1.
</event>
<event>
 7    1  0.2873608E-013  0.7246152E+02  0.7816164E-02  0.1226708E+00
        -11   -1    0    0    0    0  0.00000000000E+00  0.00000000000E+00  0.45593999997E+02  0.45594000000E+02  0.51100000000E-03 0.  1.
         11   -1    0    0    0    0 -0.00000000000E+00 -0.00000000000E+00 -0.45593999997E+02  0.45594000000E+02  0.51100000000E-03 0. -1.
    9900012    2    1    2    0    0  0.14373990775E+02  0.80410554510E+01  0.89112756780E+01  0.72461520945E+02  0.69999935714E+02 0.  0.
         12    1    1    2    0    0 -0.14373990775E+02 -0.80410554510E+01 -0.89112756780E+01  0.18726479055E+02  0.00000000000E+00 0. -1.
         11    1    3    3    0    0  0.35842973416E+02  0.14709219696E+02  0.14322724476E+02  0.41306419889E+02  0.51100000000E-03 0. -1.
        -11    1    3    3    0    0 -0.47468621531E+01  0.48979319237E+01  0.48604811835E+01  0.83753635757E+01  0.51100000000E-03 0.  1.
        -12    1    3    3    0    0 -0.16722120487E+02 -0.11566096168E+02 -0.10271929981E+02  0.22779737481E+02  0.00000000000E+00 0.  1.
</event>
<event>
 7    1  0.2873608E-013  0.7246156E+02  0.7816164E-02  0.1226708E+00
        -11   -1    0    0    0    0  0.00000000000E+00  0.00000000000E+00  0.45593999997E+02  0.45594000000E+02  0.51100000000E-03 0. -1.
         11   -1    0    0    0    0 -0.00000000000E+00 -0.00000000000E+00 -0.45593999997E+02  0.45594000000E+02  0.51100000000E-03 0.  1.
    9900012    2    1    2    0    0 -0.40984960392E+00 -0.83213809684E+01 -0.16770990124E+02  0.72461562334E+02  0.69999989630E+02 0.  0.
         12    1    1    2    0    0  0.40984960392E+00  0.83213809684E+01  0.16770990124E+02  0.18726437666E+02  0.00000000000E+00 0. -1.
         11    1    3    3    0    0 -0.20827820731E+02 -0.93077678178E+01  0.88911834372E+01  0.24484399141E+02  0.51100000000E-03 0. -1.
        -11    1    3    3    0    0 -0.77049781915E+01 -0.52880923383E+01 -0.14130045243E+02  0.16940743441E+02  0.51100000000E-03 0.  1.
         12    1    3    3    0    0  0.28122949318E+02  0.62744791877E+01 -0.11532128319E+02  0.31036419752E+02  0.00000000000E+00 0. -1.
</event>
<event>
 7    1  0.2873608E-013  0.7246160E+02  0.7816164E-02  0.1226708E+00
        -11   -1    0    0    0    0  0.00000000000E+00  0.00000000000E+00  0.45593999997E+02  0.45594000000E+02  0.51100000000E-03 0.  1.
         11   -1    0    0    0    0 -0.00000000000E+00 -0.00000000000E+00 -0.45593999997E+02  0.45594000000E+02  0.51100000000E-03 0. -1.
    9900012    2    1    2    0    0 -0.10020814663E+02 -0.41723931236E+01  0.15259508858E+02  0.72461596141E+02  0.70000033671E+02 0.  0.
         12    1    1    2    0    0  0.10020814663E+02  0.41723931236E+01 -0.15259508858E+02  0.18726403859E+02  0.00000000000E+00 0. -1.
         11    1    3    3    0    0 -0.12094363176E+02 -0.80026726132E+01  0.24874242722E+02  0.28793130099E+02  0.51100000000E-03 0. -1.
        -11    1    3    3    0    0 -0.93820868135E+01  0.48415503031E+01  0.13921995041E+02  0.17472438539E+02  0.51100000000E-03 0.  1.
         12    1    3    3    0    0  0.11455635327E+02 -0.10112708135E+01 -0.23536728906E+02  0.26196027504E+02  0.00000000000E+00 0. -1.
</event>
<event>
 7    1  0.2873608E-013  0.7246157E+02  0.7816164E-02  0.1226708E+00
        -11   -1    0    0    0    0  0.00000000000E+00  0.00000000000E+00  0.45593999997E+02  0.45594000000E+02  0.51100000000E-03 0.  1.
         11   -1    0    0    0    0 -0.00000000000E+00 -0.00000000000E+00 -0.45593999997E+02  0.45594000000E+02  0.51100000000E-03 0. -1.
    9900012    2    1    2    0    0  0.10543413455E+01 -0.18378252103E+02 -0.34361708115E+01  0.72461573328E+02  0.70000003952E+02 0.  0.
         12    1    1    2    0    0 -0.10543413455E+01  0.18378252103E+02  0.34361708115E+01  0.18726426672E+02  0.00000000000E+00 0. -1.
         11    1    3    3    0    0 -0.25864408453E+01 -0.17106669836E+02 -0.65828644871E+01  0.18511130010E+02  0.51100000000E-03 0. -1.
        -11    1    3    3    0    0 -0.22944874778E+01 -0.27101135076E+02  0.36568803309E+01  0.27442830926E+02  0.51100000000E-03 0.  1.
         12    1    3    3    0    0  0.59352696686E+01  0.25829552809E+02 -0.51018665523E+00  0.26507612393E+02  0.00000000000E+00 0. -1.
</event>
<event>
 7    1  0.2873608E-013  0.7246160E+02  0.7816164E-02  0.1226708E+00
        -11   -1    0    0    0    0  0.00000000000E+00  0.00000000000E+00  0.45593999997E+02  0.45594000000E+02  0.51100000000E-03 0.  1.
         11   -1    0    0    0    0 -0.00000000000E+00 -0.00000000000E+00 -0.45593999997E+02  0.45594000000E+02  0.51100000000E-03 0. -1.
    9900012    2    1    2    0    0  0.15792919326E+02  0.14801167857E+01  0.99534391258E+01  0.72461601602E+02  0.70000040784E+02 0.  0.
         12    1    1    2    0    0 -0.15792919326E+02 -0.14801167857E+01 -0.99534391258E+01  0.18726398398E+02  0.00000000000E+00 0. -1.
         11    1    3    3    0    0  0.20654253106E+02 -0.10946055343E+02 -0.17220233477E+02  0.29033613971E+02  0.51100000000E-03 0. -1.
        -11    1    3    3    0    0  0.11523171928E+02  0.10546346574E+02  0.63438253604E+01  0.16859805391E+02  0.51100000000E-03 0.  1.
        -12    1    3    3    0    0 -0.16384505708E+02  0.18798255543E+01  0.20829847243E+02  0.26568182240E+02  0.00000000000E+00 0.  1.
</event>
<event>
 7    1  0.2873608E-013  0.7246163E+02  0.7816164E-02  0.1226708E+00
        -11   -1    0    0    0    0  0.00000000000E+00  0.00000000000E+00  0.45593999997E+02  0.45594000000E+02  0.51100000000E-03 0.  1.
         11   -1    0    0    0    0 -0.00000000000E+00 -0.00000000000E+00 -0.45593999997E+02  0.45594000000E+02  0.51100000000E-03 0. -1.
    9900012    2    1    2    0    0  0.68491494550E+01 -0.54644878816E+01  0.16550085344E+02  0.72461633536E+02  0.70000082384E+02 0.  0.
         12    1    1    2    0    0 -0.68491494550E+01  0.54644878816E+01 -0.16550085344E+02  0.18726366464E+02  0.00000000000E+00 0. -1.
         11    1    3    3    0    0  0.63797671217E+01  0.17015476160E+02 -0.49203211687E+01  0.18826508390E+02  0.51100000000E-03 0. -1.
        -11    1    3    3    0    0 -0.12383941078E+02  0.82382542555E+01  0.18571077944E+01  0.14989318844E+02  0.51100000000E-03 0.  1.
        -12    1    3    3    0    0  0.12853323411E+02 -0.30718218297E+02  0.19613298718E+02  0.38645806301E+02  0.00000000000E+00 0.  1.
</event>
<event>
 7    1  0.2873608E-013  0.7246152E+02  0.7816164E-02  0.1226708E+00
        -11   -1    0    0    0    0  0.00000000000E+00  0.00000000000E+00  0.45593999997E+02  0.45594000000E+02  0.51100000000E-03 0.  1.
         11   -1    0    0    0    0 -0.00000000000E+00 -0.00000000000E+00 -0.45593999997E+02  0.45594000000E+02  0.51100000000E-03 0. -1.
    9900012    2    1    2    0    0 -0.16358486082E+02  0.44787202134E+00 -0.91038750703E+01  0.72461516146E+02  0.69999929461E+02 0.  0.
         12    1    1    2    0    0  0.16358486082E+02 -0.44787202134E+00  0.91038750703E+01  0.18726483854E+02  0.00000000000E+00 0. -1.
         11    1    3    3    0    0  0.86738744607E+01  0.16758154062E+01 -0.21837597175E+02  0.23556848390E+02  0.51100000000E-03 0. -1.
        -11    1    3    3    0    0  0.66055381424E+01 -0.11971981841E+02  0.53722122891E+01  0.14690886580E+02  0.51100000000E-03 0.  1.
        -12    1    3    3    0    0 -0.31637898685E+02  0.10744038456E+02  0.73615098157E+01  0.34213781176E+02  0.00000000000E+00 0.  1.
</event>
<event>
 7    1  0.2873608E-013  0.7246160E+02  0.7816164E-02  0.1226708E+00
        -11   -1    0    0    0    0  0.00000000000E+00  0.00000000000E+00  0.45593999997E+02  0.45594000000E+02  0.51100000000E-03 0.  1.
         11   -1    0    0    0    0 -0.00000000000E+00 -0.00000000000E+00 -0.45593999997E+02  0.45594000000E+02  0.51100000000E-03 0. -1.
    9900012    2    1    2    0    0  0.96565015983E+01 -0.10672558535E+02  0.11980256681E+02  0.72461599413E+02  0.70000037933E+02 0.  0.
         12    1    1    2    0    0 -0.96565015983E+01  0.10672558535E+02 -0.11980256681E+02  0.18726400587E+02  0.00000000000E+00 0. -1.
         11    1    3    3    0    0 -0.45512360351E+01 -0.15227314062E+01  0.30612281815E+01  0.56924141296E+01  0.51100000000E-03 0. -1.
        -11    1    3    3    0    0 -0.22528526077E+02  0.92423415905E+01 -0.14628207174E+01  0.24394573371E+02  0.51100000000E-03 0.  1.
        -12    1    3    3    0    0  0.36736263710E+02 -0.18392168719E+02  0.10381849217E+02  0.42374611912E+02  0.00000000000E+00 0.  1.
</event>
<event>
 7    1  0.2873608E-013  0.7246157E+02  0.7816164E-02  0.1226708E+00
        -11   -1    0    0    0    0  0.00000000000E+00  0.00000000000E+00  0.45593999997E+02  0.45594000000E+02  0.51100000000E-03 0.  1.
         11   -1    0    0    0    0 -0.00000000000E+00 -0.00000000000E+00 -0.45593999997E+02  0.45594000000E+02  0.51100000000E-03 0. -1.
    9900012    2    1    2    0    0  0.48307415814E+01  0.93512233540E+01  0.15488629233E+02  0.72461572739E+02  0.70000003185E+02 0.  0.
         12    1    1    2    0    0 -0.48307415814E+01 -0.93512233540E+01 -0.15488629233E+02  0.18726427261E+02  0.00000000000E+00 0. -1.
         11    1    3    3    0    0  0.21751091395E+02 -0.99870052432E+01  0.20441995208E+02  0.31475790998E+02  0.51100000000E-03 0. -1.
        -11    1    3    3    0    0  0.66456682015E+01  0.15349168104E+02 -0.31174605433E+01  0.17014124363E+02  0.51100000000E-03 0.  1.
        -12    1    3    3    0    0 -0.23566018015E+02  0.39890604934E+01 -0.18359054311E+01  0.23971657379E+02  0.00000000000E+00 0.  1.
</event>
<event>
 7    1  0.2873608E-013  0.7246154E+02  0.7816164E-02  0.1226708E+00
        -11   -1    0    0    0    0  0.00000000000E+00  0.00000000000E+00  0.45593999997E+02  0.45594000000E+02  0.51100000000E-03 0.  1.
         11   -1    0    0    0    0 -0.00000000000E+00 -0.00000000000E+00 -0.45593999997E+02  0.45594000000E+02  0.51100000000E-03 0. -1.
    9900012    2    1    2    0    0 -0.64551243886E+01 -0.10619775395E+02  0.14008290997E+02  0.72461535385E+02  0.69999954524E+02 0.  0.
         12    1    1    2    0    0  0.64551243886E+01  0.10619775395E+02 -0.14008290997E+02  0.18726464615E+02  0.00000000000E+00 0. -1.
         11    1    3    3    0    0 -0.31724051470E+01 -0.80882933793E+01  0.18056654259E+02  0.20038148804E+02  0.51100000000E-03 0. -1.
        -11    1    3    3    0    0 -0.15599423615E+02 -0.23332858257E+02 -0.13606591104E+01  0.28100101158E+02  0.51100000000E-03 0.  1.
         12    1    3    3    0    0  0.12316704374E+02  0.20801376242E+02 -0.26877041515E+01  0.24323285423E+02  0.00000000000E+00 0. -1.
</event>
<event>
 7    1  0.2873608E-013  0.7246147E+02  0.7816164E-02  0.1226708E+00
        -11   -1    0    0    0    0  0.00000000000E+00  0.00000000000E+00  0.45593999997E+02  0.45594000000E+02  0.51100000000E-03 0. -1.
         11   -1    0    0    0    0 -0.00000000000E+00 -0.00000000000E+00 -0.45593999997E+02  0.45594000000E+02  0.51100000000E-03 0.  1.
    9900012    2    1    2    0    0 -0.13237508626E+02 -0.45183467717E+01 -0.12451336752E+02  0.72461471249E+02  0.69999870974E+02 0.  0.
         12    1    1    2    0    0  0.13237508626E+02  0.45183467717E+01  0.12451336752E+02  0.18726528751E+02  0.00000000000E+00 0. -1.
         11    1    3    3    0    0 -0.23871021109E+02  0.22525211819E+02 -0.38373291093E+01  0.33044453562E+02  0.51100000000E-03 0. -1.
        -11    1    3    3    0    0 -0.27609869157E+01 -0.75516206905E+01 -0.13074980998E+02  0.15349434913E+02  0.51100000000E-03 0.  1.
        -12    1    3    3    0    0  0.13394499399E+02 -0.19491937900E+02  0.44609733557E+01  0.24067582773E+02  0.00000000000E+00 0.  1.
</event>
<event>
 7    1  0.2873608E-013  0.7246157E+02  0.7816164E-02  0.1226708E+00
        -11   -1    0    0    0    0  0.00000000000E+00  0.00000000000E+00  0.45593999997E+02  0.45594000000E+02  0.51100000000E-03 0. -1.
         11   -1    0    0    0    0 -0.00000000000E+00 -0.00000000000E+00 -0.45593999997E+02  0.45594000000E+02  0.51100000000E-03 0.  1.
    9900012    2    1    2    0    0  0.34614935736E+01 -0.60392772431E+01 -0.17384605118E+02  0.72461566744E+02  0.69999995375E+02 0.  0.
         12    1    1    2    0    0 -0.34614935736E+01  0.60392772431E+01  0.17384605118E+02  0.18726433256E+02  0.00000000000E+00 0. -1.
         11    1    3    3    0    0 -0.10581378656E+02 -0.31870464624E+01 -0.11092237384E+02  0.15657604218E+02  0.51100000000E-03 0.  1.
        -11    1    3    3    0    0 -0.95895110437E+01  0.87446511093E+01  0.17182509209E+02  0.21532911277E+02  0.51100000000E-03 0. -1.
        -12    1    3    3    0    0  0.23632383273E+02 -0.11596881890E+02 -0.23474876943E+02  0.35271051249E+02  0.00000000000E+00 0.  1.
</event>
<event>
 7    1  0.2873608E-013  0.7246159E+02  0.7816164E-02  0.1226708E+00
        -11   -1    0    0    0    0  0.00000000000E+00  0.00000000000E+00  0.45593999997E+02  0.45594000000E+02  0.51100000000E-03 0.  1.
         11   -1    0    0    0    0 -0.00000000000E+00 -0.00000000000E+00 -0.45593999997E+02  0.45594000000E+02  0.51100000000E-03 0. -1.
    9900012    2    1    2    0    0  0.10033555548E+02  0.13184311225E+02  0.87281281938E+01  0.72461587605E+02  0.70000022550E+02 0.  0.
         12    1    1    2    0    0 -0.10033555548E+02 -0.13184311225E+02 -0.87281281938E+01  0.18726412395E+02  0.00000000000E+00 0. -1.
         11    1    3    3    0    0 -0.25683063636E+01 -0.65710378368E+01 -0.18104806537E+02  0.19430871206E+02  0.51100000000E-03 0. -1.
        -11    1    3    3    0    0  0.13844121883E+02  0.22994467777E+02  0.88818575377E+00  0.26855057871E+02  0.51100000000E-03 0.  1.
         12    1    3    3    0    0 -0.12422599721E+01 -0.32391187148E+01  0.25944748977E+02  0.26175658528E+02  0.00000000000E+00 0. -1.
</event>
<event>
 7    1  0.2873608E-013  0.7246138E+02  0.7816164E-02  0.1226709E+00
        -11   -1    0    0    0    0  0.00000000000E+00  0.00000000000E+00  0.45593999997E+02  0.45594000000E+02  0.51100000000E-03 0.  1.
         11   -1    0    0    0    0 -0.00000000000E+00 -0.00000000000E+00 -0.45593999997E+02  0.45594000000E+02  0.51100000000E-03 0. -1.
    9900012    2    1    2    0    0 -0.18381949528E+02  0.50693854955E+00 -0.35402262784E+01  0.72461381051E+02  0.69999753475E+02 0.  0.
         12    1    1    2    0    0  0.18381949528E+02 -0.50693854955E+00  0.35402262784E+01  0.18726618949E+02  0.00000000000E+00 0. -1.
         11    1    3    3    0    0  0.48629402021E+01 -0.77284030947E+01 -0.12727262580E+01  0.92193402255E+01  0.51100000000E-03 0. -1.
        -11    1    3    3    0    0  0.11373142956E+02 -0.16297604841E+02 -0.56969734759E+01  0.20674037131E+02  0.51100000000E-03 0.  1.
        -12    1    3    3    0    0 -0.34618032687E+02  0.24532946485E+02  0.34294734555E+01  0.42568003694E+02  0.00000000000E+00 0.  1.
</event>
<event>
 7    1  0.2873608E-013  0.7246163E+02  0.7816164E-02  0.1226708E+00
        -11   -1    0    0    0    0  0.00000000000E+00  0.00000000000E+00  0.45593999997E+02  0.45594000000E+02  0.51100000000E-03 0. -1.
         11   -1    0    0    0    0 -0.00000000000E+00 -0.00000000000E+00 -0.45593999997E+02  0.45594000000E+02  0.51100000000E-03 0.  1.
    9900012    2    1    2    0    0  0.99019213404E+01 -0.12352534476E+02 -0.10002187649E+02  0.72461630572E+02  0.70000078522E+02 0.  0.
         12    1    1    2    0    0 -0.99019213404E+01  0.12352534476E+02  0.10002187649E+02  0.18726369428E+02  0.00000000000E+00 0. -1.
         11    1    3    3    0    0  0.77677759873E+01  0.25842226839E+02 -0.22936003585E+01  0.27081721412E+02  0.51100000000E-03 0. -1.
        -11    1    3    3    0    0 -0.16943398953E-01 -0.20461765246E+02 -0.15719509793E+02  0.25802850859E+02  0.51100000000E-03 0.  1.
        -12    1    3    3    0    0  0.21510887521E+01 -0.17732996068E+02  0.80109225026E+01  0.19577058301E+02  0.00000000000E+00 0.  1.
</event>
<event>
 7    1  0.2873608E-013  0.7246155E+02  0.7816164E-02  0.1226708E+00
        -11   -1    0    0    0    0  0.00000000000E+00  0.00000000000E+00  0.45593999997E+02  0.45594000000E+02  0.51100000000E-03 0. -1.
         11   -1    0    0    0    0 -0.00000000000E+00 -0.00000000000E+00 -0.45593999997E+02  0.45594000000E+02  0.51100000000E-03 0.  1.
    9900012    2    1    2    0    0  0.15804314882E+02  0.91668525745E+01  0.41076134411E+01  0.72461546967E+02  0.69999969611E+02 0.  0.
         12    1    1    2    0    0 -0.15804314882E+02 -0.91668525745E+01 -0.41076134411E+01  0.18726453033E+02  0.00000000000E+00 0. -1.
         11    1    3    3    0    0  0.28738395792E+02  0.52941559895E+00  0.45586476237E-01  0.28743307951E+02  0.51100000000E-03 0. -1.
        -11    1    3    3    0    0  0.66744086090E+00 -0.30232157468E+01 -0.16302975790E+02  0.16594346345E+02  0.51100000000E-03 0.  1.
        -12    1    3    3    0    0 -0.13601521770E+02  0.11660652722E+02  0.20365002755E+02  0.27123892670E+02  0.00000000000E+00 0.  1.
</event>
<event>
 7    1  0.2873608E-013  0.7246159E+02  0.7816164E-02  0.1226708E+00
        -11   -1    0    0    0    0  0.00000000000E+00  0.00000000000E+00  0.45593999997E+02  0.45594000000E+02  0.51100000000E-03 0. -1.
         11   -1    0    0    0    0 -0.00000000000E+00 -0.00000000000E+00 -0.45593999997E+02  0.45594000000E+02  0.51100000000E-03 0.  1.
    9900012    2    1    2    0    0  0.13994491114E+02  0.60519628190E+01 -0.10872281452E+02  0.72461587117E+02  0.70000021915E+02 0.  0.
         12    1    1    2    0    0 -0.13994491114E+02 -0.60519628190E+01  0.10872281452E+02  0.18726412883E+02  0.00000000000E+00 0. -1.
         11    1    3    3    0    0  0.26876393055E+02 -0.11519860060E+02  0.12042195885E+02  0.31623759445E+02  0.51100000000E-03 0. -1.
        -11    1    3    3    0    0  0.66200504598E+01  0.77960286464E+01 -0.13844247688E+02  0.17212388708E+02  0.51100000000E-03 0.  1.
        -12    1    3    3    0    0 -0.19501952401E+02  0.97757942327E+01 -0.90702296485E+01  0.23625438963E+02  0.00000000000E+00 0.  1.
</event>
<event>
 7    1  0.2873608E-013  0.7246148E+02  0.7816164E-02  0.1226708E+00
        -11   -1    0    0    0    0  0.00000000000E+00  0.00000000000E+00  0.45593999997E+02  0.45594000000E+02  0.51100000000E-03 0.  1.
         11   -1    0    0    0    0 -0.00000000000E+00 -0.00000000000E+00 -0.45593999997E+02  0.45594000000E+02  0.51100000000E-03 0. -1.
    9900012    2    1    2    0    0 -0.14962359128E+02  0.10375098034E+02 -0.43780923381E+01  0.72461480238E+02  0.69999882684E+02 0.  0.
         12    1    1    2    0    0  0.14962359128E+02 -0.10375098034E+02  0.43780923381E+01  0.18726519762E+02  0.00000000000E+00 0. -1.
         11    1    3    3    0    0 -0.52991042679E+01 -0.19238900093E+02 -0.16005310895E+02  0.25580964797E+02  0.51100000000E-03 0. -1.
        -11    1    3    3    0    0 -0.29389739784E+01 -0.45203704860E+01  0.10810560980E+02  0.12080544124E+02  0.51100000000E-03 0.  1.
         12    1    3    3    0    0 -0.67242808815E+01  0.34134368613E+02  0.81665757692E+00  0.34799971316E+02  0.00000000000E+00 0. -1.
</event>
<event>
 7    1  0.2873608E-013  0.7246157E+02  0.7816164E-02  0.1226708E+00
        -11   -1    0    0    0    0  0.00000000000E+00  0.00000000000E+00  0.45593999997E+02  0.45594000000E+02  0.51100000000E-03 0. -1.
         11   -1    0    0    0    0 -0.00000000000E+00 -0.00000000000E+00 -0.45593999997E+02  0.45594000000E+02  0.51100000000E-03 0.  1.
    9900012    2    1    2    0    0  0.17372443606E+02 -0.47260319727E+01  0.51518772264E+01  0.72461574447E+02  0.70000005409E+02 0.  0.
         12    1    1    2    0    0 -0.17372443606E+02  0.47260319727E+01 -0.51518772264E+01  0.18726425553E+02  0.00000000000E+00 0. -1.
         11    1    3    3    0    0  0.58399368571E+01 -0.24529262394E+01 -0.68256854900E+01  0.93119113130E+01  0.51100000000E-03 0. -1.
        -11    1    3    3    0    0  0.34849346559E+02 -0.36699472578E+01 -0.33644916054E+01  0.35203199748E+02  0.51100000000E-03 0.  1.
         12    1    3    3    0    0 -0.23316839810E+02  0.13968415245E+01  0.15342054322E+02  0.27946463386E+02  0.00000000000E+00 0. -1.
</event>
<event>
 7    1  0.2873608E-013  0.7246139E+02  0.7816164E-02  0.1226708E+00
        -11   -1    0    0    0    0  0.00000000000E+00  0.00000000000E+00  0.45593999997E+02  0.45594000000E+02  0.51100000000E-03 0. -1.
         11   -1    0    0    0    0 -0.00000000000E+00 -0.00000000000E+00 -0.45593999997E+02  0.45594000000E+02  0.51100000000E-03 0.  1.
    9900012    2    1    2    0    0 -0.14696535130E+02  0.95318083355E+01  0.66213657346E+01  0.72461387943E+02  0.69999762452E+02 0.  0.
         12    1    1    2    0    0  0.14696535130E+02 -0.95318083355E+01 -0.66213657346E+01  0.18726612057E+02  0.00000000000E+00 0. -1.
         11    1    3    3    0    0 -0.75407424559E+01 -0.73941860773E+01 -0.31967675355E+01  0.11034314998E+02  0.51100000000E-03 0. -1.
        -11    1    3    3    0    0 -0.22864997824E+01 -0.25396870845E+00 -0.23507011023E+02  0.23619317282E+02  0.51100000000E-03 0.  1.
         12    1    3    3    0    0 -0.48692928913E+01  0.17179963121E+02  0.33325144293E+02  0.37807755663E+02  0.00000000000E+00 0. -1.
</event>
<event>
 7    1  0.2873608E-013  0.7246161E+02  0.7816164E-02  0.1226708E+00
        -11   -1    0    0    0    0  0.00000000000E+00  0.00000000000E+00  0.45593999997E+02  0.45594000000E+02  0.51100000000E-03 0.  1.
         11   -1    0    0    0    0 -0.00000000000E+00 -0.00000000000E+00 -0.45593999997E+02  0.45594000000E+02  0.51100000000E-03 0. -1.
    9900012    2    1    2    0    0 -0.53357219158E+01  0.22524008208E+01  0.17808273417E+02  0.72461605795E+02  0.70000046246E+02 0.  0.
         12    1    1    2    0    0  0.53357219158E+01 -0.22524008208E+01 -0.17808273417E+02  0.18726394205E+02  0.00000000000E+00 0. -1.
         11    1    3    3    0    0 -0.53891602969E+01  0.27586251740E+02 -0.31158260833E+01  0.28279899331E+02  0.51100000000E-03 0. -1.
        -11    1    3    3    0    0  0.50238572477E+01  0.55230677221E+01  0.58322162503E+01  0.94740786022E+01  0.51100000000E-03 0.  1.
        -12    1    3    3    0    0 -0.49704188666E+01 -0.30856918641E+02  0.15091883250E+02  0.34707627861E+02  0.00000000000E+00 0.  1.
</event>
<event>
 7    1  0.2873608E-013  0.7246160E+02  0.7816164E-02  0.1226708E+00
        -11   -1    0    0    0    0  0.00000000000E+00  0.00000000000E+00  0.45593999997E+02  0.45594000000E+02  0.51100000000E-03 0.  1.
         11   -1    0    0    0    0 -0.00000000000E+00 -0.00000000000E+00 -0.45593999997E+02  0.45594000000E+02  0.51100000000E-03 0. -1.
    9900012    2    1    2    0    0  0.12562366550E+02 -0.72783660163E+01  0.11827531839E+02  0.72461596859E+02  0.70000034606E+02 0.  0.
         12    1    1    2    0    0 -0.12562366550E+02  0.72783660163E+01 -0.11827531839E+02  0.18726403141E+02  0.00000000000E+00 0. -1.
         11    1    3    3    0    0  0.14315006529E+02 -0.46279553419E+01  0.16499331239E+01  0.15134717115E+02  0.51100000000E-03 0. -1.
        -11    1    3    3    0    0  0.19118743753E+02 -0.18489588221E+02  0.15221891203E+02  0.30644692972E+02  0.51100000000E-03 0.  1.
         12    1    3    3    0    0 -0.20871383732E+02  0.15839177547E+02 -0.50442924882E+01  0.26682186772E+02  0.00000000000E+00 0. -1.
</event>
<event>
 7    1  0.2873608E-013  0.7246149E+02  0.7816164E-02  0.1226708E+00
        -11   -1    0    0    0    0  0.00000000000E+00  0.00000000000E+00  0.45593999997E+02  0.45594000000E+02  0.51100000000E-03 0.  1.
         11   -1    0    0    0    0 -0.00000000000E+00 -0.00000000000E+00 -0.45593999997E+02  0.45594000000E+02  0.51100000000E-03 0. -1.
    9900012    2    1    2    0    0 -0.72735253480E+01  0.79875484007E+01  0.15296313062E+02  0.72461486878E+02  0.69999891334E+02 0.  0.
         12    1    1    2    0    0  0.72735253480E+01 -0.79875484007E+01 -0.15296313062E+02  0.18726513122E+02  0.00000000000E+00 0. -1.
         11    1    3    3    0    0 -0.35611844100E+01 -0.58609875045E+01 -0.59641014246E+01  0.90886585916E+01  0.51100000000E-03 0. -1.
        -11    1    3    3    0    0 -0.10437657401E+02 -0.21400276580E+02  0.80591089406E+01  0.25136940285E+02  0.51100000000E-03 0.  1.
         12    1    3    3    0    0  0.67253164628E+01  0.35248812485E+02  0.13201305546E+02  0.38235888001E+02  0.00000000000E+00 0. -1.
</event>
<event>
 7    1  0.2873608E-013  0.7246155E+02  0.7816164E-02  0.1226708E+00
        -11   -1    0    0    0    0  0.00000000000E+00  0.00000000000E+00  0.45593999997E+02  0.45594000000E+02  0.51100000000E-03 0. -1.
         11   -1    0    0    0    0 -0.00000000000E+00 -0.00000000000E+00 -0.45593999997E+02  0.45594000000E+02  0.51100000000E-03 0.  1.
    9900012    2    1    2    0    0 -0.10088765884E+02  0.15775509417E+02  0.17339490003E+00  0.72461549183E+02  0.69999972498E+02 0.  0.
         12    1    1    2    0    0  0.10088765884E+02 -0.15775509417E+02 -0.17339490003E+00  0.18726450817E+02  0.00000000000E+00 0. -1.
         11    1    3    3    0    0 -0.12369217398E+01 -0.24623093373E+01  0.24640136832E+01  0.36965262551E+01  0.51100000000E-03 0. -1.
        -11    1    3    3    0    0  0.28456261129E+02  0.43846201592E+01  0.11852488815E+01  0.28816462423E+02  0.51100000000E-03 0.  1.
         12    1    3    3    0    0 -0.37308105273E+02  0.13853198595E+02 -0.34758676647E+01  0.39948560505E+02  0.00000000000E+00 0. -1.
</event>
<event>
 7    1  0.2873608E-013  0.7246161E+02  0.7816164E-02  0.1226708E+00
        -11   -1    0    0    0    0  0.00000000000E+00  0.00000000000E+00  0.45593999997E+02  0.45594000000E+02  0.51100000000E-03 0. -1.
         11   -1    0    0    0    0 -0.00000000000E+00 -0.00000000000E+00 -0.45593999997E+02  0.45594000000E+02  0.51100000000E-03 0.  1.
    9900012    2    1    2    0    0  0.93748465062E+01 -0.34150583759E+01  0.15846999812E+02  0.72461607562E+02  0.70000048547E+02 0.  0.
         12    1    1    2    0    0 -0.93748465062E+01  0.34150583759E+01 -0.15846999812E+02  0.18726392438E+02  0.00000000000E+00 0. -1.
         11    1    3    3    0    0  0.29890895993E+02  0.54726056023E+01  0.22105974711E+01  0.30468045832E+02  0.51100000000E-03 0. -1.
        -11    1    3    3    0    0  0.15078976934E+01 -0.21759729401E+01  0.18309734941E+02  0.18500135339E+02  0.51100000000E-03 0.  1.
        -12    1    3    3    0    0 -0.22023947180E+02 -0.67116910381E+01 -0.46733326004E+01  0.23493426391E+02  0.00000000000E+00 0.  1.
</event>
<event>
 7    1  0.2873608E-013  0.7246162E+02  0.7816164E-02  0.1226708E+00
        -11   -1    0    0    0    0  0.00000000000E+00  0.00000000000E+00  0.45593999997E+02  0.45594000000E+02  0.51100000000E-03 0.  1.
         11   -1    0    0    0    0 -0.00000000000E+00 -0.00000000000E+00 -0.45593999997E+02  0.45594000000E+02  0.51100000000E-03 0. -1.
    9900012    2    1    2    0    0 -0.17679365763E+02  0.53863449660E+01  0.30173710166E+01  0.72461622515E+02  0.70000068027E+02 0.  0.
         12    1    1    2    0    0  0.17679365763E+02 -0.53863449660E+01 -0.30173710166E+01  0.18726377485E+02  0.00000000000E+00 0. -1.
         11    1    3    3    0    0 -0.18277291188E+02  0.31502290451E+02  0.23748001701E+01  0.36497854087E+02  0.51100000000E-03 0. -1.
        -11    1    3    3    0    0  0.29170654594E+01  0.41528453816E+01 -0.20794354628E+01  0.54844733350E+01  0.51100000000E-03 0.  1.
        -12    1    3    3    0    0 -0.23191400342E+01 -0.30268790866E+02  0.27220063092E+01  0.30479295093E+02  0.00000000000E+00 0.  1.
</event>
<event>
 7    1  0.2873608E-013  0.7246159E+02  0.7816164E-02  0.1226708E+00
        -11   -1    0    0    0    0  0.00000000000E+00  0.00000000000E+00  0.45593999997E+02  0.45594000000E+02  0.51100000000E-03 0. -1.
         11   -1    0    0    0    0 -0.00000000000E+00 -0.00000000000E+00 -0.45593999997E+02  0.45594000000E+02  0.51100000000E-03 0.  1.
    9900012    2    1    2    0    0 -0.35490568344E+01  0.90704094225E+01 -0.15994074960E+02  0.72461586426E+02  0.70000021015E+02 0.  0.
         12    1    1    2    0    0  0.35490568344E+01 -0.90704094225E+01  0.15994074960E+02  0.18726413574E+02  0.00000000000E+00 0. -1.
         11    1    3    3    0    0 -0.18087500528E+00  0.11784773321E+02  0.32334179408E+01  0.12221644318E+02  0.51100000000E-03 0. -1.
        -11    1    3    3    0    0  0.20048262786E+02 -0.18981284639E+02 -0.14987903769E+02  0.31414316273E+02  0.51100000000E-03 0.  1.
         12    1    3    3    0    0 -0.23416444615E+02  0.16266920741E+02 -0.42395891324E+01  0.28825625835E+02  0.00000000000E+00 0. -1.
</event>
<event>
 7    1  0.2873608E-013  0.7246160E+02  0.7816164E-02  0.1226708E+00
        -11   -1    0    0    0    0  0.00000000000E+00  0.00000000000E+00  0.45593999997E+02  0.45594000000E+02  0.51100000000E-03 0. -1.
         11   -1    0    0    0    0 -0.00000000000E+00 -0.00000000000E+00 -0.45593999997E+02  0.45594000000E+02  0.51100000000E-03 0.  1.
    9900012    2    1    2    0    0 -0.22013211703E+00  0.53736066391E+01 -0.17937497563E+02  0.72461603516E+02  0.70000043277E+02 0.  0.
         12    1    1    2    0    0  0.22013211703E+00 -0.53736066391E+01  0.17937497563E+02  0.18726396484E+02  0.00000000000E+00 0. -1.
         11    1    3    3    0    0 -0.75353716496E+01 -0.17865646475E+01  0.15487319556E+02  0.17315620301E+02  0.51100000000E-03 0.  1.
        -11    1    3    3    0    0  0.90496718026E+01  0.25064713240E+01  0.86571024645E+01  0.12772015564E+02  0.51100000000E-03 0. -1.
         12    1    3    3    0    0 -0.17344322701E+01  0.46536999625E+01 -0.42081919583E+02  0.42373967650E+02  0.00000000000E+00 0. -1.
</event>
<event>
 7    1  0.2873608E-013  0.7246161E+02  0.7816164E-02  0.1226708E+00
        -11   -1    0    0    0    0  0.00000000000E+00  0.00000000000E+00  0.45593999997E+02  0.45594000000E+02  0.51100000000E-03 0. -1.
         11   -1    0    0    0    0 -0.00000000000E+00 -0.00000000000E+00 -0.45593999997E+02  0.45594000000E+02  0.51100000000E-03 0.  1.
    9900012    2    1    2    0    0 -0.18091358044E+02 -0.15503414882E+01  0.45800592083E+01  0.72461608545E+02  0.70000049828E+02 0.  0.
         12    1    1    2    0    0  0.18091358044E+02  0.15503414882E+01 -0.45800592083E+01  0.18726391455E+02  0.00000000000E+00 0. -1.
         11    1    3    3    0    0  0.51506640372E+01 -0.16108484669E+02 -0.13848926800E+02  0.21858760078E+02  0.51100000000E-03 0. -1.
        -11    1    3    3    0    0  0.40498656089E+00 -0.11071696948E+02 -0.17081971546E+00  0.11080418181E+02  0.51100000000E-03 0.  1.
        -12    1    3    3    0    0 -0.23647008642E+02  0.25629840129E+02  0.18599805724E+02  0.39522430286E+02  0.00000000000E+00 0.  1.
</event>
<event>
 7    1  0.2873608E-013  0.7246150E+02  0.7816164E-02  0.1226708E+00
        -11   -1    0    0    0    0  0.00000000000E+00  0.00000000000E+00  0.45593999997E+02  0.45594000000E+02  0.51100000000E-03 0.  1.
         11   -1    0    0    0    0 -0.00000000000E+00 -0.00000000000E+00 -0.45593999997E+02  0.45594000000E+02  0.51100000000E-03 0. -1.
    9900012    2    1    2    0    0  0.12865637068E+02 -0.73685125475E+01  0.11439506982E+02  0.72461497008E+02  0.69999904531E+02 0.  0.
         12    1    1    2    0    0 -0.12865637068E+02  0.73685125475E+01 -0.11439506982E+02  0.18726502992E+02  0.00000000000E+00 0. -1.
         11    1    3    3    0    0 -0.12180870843E+02 -0.21631038305E+02 -0.10893549955E+02  0.27109866535E+02  0.51100000000E-03 0. -1.
        -11    1    3    3    0    0  0.13151075561E+02  0.39801692046E+01 -0.43225848662E+01  0.14404071490E+02  0.51100000000E-03 0.  1.
        -12    1    3    3    0    0  0.11895432350E+02  0.10282356553E+02  0.26655641803E+02  0.30947558983E+02  0.00000000000E+00 0.  1.
</event>
<event>
 7    1  0.2873608E-013  0.7246157E+02  0.7816164E-02  0.1226708E+00
        -11   -1    0    0    0    0  0.00000000000E+00  0.00000000000E+00  0.45593999997E+02  0.45594000000E+02  0.51100000000E-03 0.  1.
         11   -1    0    0    0    0 -0.00000000000E+00 -0.00000000000E+00 -0.45593999997E+02  0.45594000000E+02  0.51100000000E-03 0. -1.
    9900012    2    1    2    0    0 -0.13365404603E+02  0.12429396273E+02  0.41898898487E+01  0.72461571915E+02  0.70000002111E+02 0.  0.
         12    1    1    2    0    0  0.13365404603E+02 -0.12429396273E+02 -0.41898898487E+01  0.18726428085E+02  0.00000000000E+00 0. -1.
         11    1    3    3    0    0  0.18647796976E+02 -0.10955142176E+02 -0.24247072989E+01  0.21763149540E+02  0.51100000000E-03 0. -1.
        -11    1    3    3    0    0  0.53656006601E+01  0.39045243907E+01  0.53587683727E+01  0.85294419451E+01  0.51100000000E-03 0.  1.
         12    1    3    3    0    0 -0.37378802239E+02  0.19480014058E+02  0.12558287748E+01  0.42168980429E+02  0.00000000000E+00 0. -1.
</event>
<event>
 7    1  0.2873608E-013  0.7246157E+02  0.7816164E-02  0.1226708E+00
        -11   -1    0    0    0    0  0.00000000000E+00  0.00000000000E+00  0.45593999997E+02  0.45594000000E+02  0.51100000000E-03 0.  1.
         11   -1    0    0    0    0 -0.00000000000E+00 -0.00000000000E+00 -0.45593999997E+02  0.45594000000E+02  0.51100000000E-03 0. -1.
    9900012    2    1    2    0    0  0.35403299765E+01 -0.10659766132E+02  0.14983809082E+02  0.72461572553E+02  0.70000002942E+02 0.  0.
         12    1    1    2    0    0 -0.35403299765E+01  0.10659766132E+02 -0.14983809082E+02  0.18726427447E+02  0.00000000000E+00 0. -1.
         11    1    3    3    0    0 -0.10428026030E+02 -0.45683389359E+01  0.11437266215E+02  0.16137673508E+02  0.51100000000E-03 0. -1.
        -11    1    3    3    0    0  0.28593959993E+01  0.23872462626E+02  0.39445029695E+01  0.24364517669E+02  0.51100000000E-03 0.  1.
         12    1    3    3    0    0  0.11108960007E+02 -0.29963889822E+02 -0.39796010220E+00  0.31959381376E+02  0.00000000000E+00 0. -1.
</event>
<event>
 7    1  0.2873608E-013  0.7246145E+02  0.7816164E-02  0.1226708E+00
        -11   -1    0    0    0    0  0.00000000000E+00  0.00000000000E+00  0.45593999997E+02  0.45594000000E+02  0.51100000000E-03 0. -1.
         11   -1    0    0    0    0 -0.00000000000E+00 -0.00000000000E+00 -0.45593999997E+02  0.45594000000E+02  0.51100000000E-03 0.  1.
    9900012    2    1    2    0    0  0.46088448356E+01  0.18096215220E+02  0.14032303853E+01  0.72461454363E+02  0.69999848977E+02 0.  0.
         12    1    1    2    0    0 -0.46088448356E+01 -0.18096215220E+02 -0.14032303853E+01  0.18726545637E+02  0.00000000000E+00 0. -1.
         11    1    3    3    0    0 -0.21550823524E+01  0.17277798914E+02  0.13381512149E+02  0.21959771923E+02  0.51100000000E-03 0. -1.
        -11    1    3    3    0    0 -0.19924282238E+02  0.64977440461E+01 -0.67673214307E+00  0.20967967642E+02  0.51100000000E-03 0.  1.
         12    1    3    3    0    0  0.26688209426E+02 -0.56793277401E+01 -0.11301549621E+02  0.29533714798E+02  0.00000000000E+00 0. -1.
</event>
<event>
 7    1  0.2873608E-013  0.7246159E+02  0.7816164E-02  0.1226708E+00
        -11   -1    0    0    0    0  0.00000000000E+00  0.00000000000E+00  0.45593999997E+02  0.45594000000E+02  0.51100000000E-03 0.  1.
         11   -1    0    0    0    0 -0.00000000000E+00 -0.00000000000E+00 -0.45593999997E+02  0.45594000000E+02  0.51100000000E-03 0. -1.
    9900012    2    1    2    0    0 -0.12214818104E+02  0.13797125169E+02 -0.33340573106E+01  0.72461591311E+02  0.70000027378E+02 0.  0.
         12    1    1    2    0    0  0.12214818104E+02 -0.13797125169E+02  0.33340573106E+01  0.18726408689E+02  0.00000000000E+00 0. -1.
         11    1    3    3    0    0  0.22271900563E+02  0.56303751156E+01  0.43804359422E+01  0.23386468265E+02  0.51100000000E-03 0. -1.
        -11    1    3    3    0    0  0.14015702877E+01 -0.24326711818E+01  0.80077401062E+01  0.84856461286E+01  0.51100000000E-03 0.  1.
        -12    1    3    3    0    0 -0.35888288955E+02  0.10599421235E+02 -0.15722233359E+02  0.40589476917E+02  0.00000000000E+00 0.  1.
</event>
<event>
 7    1  0.2873608E-013  0.7246155E+02  0.7816164E-02  0.1226708E+00
        -11   -1    0    0    0    0  0.00000000000E+00  0.00000000000E+00  0.45593999997E+02  0.45594000000E+02  0.51100000000E-03 0.  1.
         11   -1    0    0    0    0 -0.00000000000E+00 -0.00000000000E+00 -0.45593999997E+02  0.45594000000E+02  0.51100000000E-03 0. -1.
    9900012    2    1    2    0    0  0.27630975841E+01  0.65818756751E+01  0.17312539536E+02  0.72461552904E+02  0.69999977346E+02 0.  0.
         12    1    1    2    0    0 -0.27630975841E+01 -0.65818756751E+01 -0.17312539536E+02  0.18726447096E+02  0.00000000000E+00 0. -1.
         11    1    3    3    0    0 -0.64672293649E+01  0.21846841296E+02  0.14494335328E+02  0.27003616186E+02  0.51100000000E-03 0. -1.
        -11    1    3    3    0    0 -0.15823758120E+02 -0.14385755162E+01  0.52622426241E+01  0.16737742329E+02  0.51100000000E-03 0.  1.
        -12    1    3    3    0    0  0.25054085069E+02 -0.13826390105E+02 -0.24440384158E+01  0.28720194389E+02  0.00000000000E+00 0.  1.
</event>
<event>
 7    1  0.2873608E-013  0.7246160E+02  0.7816164E-02  0.1226708E+00
        -11   -1    0    0    0    0  0.00000000000E+00  0.00000000000E+00  0.45593999997E+02  0.45594000000E+02  0.51100000000E-03 0.  1.
         11   -1    0    0    0    0 -0.00000000000E+00 -0.00000000000E+00 -0.45593999997E+02  0.45594000000E+02  0.51100000000E-03 0. -1.
    9900012    2    1    2    0    0  0.13526107869E+02 -0.42355607581E+00  0.12943841004E+02  0.72461601153E+02  0.70000040200E+02 0.  0.
         12    1    1    2    0    0 -0.13526107869E+02  0.42355607581E+00 -0.12943841004E+02  0.18726398847E+02  0.00000000000E+00 0. -1.
         11    1    3    3    0    0  0.41155841542E+01 -0.11315024129E+02  0.14718998683E+00  0.12041157300E+02  0.51100000000E-03 0. -1.
        -11    1    3    3    0    0 -0.65280754516E+01 -0.21758729400E+02  0.48911264365E+01  0.23237495396E+02  0.51100000000E-03 0.  1.
         12    1    3    3    0    0  0.15938599166E+02  0.32650197453E+02  0.79055245804E+01  0.37182948458E+02  0.00000000000E+00 0. -1.
</event>
<event>
 7    1  0.2873608E-013  0.7246156E+02  0.7816164E-02  0.1226708E+00
        -11   -1    0    0    0    0  0.00000000000E+00  0.00000000000E+00  0.45593999997E+02  0.45594000000E+02  0.51100000000E-03 0. -1.
         11   -1    0    0    0    0 -0.00000000000E+00 -0.00000000000E+00 -0.45593999997E+02  0.45594000000E+02  0.51100000000E-03 0.  1.
    9900012    2    1    2    0    0 -0.16749211175E+02  0.83183125452E+01  0.97417666752E+00  0.72461563639E+02  0.69999991331E+02 0.  0.
         12    1    1    2    0    0  0.16749211175E+02 -0.83183125452E+01 -0.97417666752E+00  0.18726436361E+02  0.00000000000E+00 0. -1.
         11    1    3    3    0    0  0.20885225135E+01 -0.45453930863E+01 -0.21849476672E+02  0.22414775388E+02  0.51100000000E-03 0.  1.
        -11    1    3    3    0    0 -0.25689067201E+02  0.61182356612E+01  0.12610078845E+01  0.26437683756E+02  0.51100000000E-03 0. -1.
         12    1    3    3    0    0  0.68513335122E+01  0.67454699703E+01  0.21562645455E+02  0.23609104495E+02  0.00000000000E+00 0. -1.
</event>
<event>
 7    1  0.2873608E-013  0.7246159E+02  0.7816164E-02  0.1226708E+00
        -11   -1    0    0    0    0  0.00000000000E+00  0.00000000000E+00  0.45593999997E+02  0.45594000000E+02  0.51100000000E-03 0.  1.
         11   -1    0    0    0    0 -0.00000000000E+00 -0.00000000000E+00 -0.45593999997E+02  0.45594000000E+02  0.51100000000E-03 0. -1.
    9900012    2    1    2    0    0  0.86389818921E+01 -0.58813277584E+01  0.15538872763E+02  0.72461585739E+02  0.70000020119E+02 0.  0.
         12    1    1    2    0    0 -0.86389818921E+01  0.58813277584E+01 -0.15538872763E+02  0.18726414261E+02  0.00000000000E+00 0. -1.
         11    1    3    3    0    0 -0.61951518985E+01  0.40701836290E+01 -0.19654739500E+02  0.21006072620E+02  0.51100000000E-03 0. -1.
        -11    1    3    3    0    0 -0.86040442646E+01 -0.27228722057E+01  0.59415581273E+00  0.90441490560E+01  0.51100000000E-03 0.  1.
        -12    1    3    3    0    0  0.23438178055E+02 -0.72286391817E+01  0.34599456451E+02  0.42411364063E+02  0.00000000000E+00 0.  1.
</event>
<event>
 7    1  0.2873608E-013  0.7246159E+02  0.7816164E-02  0.1226708E+00
        -11   -1    0    0    0    0  0.00000000000E+00  0.00000000000E+00  0.45593999997E+02  0.45594000000E+02  0.51100000000E-03 0. -1.
         11   -1    0    0    0    0 -0.00000000000E+00 -0.00000000000E+00 -0.45593999997E+02  0.45594000000E+02  0.51100000000E-03 0.  1.
    9900012    2    1    2    0    0 -0.96982318198E+01  0.15525357492E+02 -0.39478935110E+01  0.72461593808E+02  0.70000030631E+02 0.  0.
         12    1    1    2    0    0  0.96982318198E+01 -0.15525357492E+02  0.39478935110E+01  0.18726406192E+02  0.00000000000E+00 0. -1.
         11    1    3    3    0    0  0.18235260895E+02 -0.42537365692E+01  0.10977635613E+01  0.18756974698E+02  0.51100000000E-03 0. -1.
        -11    1    3    3    0    0  0.82322484898E+01 -0.19420383090E+01 -0.76942103291E+01  0.11434259960E+02  0.51100000000E-03 0.  1.
         12    1    3    3    0    0 -0.36165741205E+02  0.21721132370E+02  0.26485532569E+01  0.42270359150E+02  0.00000000000E+00 0. -1.
</event>
<event>
 7    1  0.2873608E-013  0.7246164E+02  0.7816164E-02  0.1226708E+00
        -11   -1    0    0    0    0  0.00000000000E+00  0.00000000000E+00  0.45593999997E+02  0.45594000000E+02  0.51100000000E-03 0.  1.
         11   -1    0    0    0    0 -0.00000000000E+00 -0.00000000000E+00 -0.45593999997E+02  0.45594000000E+02  0.51100000000E-03 0. -1.
    9900012    2    1    2    0    0  0.27538334241E+01  0.18395481526E+02  0.21677738898E+01  0.72461639362E+02  0.70000089973E+02 0.  0.
         12    1    1    2    0    0 -0.27538334241E+01 -0.18395481526E+02 -0.21677738898E+01  0.18726360638E+02  0.00000000000E+00 0. -1.
         11    1    3    3    0    0  0.14251070425E+01  0.37689780653E+02  0.16214242768E+02  0.41054258787E+02  0.51100000000E-03 0.  1.
        -11    1    3    3    0    0 -0.89981576912E+01 -0.56621136638E+01 -0.78573732164E+01  0.13219859572E+02  0.51100000000E-03 0. -1.
        -12    1    3    3    0    0  0.10326884073E+02 -0.13632185462E+02 -0.61890956618E+01  0.18187521003E+02  0.00000000000E+00 0.  1.
</event>
<event>
 7    1  0.2873608E-013  0.7246155E+02  0.7816164E-02  0.1226708E+00
        -11   -1    0    0    0    0  0.00000000000E+00  0.00000000000E+00  0.45593999997E+02  0.45594000000E+02  0.51100000000E-03 0.  1.
         11   -1    0    0    0    0 -0.00000000000E+00 -0.00000000000E+00 -0.45593999997E+02  0.45594000000E+02  0.51100000000E-03 0. -1.
    9900012    2    1    2    0    0 -0.17512809485E+02  0.63201485247E+01  0.20092443627E+01  0.72461552490E+02  0.69999976807E+02 0.  0.
         12    1    1    2    0    0  0.17512809485E+02 -0.63201485247E+01 -0.20092443627E+01  0.18726447510E+02  0.00000000000E+00 0. -1.
         11    1    3    3    0    0  0.58724966360E+01 -0.18282100565E+02  0.15392917317E+02  0.24610227988E+02  0.51100000000E-03 0. -1.
        -11    1    3    3    0    0 -0.14712818487E+02  0.16500998833E+02  0.79047569611E+01  0.23478398012E+02  0.51100000000E-03 0.  1.
        -12    1    3    3    0    0 -0.86724876334E+01  0.81012502567E+01 -0.21288429915E+02  0.24372926491E+02  0.00000000000E+00 0.  1.
</event>
<event>
 7    1  0.2873608E-013  0.7246158E+02  0.7816164E-02  0.1226708E+00
        -11   -1    0    0    0    0  0.00000000000E+00  0.00000000000E+00  0.45593999997E+02  0.45594000000E+02  0.51100000000E-03 0.  1.
         11   -1    0    0    0    0 -0.00000000000E+00 -0.00000000000E+00 -0.45593999997E+02  0.45594000000E+02  0.51100000000E-03 0. -1.
    9900012    2    1    2    0    0 -0.77300077155E+01  0.16236490047E+02  0.52251633221E+01  0.72461575887E+02  0.70000007285E+02 0.  0.
         12    1    1    2    0    0  0.77300077155E+01 -0.16236490047E+02 -0.52251633221E+01  0.18726424113E+02  0.00000000000E+00 0. -1.
         11    1    3    3    0    0 -0.82782633201E+01  0.20255049272E+02  0.11976655255E+02  0.24944677508E+02  0.51100000000E-03 0. -1.
        -11    1    3    3    0    0  0.30033290055E+01  0.20515379010E+02 -0.93094407819E+01  0.22728098226E+02  0.51100000000E-03 0.  1.
        -12    1    3    3    0    0 -0.24550734009E+01 -0.24533938235E+02  0.25579488485E+01  0.24788800153E+02  0.00000000000E+00 0.  1.
</event>
<event>
 7    1  0.2873608E-013  0.7246159E+02  0.7816164E-02  0.1226708E+00
        -11   -1    0    0    0    0  0.00000000000E+00  0.00000000000E+00  0.45593999997E+02  0.45594000000E+02  0.51100000000E-03 0.  1.
         11   -1    0    0    0    0 -0.00000000000E+00 -0.00000000000E+00 -0.45593999997E+02  0.45594000000E+02  0.51100000000E-03 0. -1.
    9900012    2    1    2    0    0 -0.74880385791E+01  0.16293362042E+02  0.53976071477E+01  0.72461587334E+02  0.70000022198E+02 0.  0.
         12    1    1    2    0    0  0.74880385791E+01 -0.16293362042E+02 -0.53976071477E+01  0.18726412666E+02  0.00000000000E+00 0. -1.
         11    1    3    3    0    0 -0.76539041396E+01  0.94075890674E+01 -0.21441004961E+02  0.24633344771E+02  0.51100000000E-03 0. -1.
        -11    1    3    3    0    0 -0.16405907297E+02  0.12285427613E+02  0.21252918335E+02  0.29525786423E+02  0.51100000000E-03 0.  1.
        -12    1    3    3    0    0  0.16571772857E+02 -0.53996546386E+01  0.55856937731E+01  0.18302456140E+02  0.00000000000E+00 0.  1.
</event>
<event>
 7    1  0.2873608E-013  0.7246157E+02  0.7816164E-02  0.1226708E+00
        -11   -1    0    0    0    0  0.00000000000E+00  0.00000000000E+00  0.45593999997E+02  0.45594000000E+02  0.51100000000E-03 0. -1.
         11   -1    0    0    0    0 -0.00000000000E+00 -0.00000000000E+00 -0.45593999997E+02  0.45594000000E+02  0.51100000000E-03 0.  1.
    9900012    2    1    2    0    0  0.18623607392E+02 -0.66441584061E+00 -0.18436015531E+01  0.72461573022E+02  0.70000003553E+02 0.  0.
         12    1    1    2    0    0 -0.18623607392E+02  0.66441584061E+00  0.18436015531E+01  0.18726426978E+02  0.00000000000E+00 0. -1.
         11    1    3    3    0    0  0.13747484168E+01 -0.18570272927E+02 -0.98579132793E+01  0.21069490366E+02  0.51100000000E-03 0. -1.
        -11    1    3    3    0    0 -0.68313131655E+01 -0.11119001570E+02  0.21093016477E+01  0.13219235575E+02  0.51100000000E-03 0.  1.
        -12    1    3    3    0    0  0.24080172140E+02  0.29024858656E+02  0.59050100786E+01  0.38172847082E+02  0.00000000000E+00 0.  1.
</event>
<event>
 7    1  0.2873608E-013  0.7246155E+02  0.7816164E-02  0.1226708E+00
        -11   -1    0    0    0    0  0.00000000000E+00  0.00000000000E+00  0.45593999997E+02  0.45594000000E+02  0.51100000000E-03 0.  1.
         11   -1    0    0    0    0 -0.00000000000E+00 -0.00000000000E+00 -0.45593999997E+02  0.45594000000E+02  0.51100000000E-03 0. -1.
    9900012    2    1    2    0    0  0.16906373090E+02 -0.57715721052E+01  0.56163691413E+01  0.72461545505E+02  0.69999967708E+02 0.  0.
         12    1    1    2    0    0 -0.16906373090E+02  0.57715721052E+01 -0.56163691413E+01  0.18726454495E+02  0.00000000000E+00 0. -1.
         11    1    3    3    0    0 -0.20716476462E+02 -0.16917304907E+02  0.68616119209E+01  0.27612484870E+02  0.51100000000E-03 0. -1.
        -11    1    3    3    0    0  0.90415616082E+01 -0.36686823378E+01  0.65173053781E+01  0.11733896883E+02  0.51100000000E-03 0.  1.
        -12    1    3    3    0    0  0.28581287943E+02  0.14814415139E+02 -0.77625481576E+01  0.33115163752E+02  0.00000000000E+00 0.  1.
</event>
<event>
 7    1  0.2873608E-013  0.7246156E+02  0.7816164E-02  0.1226708E+00
        -11   -1    0    0    0    0  0.00000000000E+00  0.00000000000E+00  0.45593999997E+02  0.45594000000E+02  0.51100000000E-03 0. -1.
         11   -1    0    0    0    0 -0.00000000000E+00 -0.00000000000E+00 -0.45593999997E+02  0.45594000000E+02  0.51100000000E-03 0.  1.
    9900012    2    1    2    0    0  0.13676837011E+02 -0.12675749644E+02 -0.17172379497E+01  0.72461563985E+02  0.69999991780E+02 0.  0.
         12    1    1    2    0    0 -0.13676837011E+02  0.12675749644E+02  0.17172379497E+01  0.18726436015E+02  0.00000000000E+00 0. -1.
         11    1    3    3    0    0 -0.92059502310E+01  0.76887787887E+01  0.99974808074E+01  0.15614623328E+02  0.51100000000E-03 0. -1.
        -11    1    3    3    0    0 -0.11567838996E+02 -0.52324929427E+01 -0.14309710949E+02  0.19130125696E+02  0.51100000000E-03 0.  1.
        -12    1    3    3    0    0  0.34450626238E+02 -0.15132035490E+02  0.25949921921E+01  0.37716814960E+02  0.00000000000E+00 0.  1.
</event>
<event>
 7    1  0.2873608E-013  0.7246163E+02  0.7816164E-02  0.1226708E+00
        -11   -1    0    0    0    0  0.00000000000E+00  0.00000000000E+00  0.45593999997E+02  0.45594000000E+02  0.51100000000E-03 0. -1.
         11   -1    0    0    0    0 -0.00000000000E+00 -0.00000000000E+00 -0.45593999997E+02  0.45594000000E+02  0.51100000000E-03 0.  1.
    9900012    2    1    2    0    0  0.11958943460E+02  0.12942396636E+02 -0.63367817749E+01  0.72461634559E+02  0.70000083717E+02 0.  0.
         12    1    1    2    0    0 -0.11958943460E+02 -0.12942396636E+02  0.63367817749E+01  0.18726365441E+02  0.00000000000E+00 0. -1.
         11    1    3    3    0    0 -0.55734241851E+01 -0.91079622150E+01  0.25068366258E+02  0.27247770917E+02  0.51100000000E-03 0. -1.
        -11    1    3    3    0    0  0.32201381139E+01  0.30299934775E+01  0.14399797965E+01  0.46501281726E+01  0.51100000000E-03 0.  1.
        -12    1    3    3    0    0  0.14312229531E+02  0.19020365374E+02 -0.32845127829E+02  0.40563735469E+02  0.00000000000E+00 0.  1.
</event>
<event>
 7    1  0.2873608E-013  0.7246157E+02  0.7816164E-02  0.1226708E+00
        -11   -1    0    0    0    0  0.00000000000E+00  0.00000000000E+00  0.45593999997E+02  0.45594000000E+02  0.51100000000E-03 0. -1.
         11   -1    0    0    0    0 -0.00000000000E+00 -0.00000000000E+00 -0.45593999997E+02  0.45594000000E+02  0.51100000000E-03 0.  1.
    9900012    2    1    2    0    0 -0.65958342409E+00 -0.78128752389E+01 -0.17005977556E+02  0.72461565678E+02  0.69999993986E+02 0.  0.
         12    1    1    2    0    0  0.65958342409E+00  0.78128752389E+01  0.17005977556E+02  0.18726434322E+02  0.00000000000E+00 0. -1.
         11    1    3    3    0    0  0.75488783556E+01  0.38035524779E+01 -0.64274827983E+01  0.10619091829E+02  0.51100000000E-03 0. -1.
        -11    1    3    3    0    0  0.12927333678E+02 -0.36601251657E+01 -0.29477031819E+02  0.32394565553E+02  0.51100000000E-03 0.  1.
         12    1    3    3    0    0 -0.21135795458E+02 -0.79563025510E+01  0.18898537062E+02  0.29447908296E+02  0.00000000000E+00 0. -1.
</event>
<event>
 7    1  0.2873608E-013  0.7246158E+02  0.7816164E-02  0.1226708E+00
        -11   -1    0    0    0    0  0.00000000000E+00  0.00000000000E+00  0.45593999997E+02  0.45594000000E+02  0.51100000000E-03 0. -1.
         11   -1    0    0    0    0 -0.00000000000E+00 -0.00000000000E+00 -0.45593999997E+02  0.45594000000E+02  0.51100000000E-03 0.  1.
    9900012    2    1    2    0    0 -0.65283428317E+01 -0.14289496448E+02  0.10191649998E+02  0.72461582869E+02  0.70000016381E+02 0.  0.
         12    1    1    2    0    0  0.65283428317E+01  0.14289496448E+02 -0.10191649998E+02  0.18726417131E+02  0.00000000000E+00 0. -1.
         11    1    3    3    0    0 -0.84767377660E+01 -0.62348527797E+00 -0.26338035339E+01  0.88983559359E+01  0.51100000000E-03 0. -1.
        -11    1    3    3    0    0 -0.21547293075E+02 -0.21537327518E+02 -0.76588700879E+01  0.31413382606E+02  0.51100000000E-03 0.  1.
         12    1    3    3    0    0  0.23495688009E+02  0.78713163480E+01  0.20484323620E+02  0.32149844327E+02  0.00000000000E+00 0. -1.
</event>
<event>
 7    1  0.2873608E-013  0.7246154E+02  0.7816164E-02  0.1226708E+00
        -11   -1    0    0    0    0  0.00000000000E+00  0.00000000000E+00  0.45593999997E+02  0.45594000000E+02  0.51100000000E-03 0. -1.
         11   -1    0    0    0    0 -0.00000000000E+00 -0.00000000000E+00 -0.45593999997E+02  0.45594000000E+02  0.51100000000E-03 0.  1.
    9900012    2    1    2    0    0 -0.17097310444E+02 -0.48389197972E+01 -0.59115952380E+01  0.72461544716E+02  0.69999966680E+02 0.  0.
         12    1    1    2    0    0  0.17097310444E+02  0.48389197972E+01  0.59115952380E+01  0.18726455284E+02  0.00000000000E+00 0. -1.
         11    1    3    3    0    0  0.16361562356E+01 -0.11475350980E+02  0.96218014967E+01  0.15064519629E+02  0.51100000000E-03 0. -1.
        -11    1    3    3    0    0 -0.75185750023E+01 -0.21971006194E+02 -0.12882170323E+02  0.26555684810E+02  0.51100000000E-03 0.  1.
         12    1    3    3    0    0 -0.11214891678E+02  0.28607437377E+02 -0.26512264121E+01  0.30841340277E+02  0.00000000000E+00 0. -1.
</event>
<event>
 7    1  0.2873608E-013  0.7246151E+02  0.7816164E-02  0.1226708E+00
        -11   -1    0    0    0    0  0.00000000000E+00  0.00000000000E+00  0.45593999997E+02  0.45594000000E+02  0.51100000000E-03 0.  1.
         11   -1    0    0    0    0 -0.00000000000E+00 -0.00000000000E+00 -0.45593999997E+02  0.45594000000E+02  0.51100000000E-03 0. -1.
    9900012    2    1    2    0    0  0.10054447987E+01  0.17528929519E+02 -0.65120860595E+01  0.72461506624E+02  0.69999917057E+02 0.  0.
         12    1    1    2    0    0 -0.10054447987E+01 -0.17528929519E+02  0.65120860595E+01  0.18726493376E+02  0.00000000000E+00 0. -1.
         11    1    3    3    0    0 -0.23569933539E+02  0.93823116222E+01  0.18632763377E+01  0.25437007241E+02  0.51100000000E-03 0. -1.
        -11    1    3    3    0    0  0.51088063478E+01  0.20492724669E+02 -0.11019395372E+02  0.23821812301E+02  0.51100000000E-03 0.  1.
         12    1    3    3    0    0  0.19466571989E+02 -0.12346106772E+02  0.26440329752E+01  0.23202687082E+02  0.00000000000E+00 0. -1.
</event>
<event>
 7    1  0.2873608E-013  0.7246157E+02  0.7816164E-02  0.1226708E+00
        -11   -1    0    0    0    0  0.00000000000E+00  0.00000000000E+00  0.45593999997E+02  0.45594000000E+02  0.51100000000E-03 0. -1.
         11   -1    0    0    0    0 -0.00000000000E+00 -0.00000000000E+00 -0.45593999997E+02  0.45594000000E+02  0.51100000000E-03 0.  1.
    9900012    2    1    2    0    0 -0.17609854844E+02 -0.35106144951E+01  0.53148665833E+01  0.72461569252E+02  0.69999998642E+02 0.  0.
         12    1    1    2    0    0  0.17609854844E+02  0.35106144951E+01 -0.53148665833E+01  0.18726430748E+02  0.00000000000E+00 0. -1.
         11    1    3    3    0    0 -0.10429507344E+02  0.11683100244E+02  0.25083394845E+01  0.15860681637E+02  0.51100000000E-03 0. -1.
        -11    1    3    3    0    0  0.11652190186E+02  0.59707140758E+01  0.19671896021E+02  0.23630625384E+02  0.51100000000E-03 0.  1.
        -12    1    3    3    0    0 -0.18832537685E+02 -0.21164428815E+02 -0.16865368923E+02  0.32970262232E+02  0.00000000000E+00 0.  1.
</event>
<event>
 7    1  0.2873608E-013  0.7246162E+02  0.7816164E-02  0.1226708E+00
        -11   -1    0    0    0    0  0.00000000000E+00  0.00000000000E+00  0.45593999997E+02  0.45594000000E+02  0.51100000000E-03 0.  1.
         11   -1    0    0    0    0 -0.00000000000E+00 -0.00000000000E+00 -0.45593999997E+02  0.45594000000E+02  0.51100000000E-03 0. -1.
    9900012    2    1    2    0    0 -0.15455721933E+02 -0.56927814046E+01  0.89101175056E+01  0.72461620357E+02  0.70000065215E+02 0.  0.
         12    1    1    2    0    0  0.15455721933E+02  0.56927814046E+01 -0.89101175056E+01  0.18726379643E+02  0.00000000000E+00 0. -1.
         11    1    3    3    0    0 -0.27477700413E+01 -0.50505067044E+01  0.80183757025E+01  0.98667222186E+01  0.51100000000E-03 0. -1.
        -11    1    3    3    0    0  0.21450827739E+02  0.91991366651E+00  0.14374653038E+02  0.25838244949E+02  0.51100000000E-03 0.  1.
         12    1    3    3    0    0 -0.34158779630E+02 -0.15621883667E+01 -0.13482911235E+02  0.36756653189E+02  0.00000000000E+00 0. -1.
</event>
<event>
 7    1  0.2873608E-013  0.7246152E+02  0.7816164E-02  0.1226708E+00
        -11   -1    0    0    0    0  0.00000000000E+00  0.00000000000E+00  0.45593999997E+02  0.45594000000E+02  0.51100000000E-03 0.  1.
         11   -1    0    0    0    0 -0.00000000000E+00 -0.00000000000E+00 -0.45593999997E+02  0.45594000000E+02  0.51100000000E-03 0. -1.
    9900012    2    1    2    0    0 -0.91940574287E+01 -0.11007544570E+02  0.12040945598E+02  0.72461518741E+02  0.69999932842E+02 0.  0.
         12    1    1    2    0    0  0.91940574287E+01  0.11007544570E+02 -0.12040945598E+02  0.18726481259E+02  0.00000000000E+00 0. -1.
         11    1    3    3    0    0  0.13040598783E+02  0.15242379150E+02  0.32761100136E+01  0.20325359427E+02  0.51100000000E-03 0. -1.
        -11    1    3    3    0    0  0.57397000584E+01  0.37325249162E+01 -0.54343058065E+01  0.87411428812E+01  0.51100000000E-03 0.  1.
        -12    1    3    3    0    0 -0.27974356270E+02 -0.29982448636E+02  0.14199141391E+02  0.43395016432E+02  0.00000000000E+00 0.  1.
</event>
<event>
 7    1  0.2873608E-013  0.7246156E+02  0.7816164E-02  0.1226708E+00
        -11   -1    0    0    0    0  0.00000000000E+00  0.00000000000E+00  0.45593999997E+02  0.45594000000E+02  0.51100000000E-03 0. -1.
         11   -1    0    0    0    0 -0.00000000000E+00 -0.00000000000E+00 -0.45593999997E+02  0.45594000000E+02  0.51100000000E-03 0.  1.
    9900012    2    1    2    0    0  0.52817398547E+01 -0.78328652436E+00 -0.17949076178E+02  0.72461557484E+02  0.69999983312E+02 0.  0.
         12    1    1    2    0    0 -0.52817398547E+01  0.78328652436E+00  0.17949076178E+02  0.18726442516E+02  0.00000000000E+00 0. -1.
         11    1    3    3    0    0  0.30853758097E+01 -0.14051588525E+02 -0.27906167206E+01  0.14654495075E+02  0.51100000000E-03 0. -1.
        -11    1    3    3    0    0  0.20035394794E+02 -0.11733112721E+02 -0.13915133150E+02  0.27068688729E+02  0.51100000000E-03 0.  1.
         12    1    3    3    0    0 -0.17839030749E+02  0.25001414722E+02 -0.12433263079E+01  0.30738373679E+02  0.00000000000E+00 0. -1.
</event>
<event>
 7    1  0.2873608E-013  0.7246151E+02  0.7816164E-02  0.1226708E+00
        -11   -1    0    0    0    0  0.00000000000E+00  0.00000000000E+00  0.45593999997E+02  0.45594000000E+02  0.51100000000E-03 0. -1.
         11   -1    0    0    0    0 -0.00000000000E+00 -0.00000000000E+00 -0.45593999997E+02  0.45594000000E+02  0.51100000000E-03 0.  1.
    9900012    2    1    2    0    0 -0.11271985305E+02  0.77620823354E+01 -0.12781782253E+02  0.72461507203E+02  0.69999917812E+02 0.  0.
         12    1    1    2    0    0  0.11271985305E+02 -0.77620823354E+01  0.12781782253E+02  0.18726492797E+02  0.00000000000E+00 0. -1.
         11    1    3    3    0    0 -0.16219190478E+02 -0.65084717612E+01 -0.60170423842E+01  0.18483158381E+02  0.51100000000E-03 0. -1.
        -11    1    3    3    0    0 -0.20301150248E+02  0.13794948807E+02 -0.13268515261E+02  0.27901448197E+02  0.51100000000E-03 0.  1.
        -12    1    3    3    0    0  0.25248355421E+02  0.47560528938E+00  0.65037753924E+01  0.26076900625E+02  0.00000000000E+00 0.  1.
</event>
<event>
 7    1  0.2873608E-013  0.7246163E+02  0.7816164E-02  0.1226708E+00
        -11   -1    0    0    0    0  0.00000000000E+00  0.00000000000E+00  0.45593999997E+02  0.45594000000E+02  0.51100000000E-03 0.  1.
         11   -1    0    0    0    0 -0.00000000000E+00 -0.00000000000E+00 -0.45593999997E+02  0.45594000000E+02  0.51100000000E-03 0. -1.
    9900012    2    1    2    0    0  0.88004527661E+01 -0.80189710375E+00  0.16510171272E+02  0.72461634542E+02  0.70000083694E+02 0.  0.
         12    1    1    2    0    0 -0.88004527661E+01  0.80189710375E+00 -0.16510171272E+02  0.18726365458E+02  0.00000000000E+00 0. -1.
         11    1    3    3    0    0 -0.11336877396E+02 -0.12100917739E+02 -0.25592183164E+01  0.16778158358E+02  0.51100000000E-03 0. -1.
        -11    1    3    3    0    0 -0.86944762332E+01  0.16180346464E+02 -0.35572079889E+01  0.18709656801E+02  0.51100000000E-03 0.  1.
         12    1    3    3    0    0  0.28831806395E+02 -0.48813258291E+01  0.22626597577E+02  0.36973819383E+02  0.00000000000E+00 0. -1.
</event>
<event>
 7    1  0.2873608E-013  0.7246199E+02  0.7816164E-02  0.1226707E+00
        -11   -1    0    0    0    0  0.00000000000E+00  0.00000000000E+00  0.45593999997E+02  0.45594000000E+02  0.51100000000E-03 0. -1.
         11   -1    0    0    0    0 -0.00000000000E+00 -0.00000000000E+00 -0.45593999997E+02  0.45594000000E+02  0.51100000000E-03 0.  1.
    9900012    2    1    2    0    0  0.12853976587E+02 -0.10595943952E+02  0.85536400349E+01  0.72461988674E+02  0.70000545015E+02 0.  0.
         12    1    1    2    0    0 -0.12853976587E+02  0.10595943952E+02 -0.85536400349E+01  0.18726011326E+02  0.00000000000E+00 0. -1.
         11    1    3    3    0    0  0.93377648269E+01 -0.85297199255E+01  0.11015172913E+02  0.16771523739E+02  0.51100000000E-03 0. -1.
        -11    1    3    3    0    0 -0.24731721601E+02 -0.40058631078E+01 -0.90166175550E+01  0.26627136252E+02  0.51100000000E-03 0.  1.
         12    1    3    3    0    0  0.28247933362E+02  0.19396390813E+01  0.65550846768E+01  0.29063328682E+02  0.00000000000E+00 0. -1.
</event>
<event>
 7    1  0.2873608E-013  0.7246156E+02  0.7816164E-02  0.1226708E+00
        -11   -1    0    0    0    0  0.00000000000E+00  0.00000000000E+00  0.45593999997E+02  0.45594000000E+02  0.51100000000E-03 0.  1.
         11   -1    0    0    0    0 -0.00000000000E+00 -0.00000000000E+00 -0.45593999997E+02  0.45594000000E+02  0.51100000000E-03 0. -1.
    9900012    2    1    2    0    0  0.19957622429E+01  0.82037576105E+01  0.16715109257E+02  0.72461559245E+02  0.69999985607E+02 0.  0.
         12    1    1    2    0    0 -0.19957622429E+01 -0.82037576105E+01 -0.16715109257E+02  0.18726440755E+02  0.00000000000E+00 0. -1.
         11    1    3    3    0    0 -0.14068783330E+02  0.13795164946E+02  0.15917862443E+02  0.25330131963E+02  0.51100000000E-03 0. -1.
        -11    1    3    3    0    0 -0.58294144863E+01  0.15107504806E+02 -0.38526451703E+01  0.16645168962E+02  0.51100000000E-03 0.  1.
         12    1    3    3    0    0  0.21893960059E+02 -0.20698912141E+02  0.46498919840E+01  0.30486258320E+02  0.00000000000E+00 0. -1.
</event>
<event>
 7    1  0.2873608E-013  0.7246155E+02  0.7816164E-02  0.1226708E+00
        -11   -1    0    0    0    0  0.00000000000E+00  0.00000000000E+00  0.45593999997E+02  0.45594000000E+02  0.51100000000E-03 0.  1.
         11   -1    0    0    0    0 -0.00000000000E+00 -0.00000000000E+00 -0.45593999997E+02  0.45594000000E+02  0.51100000000E-03 0. -1.
    9900012    2    1    2    0    0  0.46404218475E+01  0.28867241246E+01  0.17911264337E+02  0.72461545951E+02  0.69999968289E+02 0.  0.
         12    1    1    2    0    0 -0.46404218475E+01 -0.28867241246E+01 -0.17911264337E+02  0.18726454049E+02  0.00000000000E+00 0. -1.
         11    1    3    3    0    0 -0.53904497496E+01 -0.41838786639E+01 -0.18417242665E+01  0.70677958171E+01  0.51100000000E-03 0. -1.
        -11    1    3    3    0    0  0.19903960021E+02 -0.23045424397E+02  0.70963273036E+01  0.31266868593E+02  0.51100000000E-03 0.  1.
         12    1    3    3    0    0 -0.98730884244E+01  0.30116027185E+02  0.12656661300E+02  0.34126881541E+02  0.00000000000E+00 0. -1.
</event>
<event>
 7    1  0.2873608E-013  0.7246166E+02  0.7816164E-02  0.1226708E+00
        -11   -1    0    0    0    0  0.00000000000E+00  0.00000000000E+00  0.45593999997E+02  0.45594000000E+02  0.51100000000E-03 0.  1.
         11   -1    0    0    0    0 -0.00000000000E+00 -0.00000000000E+00 -0.45593999997E+02  0.45594000000E+02  0.51100000000E-03 0. -1.
    9900012    2    1    2    0    0 -0.67481074562E+00 -0.33379270339E+01  0.18414087738E+02  0.72461661499E+02  0.70000118811E+02 0.  0.
         12    1    1    2    0    0  0.67481074562E+00  0.33379270339E+01 -0.18414087738E+02  0.18726338501E+02  0.00000000000E+00 0. -1.
         11    1    3    3    0    0 -0.14005004491E+02 -0.50642115568E+01  0.21807703813E+02  0.26407618888E+02  0.51100000000E-03 0. -1.
        -11    1    3    3    0    0  0.16228340327E+01 -0.13524992933E+01  0.19788834164E+02  0.19901276403E+02  0.51100000000E-03 0.  1.
         12    1    3    3    0    0  0.11707359713E+02  0.30787838161E+01 -0.23182450239E+02  0.26152766208E+02  0.00000000000E+00 0. -1.
</event>
<event>
 7    1  0.2873608E-013  0.7246146E+02  0.7816164E-02  0.1226708E+00
        -11   -1    0    0    0    0  0.00000000000E+00  0.00000000000E+00  0.45593999997E+02  0.45594000000E+02  0.51100000000E-03 0. -1.
         11   -1    0    0    0    0 -0.00000000000E+00 -0.00000000000E+00 -0.45593999997E+02  0.45594000000E+02  0.51100000000E-03 0.  1.
    9900012    2    1    2    0    0 -0.14401376044E+01 -0.12357105919E+02 -0.13996824266E+02  0.72461463947E+02  0.69999861463E+02 0.  0.
         12    1    1    2    0    0  0.14401376044E+01  0.12357105919E+02  0.13996824266E+02  0.18726536053E+02  0.00000000000E+00 0. -1.
         11    1    3    3    0    0  0.15553024656E+02 -0.13259781960E+02  0.11134294234E+02  0.23274254057E+02  0.51100000000E-03 0. -1.
        -11    1    3    3    0    0  0.84260350534E+00  0.21611936376E+01  0.97329547913E+01  0.10005555849E+02  0.51100000000E-03 0.  1.
        -12    1    3    3    0    0 -0.17835765765E+02 -0.12585175959E+01 -0.34864073291E+02  0.39181654041E+02  0.00000000000E+00 0.  1.
</event>
<event>
 7    1  0.2873608E-013  0.7246158E+02  0.7816164E-02  0.1226708E+00
        -11   -1    0    0    0    0  0.00000000000E+00  0.00000000000E+00  0.45593999997E+02  0.45594000000E+02  0.51100000000E-03 0.  1.
         11   -1    0    0    0    0 -0.00000000000E+00 -0.00000000000E+00 -0.45593999997E+02  0.45594000000E+02  0.51100000000E-03 0. -1.
    9900012    2    1    2    0    0  0.48362607170E+01 -0.14791241348E+02  0.10416741888E+02  0.72461581498E+02  0.70000014595E+02 0.  0.
         12    1    1    2    0    0 -0.48362607170E+01  0.14791241348E+02 -0.10416741888E+02  0.18726418502E+02  0.00000000000E+00 0. -1.
         11    1    3    3    0    0 -0.69023832726E+01  0.14431447121E+02 -0.12406885157E+02  0.20244514329E+02  0.51100000000E-03 0. -1.
        -11    1    3    3    0    0  0.51413019725E+01  0.76216332446E+01  0.71100125917E+01  0.11622158087E+02  0.51100000000E-03 0.  1.
        -12    1    3    3    0    0  0.65973420171E+01 -0.36844321714E+02  0.15713614453E+02  0.40594909082E+02  0.00000000000E+00 0.  1.
</event>
<event>
 7    1  0.2873608E-013  0.7246156E+02  0.7816164E-02  0.1226708E+00
        -11   -1    0    0    0    0  0.00000000000E+00  0.00000000000E+00  0.45593999997E+02  0.45594000000E+02  0.51100000000E-03 0. -1.
         11   -1    0    0    0    0 -0.00000000000E+00 -0.00000000000E+00 -0.45593999997E+02  0.45594000000E+02  0.51100000000E-03 0.  1.
    9900012    2    1    2    0    0  0.13096688954E+02 -0.86775201058E+01 -0.10191023812E+02  0.72461559252E+02  0.69999985615E+02 0.  0.
         12    1    1    2    0    0 -0.13096688954E+02  0.86775201058E+01  0.10191023812E+02  0.18726440748E+02  0.00000000000E+00 0. -1.
         11    1    3    3    0    0  0.15973670259E+02 -0.17959273866E+02 -0.18578267465E+01  0.24106952935E+02  0.51100000000E-03 0. -1.
        -11    1    3    3    0    0  0.82065438305E+01 -0.65521184324E+01 -0.22205831848E+02  0.24563725001E+02  0.51100000000E-03 0.  1.
         12    1    3    3    0    0 -0.11083525135E+02  0.15833872192E+02  0.13872634782E+02  0.23790881316E+02  0.00000000000E+00 0. -1.
</event>
<event>
 7    1  0.2873608E-013  0.7246155E+02  0.7816164E-02  0.1226708E+00
        -11   -1    0    0    0    0  0.00000000000E+00  0.00000000000E+00  0.45593999997E+02  0.45594000000E+02  0.51100000000E-03 0. -1.
         11   -1    0    0    0    0 -0.00000000000E+00 -0.00000000000E+00 -0.45593999997E+02  0.45594000000E+02  0.51100000000E-03 0.  1.
    9900012    2    1    2    0    0  0.34548273849E+01  0.55470053560E+01 -0.17549209878E+02  0.72461551644E+02  0.69999975704E+02 0.  0.
         12    1    1    2    0    0 -0.34548273849E+01 -0.55470053560E+01  0.17549209878E+02  0.18726448356E+02  0.00000000000E+00 0. -1.
         11    1    3    3    0    0  0.63340108905E+01  0.53090257441E+00  0.62290476189E+00  0.63866706591E+01  0.51100000000E-03 0. -1.
        -11    1    3    3    0    0  0.11250903873E+02  0.31524665476E+02 -0.10301554303E+02  0.35021556115E+02  0.51100000000E-03 0.  1.
         12    1    3    3    0    0 -0.14130087379E+02 -0.26508562695E+02 -0.78705603367E+01  0.31053324870E+02  0.00000000000E+00 0. -1.
</event>
<event>
 7    1  0.2873608E-013  0.7246158E+02  0.7816164E-02  0.1226708E+00
        -11   -1    0    0    0    0  0.00000000000E+00  0.00000000000E+00  0.45593999997E+02  0.45594000000E+02  0.51100000000E-03 0.  1.
         11   -1    0    0    0    0 -0.00000000000E+00 -0.00000000000E+00 -0.45593999997E+02  0.45594000000E+02  0.51100000000E-03 0. -1.
    9900012    2    1    2    0    0 -0.66589142196E+01 -0.60851377441E+01  0.16410627938E+02  0.72461581516E+02  0.70000014618E+02 0.  0.
         12    1    1    2    0    0  0.66589142196E+01  0.60851377441E+01 -0.16410627938E+02  0.18726418484E+02  0.00000000000E+00 0. -1.
         11    1    3    3    0    0  0.39923719677E+01 -0.13848204407E+02 -0.28177373701E+01  0.14685075531E+02  0.51100000000E-03 0. -1.
        -11    1    3    3    0    0  0.14902673263E+02 -0.13715821719E+02  0.24079031177E+01  0.20396358339E+02  0.51100000000E-03 0.  1.
         12    1    3    3    0    0 -0.25553959450E+02  0.21478888381E+02  0.16820462190E+02  0.37380147645E+02  0.00000000000E+00 0. -1.
</event>
<event>
 7    1  0.2873608E-013  0.7246160E+02  0.7816164E-02  0.1226708E+00
        -11   -1    0    0    0    0  0.00000000000E+00  0.00000000000E+00  0.45593999997E+02  0.45594000000E+02  0.51100000000E-03 0.  1.
         11   -1    0    0    0    0 -0.00000000000E+00 -0.00000000000E+00 -0.45593999997E+02  0.45594000000E+02  0.51100000000E-03 0. -1.
    9900012    2    1    2    0    0 -0.77778814867E+00 -0.18659939233E+02  0.13710473571E+01  0.72461599988E+02  0.70000038681E+02 0.  0.
         12    1    1    2    0    0  0.77778814867E+00  0.18659939233E+02 -0.13710473571E+01  0.18726400012E+02  0.00000000000E+00 0. -1.
         11    1    3    3    0    0 -0.13154800087E+02  0.69932260488E+01  0.12717444162E+01  0.14952301161E+02  0.51100000000E-03 0. -1.
        -11    1    3    3    0    0 -0.18925722374E+02 -0.53659751239E+01  0.37613091817E+01  0.20028082870E+02  0.51100000000E-03 0.  1.
         12    1    3    3    0    0  0.31302734312E+02 -0.20287190158E+02 -0.36620062409E+01  0.37481215957E+02  0.00000000000E+00 0. -1.
</event>
<event>
 7    1  0.2873608E-013  0.7246164E+02  0.7816164E-02  0.1226708E+00
        -11   -1    0    0    0    0  0.00000000000E+00  0.00000000000E+00  0.45593999997E+02  0.45594000000E+02  0.51100000000E-03 0.  1.
         11   -1    0    0    0    0 -0.00000000000E+00 -0.00000000000E+00 -0.45593999997E+02  0.45594000000E+02  0.51100000000E-03 0. -1.
    9900012    2    1    2    0    0 -0.45528930659E+01  0.16253300258E+02  0.81103583671E+01  0.72461641107E+02  0.70000092247E+02 0.  0.
         12    1    1    2    0    0  0.45528930659E+01 -0.16253300258E+02 -0.81103583671E+01  0.18726358893E+02  0.00000000000E+00 0. -1.
         11    1    3    3    0    0 -0.52393130683E+01 -0.29896171705E+01  0.33075870306E+02  0.33621442697E+02  0.51100000000E-03 0.  1.
        -11    1    3    3    0    0  0.11571069001E+02  0.12050123873E+02 -0.13855428535E+02  0.21704101533E+02  0.51100000000E-03 0. -1.
        -12    1    3    3    0    0 -0.10884648999E+02  0.71927935550E+01 -0.11110083404E+02  0.17136096878E+02  0.00000000000E+00 0.  1.
</event>
<event>
 7    1  0.2873608E-013  0.7246157E+02  0.7816164E-02  0.1226708E+00
        -11   -1    0    0    0    0  0.00000000000E+00  0.00000000000E+00  0.45593999997E+02  0.45594000000E+02  0.51100000000E-03 0.  1.
         11   -1    0    0    0    0 -0.00000000000E+00 -0.00000000000E+00 -0.45593999997E+02  0.45594000000E+02  0.51100000000E-03 0. -1.
    9900012    2    1    2    0    0 -0.57149970413E+01  0.17732455787E+02  0.18915347065E+01  0.72461572605E+02  0.70000003010E+02 0.  0.
         12    1    1    2    0    0  0.57149970413E+01 -0.17732455787E+02 -0.18915347065E+01  0.18726427395E+02  0.00000000000E+00 0. -1.
         11    1    3    3    0    0  0.16871995631E+02 -0.18668461469E+01 -0.10265954887E+02  0.19837821985E+02  0.51100000000E-03 0. -1.
        -11    1    3    3    0    0  0.67133627370E+01 -0.44008300893E+01  0.12372168542E+02  0.14748121895E+02  0.51100000000E-03 0.  1.
         12    1    3    3    0    0 -0.29300355409E+02  0.24000132024E+02 -0.21467894863E+00  0.37875628725E+02  0.00000000000E+00 0. -1.
</event>
<event>
 7    1  0.2873608E-013  0.7246154E+02  0.7816164E-02  0.1226708E+00
        -11   -1    0    0    0    0  0.00000000000E+00  0.00000000000E+00  0.45593999997E+02  0.45594000000E+02  0.51100000000E-03 0.  1.
         11   -1    0    0    0    0 -0.00000000000E+00 -0.00000000000E+00 -0.45593999997E+02  0.45594000000E+02  0.51100000000E-03 0. -1.
    9900012    2    1    2    0    0  0.12974422192E+02  0.88191707544E+01  0.10225787247E+02  0.72461544681E+02  0.69999966634E+02 0.  0.
         12    1    1    2    0    0 -0.12974422192E+02 -0.88191707544E+01 -0.10225787247E+02  0.18726455319E+02  0.00000000000E+00 0. -1.
         11    1    3    3    0    0  0.71289602161E+01  0.17075680593E+00 -0.17522320114E+02  0.18917794113E+02  0.51100000000E-03 0. -1.
        -11    1    3    3    0    0 -0.14629945886E+02 -0.52948375665E+01 -0.10051631141E+01  0.15591054314E+02  0.51100000000E-03 0.  1.
        -12    1    3    3    0    0  0.20475407862E+02  0.13943251515E+02  0.28753270475E+02  0.37952696254E+02  0.00000000000E+00 0.  1.
</event>
<event>
 7    1  0.2873608E-013  0.7246161E+02  0.7816164E-02  0.1226708E+00
        -11   -1    0    0    0    0  0.00000000000E+00  0.00000000000E+00  0.45593999997E+02  0.45594000000E+02  0.51100000000E-03 0.  1.
         11   -1    0    0    0    0 -0.00000000000E+00 -0.00000000000E+00 -0.45593999997E+02  0.45594000000E+02  0.51100000000E-03 0. -1.
    9900012    2    1    2    0    0 -0.10690884338E+02  0.14437123314E+02 -0.52869683362E+01  0.72461612957E+02  0.70000055576E+02 0.  0.
         12    1    1    2    0    0  0.10690884338E+02 -0.14437123314E+02  0.52869683362E+01  0.18726387043E+02  0.00000000000E+00 0. -1.
         11    1    3    3    0    0 -0.21437886449E+02 -0.13226061282E+02 -0.58411810027E+01  0.25857901466E+02  0.51100000000E-03 0. -1.
        -11    1    3    3    0    0 -0.56713848437E+01  0.26624046581E+02  0.82462585310E+01  0.28443017463E+02  0.51100000000E-03 0.  1.
         12    1    3    3    0    0  0.16418386955E+02  0.10391380149E+01 -0.76920458645E+01  0.18160694028E+02  0.00000000000E+00 0. -1.
</event>
<event>
 7    1  0.2873608E-013  0.7246160E+02  0.7816164E-02  0.1226708E+00
        -11   -1    0    0    0    0  0.00000000000E+00  0.00000000000E+00  0.45593999997E+02  0.45594000000E+02  0.51100000000E-03 0.  1.
         11   -1    0    0    0    0 -0.00000000000E+00 -0.00000000000E+00 -0.45593999997E+02  0.45594000000E+02  0.51100000000E-03 0. -1.
    9900012    2    1    2    0    0 -0.13750116004E+02 -0.96915297432E+01  0.82271979412E+01  0.72461595517E+02  0.70000032858E+02 0.  0.
         12    1    1    2    0    0  0.13750116004E+02  0.96915297432E+01 -0.82271979412E+01  0.18726404483E+02  0.00000000000E+00 0. -1.
         11    1    3    3    0    0  0.10099732659E+02 -0.51003951157E+01 -0.35620652042E+01  0.11861995570E+02  0.51100000000E-03 0. -1.
        -11    1    3    3    0    0 -0.18841662085E+02 -0.28844611114E+02  0.42619915700E+01  0.34715765768E+02  0.51100000000E-03 0.  1.
        -12    1    3    3    0    0 -0.50081865774E+01  0.24253476486E+02  0.75272715754E+01  0.25883834180E+02  0.00000000000E+00 0.  1.
</event>
<event>
 7    1  0.2873608E-013  0.7246154E+02  0.7816164E-02  0.1226708E+00
        -11   -1    0    0    0    0  0.00000000000E+00  0.00000000000E+00  0.45593999997E+02  0.45594000000E+02  0.51100000000E-03 0. -1.
         11   -1    0    0    0    0 -0.00000000000E+00 -0.00000000000E+00 -0.45593999997E+02  0.45594000000E+02  0.51100000000E-03 0.  1.
    9900012    2    1    2    0    0  0.16717760871E+02 -0.53984487658E+01 -0.64848602472E+01  0.72461543047E+02  0.69999964505E+02 0.  0.
         12    1    1    2    0    0 -0.16717760871E+02  0.53984487658E+01  0.64848602472E+01  0.18726456953E+02  0.00000000000E+00 0. -1.
         11    1    3    3    0    0  0.34358384813E+02 -0.11936181453E+02  0.54814330151E+01  0.36783381340E+02  0.51100000000E-03 0. -1.
        -11    1    3    3    0    0  0.30864275256E+01 -0.54347440994E+01 -0.98273026094E+01  0.11646388073E+02  0.51100000000E-03 0.  1.
        -12    1    3    3    0    0 -0.20727051468E+02  0.11972476787E+02 -0.21389906528E+01  0.24031773634E+02  0.00000000000E+00 0.  1.
</event>
<event>
 7    1  0.2873608E-013  0.7246161E+02  0.7816164E-02  0.1226708E+00
        -11   -1    0    0    0    0  0.00000000000E+00  0.00000000000E+00  0.45593999997E+02  0.45594000000E+02  0.51100000000E-03 0. -1.
         11   -1    0    0    0    0 -0.00000000000E+00 -0.00000000000E+00 -0.45593999997E+02  0.45594000000E+02  0.51100000000E-03 0.  1.
    9900012    2    1    2    0    0  0.11558175459E+02  0.81423637132E+01 -0.12279589979E+02  0.72461605877E+02  0.70000046353E+02 0.  0.
         12    1    1    2    0    0 -0.11558175459E+02 -0.81423637132E+01  0.12279589979E+02  0.18726394123E+02  0.00000000000E+00 0. -1.
         11    1    3    3    0    0 -0.68230510616E+00  0.12127829997E+02  0.14539990852E+02  0.18946269684E+02  0.51100000000E-03 0. -1.
        -11    1    3    3    0    0 -0.45421318340E-01 -0.22490645008E+02 -0.65003083299E+01  0.23411219204E+02  0.51100000000E-03 0.  1.
         12    1    3    3    0    0  0.12285901884E+02  0.18505178724E+02 -0.20319272501E+02  0.30104116989E+02  0.00000000000E+00 0. -1.
</event>
<event>
 7    1  0.2873608E-013  0.7246157E+02  0.7816164E-02  0.1226708E+00
        -11   -1    0    0    0    0  0.00000000000E+00  0.00000000000E+00  0.45593999997E+02  0.45594000000E+02  0.51100000000E-03 0.  1.
         11   -1    0    0    0    0 -0.00000000000E+00 -0.00000000000E+00 -0.45593999997E+02  0.45594000000E+02  0.51100000000E-03 0. -1.
    9900012    2    1    2    0    0  0.14173357086E+02  0.10046691467E+02  0.69899200151E+01  0.72461573690E+02  0.70000004423E+02 0.  0.
         12    1    1    2    0    0 -0.14173357086E+02 -0.10046691467E+02 -0.69899200151E+01  0.18726426310E+02  0.00000000000E+00 0. -1.
         11    1    3    3    0    0 -0.70486082962E+01  0.39961282477E+01 -0.91316236192E+01  0.12208131309E+02  0.51100000000E-03 0. -1.
        -11    1    3    3    0    0 -0.38890959656E+01  0.25135094559E+02  0.12986557612E+02  0.28557813725E+02  0.51100000000E-03 0.  1.
         12    1    3    3    0    0  0.25111061348E+02 -0.19084531339E+02  0.31349860226E+01  0.31695628655E+02  0.00000000000E+00 0. -1.
</event>
<event>
 7    1  0.2873608E-013  0.7246161E+02  0.7816164E-02  0.1226708E+00
        -11   -1    0    0    0    0  0.00000000000E+00  0.00000000000E+00  0.45593999997E+02  0.45594000000E+02  0.51100000000E-03 0.  1.
         11   -1    0    0    0    0 -0.00000000000E+00 -0.00000000000E+00 -0.45593999997E+02  0.45594000000E+02  0.51100000000E-03 0. -1.
    9900012    2    1    2    0    0  0.52401709005E+01  0.14583333708E+02 -0.10514018075E+02  0.72461612490E+02  0.70000054968E+02 0.  0.
         12    1    1    2    0    0 -0.52401709005E+01 -0.14583333708E+02  0.10514018075E+02  0.18726387510E+02  0.00000000000E+00 0. -1.
         11    1    3    3    0    0  0.13893701025E+02  0.22059635922E+02 -0.86542939374E+01  0.27469242236E+02  0.51100000000E-03 0. -1.
        -11    1    3    3    0    0  0.17362282289E+02 -0.66048463397E+01 -0.35294851461E+01  0.18908466545E+02  0.51100000000E-03 0.  1.
        -12    1    3    3    0    0 -0.26015812413E+02 -0.87145587442E+00  0.16697610086E+01  0.26083903709E+02  0.00000000000E+00 0.  1.
</event>
<event>
 7    1  0.2873608E-013  0.7246158E+02  0.7816164E-02  0.1226708E+00
        -11   -1    0    0    0    0  0.00000000000E+00  0.00000000000E+00  0.45593999997E+02  0.45594000000E+02  0.51100000000E-03 0.  1.
         11   -1    0    0    0    0 -0.00000000000E+00 -0.00000000000E+00 -0.45593999997E+02  0.45594000000E+02  0.51100000000E-03 0. -1.
    9900012    2    1    2    0    0 -0.51845367722E+01 -0.27868310494E+01  0.17777315529E+02  0.72461580261E+02  0.70000012983E+02 0.  0.
         12    1    1    2    0    0  0.51845367722E+01  0.27868310494E+01 -0.17777315529E+02  0.18726419739E+02  0.00000000000E+00 0. -1.
         11    1    3    3    0    0  0.32141767445E+01 -0.59898559865E+01 -0.20701833441E+02  0.21789337185E+02  0.51100000000E-03 0. -1.
        -11    1    3    3    0    0 -0.53232561397E+01 -0.89146106024E+01  0.18033860178E+00  0.10384597267E+02  0.51100000000E-03 0.  1.
        -12    1    3    3    0    0 -0.30754573771E+01  0.12117635539E+02  0.38298810369E+02  0.40287645808E+02  0.00000000000E+00 0.  1.
</event>
<event>
 7    1  0.2873608E-013  0.7246167E+02  0.7816164E-02  0.1226708E+00
        -11   -1    0    0    0    0  0.00000000000E+00  0.00000000000E+00  0.45593999997E+02  0.45594000000E+02  0.51100000000E-03 0.  1.
         11   -1    0    0    0    0 -0.00000000000E+00 -0.00000000000E+00 -0.45593999997E+02  0.45594000000E+02  0.51100000000E-03 0. -1.
    9900012    2    1    2    0    0  0.14736479527E+02  0.40993115197E+01  0.10803111751E+02  0.72461670747E+02  0.70000130858E+02 0.  0.
         12    1    1    2    0    0 -0.14736479527E+02 -0.40993115197E+01 -0.10803111751E+02  0.18726329253E+02  0.00000000000E+00 0. -1.
         11    1    3    3    0    0  0.11344233240E+02 -0.87233627795E+01  0.77551211547E+01  0.16276688557E+02  0.51100000000E-03 0. -1.
        -11    1    3    3    0    0 -0.16860697175E+02  0.26966957709E+01  0.21159285245E+02  0.27189531619E+02  0.51100000000E-03 0.  1.
         12    1    3    3    0    0  0.20252943461E+02  0.10125978528E+02 -0.18111294649E+02  0.28995450571E+02  0.00000000000E+00 0. -1.
</event>
<event>
 7    1  0.2873608E-013  0.7246158E+02  0.7816164E-02  0.1226708E+00
        -11   -1    0    0    0    0  0.00000000000E+00  0.00000000000E+00  0.45593999997E+02  0.45594000000E+02  0.51100000000E-03 0.  1.
         11   -1    0    0    0    0 -0.00000000000E+00 -0.00000000000E+00 -0.45593999997E+02  0.45594000000E+02  0.51100000000E-03 0. -1.
    9900012    2    1    2    0    0  0.89080214299E+01  0.90841099946E+01  0.13740633599E+02  0.72461577173E+02  0.70000008961E+02 0.  0.
         12    1    1    2    0    0 -0.89080214299E+01 -0.90841099946E+01 -0.13740633599E+02  0.18726422827E+02  0.00000000000E+00 0. -1.
         11    1    3    3    0    0  0.85080414064E+01  0.13861829199E+01  0.11774692210E+02  0.14592862932E+02  0.51100000000E-03 0. -1.
        -11    1    3    3    0    0  0.22412203248E+01  0.45721452732E+01  0.29581171369E+02  0.30016216963E+02  0.51100000000E-03 0.  1.
         12    1    3    3    0    0 -0.18412403013E+01  0.31257818014E+01 -0.27615229981E+02  0.27852497278E+02  0.00000000000E+00 0. -1.
</event>
<event>
 7    1  0.2873608E-013  0.7246084E+02  0.7816164E-02  0.1226710E+00
        -11   -1    0    0    0    0  0.00000000000E+00  0.00000000000E+00  0.45593999997E+02  0.45594000000E+02  0.51100000000E-03 0.  1.
         11   -1    0    0    0    0 -0.00000000000E+00 -0.00000000000E+00 -0.45593999997E+02  0.45594000000E+02  0.51100000000E-03 0. -1.
    9900012    2    1    2    0    0  0.16670761576E+02  0.54219284216E+01  0.65874950867E+01  0.72460835483E+02  0.69999042765E+02 0.  0.
         12    1    1    2    0    0 -0.16670761576E+02 -0.54219284216E+01 -0.65874950867E+01  0.18727164517E+02  0.00000000000E+00 0. -1.
         11    1    3    3    0    0  0.14257548418E+02 -0.84105693933E+01 -0.14836367559E+02  0.22229106303E+02  0.51100000000E-03 0. -1.
        -11    1    3    3    0    0 -0.16079039896E+02  0.10284521436E+02 -0.30748198818E+01  0.19332910353E+02  0.51100000000E-03 0.  1.
        -12    1    3    3    0    0  0.18492253054E+02  0.35479763790E+01  0.24498682527E+02  0.30898818828E+02  0.00000000000E+00 0.  1.
</event>
<event>
 7    1  0.2873608E-013  0.7246158E+02  0.7816164E-02  0.1226708E+00
        -11   -1    0    0    0    0  0.00000000000E+00  0.00000000000E+00  0.45593999997E+02  0.45594000000E+02  0.51100000000E-03 0. -1.
         11   -1    0    0    0    0 -0.00000000000E+00 -0.00000000000E+00 -0.45593999997E+02  0.45594000000E+02  0.51100000000E-03 0.  1.
    9900012    2    1    2    0    0  0.11011472955E+02 -0.10418120695E+02 -0.10994955072E+02  0.72461579827E+02  0.70000012418E+02 0.  0.
         12    1    1    2    0    0 -0.11011472955E+02  0.10418120695E+02  0.10994955072E+02  0.18726420173E+02  0.00000000000E+00 0. -1.
         11    1    3    3    0    0  0.13318225050E+02  0.32759850553E+00  0.26983773879E+01  0.13592780438E+02  0.51100000000E-03 0.  1.
        -11    1    3    3    0    0 -0.32981876900E+01  0.17763403997E+02  0.10989010030E+02  0.21146510476E+02  0.51100000000E-03 0. -1.
        -12    1    3    3    0    0  0.99143559485E+00 -0.28509123198E+02 -0.24682342490E+02  0.37722288913E+02  0.00000000000E+00 0.  1.
</event>
<event>
 7    1  0.2873608E-013  0.7246152E+02  0.7816164E-02  0.1226708E+00
        -11   -1    0    0    0    0  0.00000000000E+00  0.00000000000E+00  0.45593999997E+02  0.45594000000E+02  0.51100000000E-03 0.  1.
         11   -1    0    0    0    0 -0.00000000000E+00 -0.00000000000E+00 -0.45593999997E+02  0.45594000000E+02  0.51100000000E-03 0. -1.
    9900012    2    1    2    0    0 -0.44996991269E+01  0.18014614533E+02 -0.24305303786E+01  0.72461518565E+02  0.69999932613E+02 0.  0.
         12    1    1    2    0    0  0.44996991269E+01 -0.18014614533E+02  0.24305303786E+01  0.18726481435E+02  0.00000000000E+00 0. -1.
         11    1    3    3    0    0 -0.20353830772E+02  0.27225473586E+02 -0.28944929306E+01  0.34115728465E+02  0.51100000000E-03 0. -1.
        -11    1    3    3    0    0 -0.45151955527E+01 -0.40113344989E+01 -0.12334558851E+02  0.13733868270E+02  0.51100000000E-03 0.  1.
        -12    1    3    3    0    0  0.20369327198E+02 -0.51995245544E+01  0.12798521403E+02  0.24611921831E+02  0.00000000000E+00 0.  1.
</event>
<event>
 7    1  0.2873608E-013  0.7246160E+02  0.7816164E-02  0.1226708E+00
        -11   -1    0    0    0    0  0.00000000000E+00  0.00000000000E+00  0.45593999997E+02  0.45594000000E+02  0.51100000000E-03 0. -1.
         11   -1    0    0    0    0 -0.00000000000E+00 -0.00000000000E+00 -0.45593999997E+02  0.45594000000E+02  0.51100000000E-03 0.  1.
    9900012    2    1    2    0    0  0.17785234334E+02 -0.18772748200E+01 -0.55533074249E+01  0.72461603005E+02  0.70000042612E+02 0.  0.
         12    1    1    2    0    0 -0.17785234334E+02  0.18772748200E+01  0.55533074249E+01  0.18726396995E+02  0.00000000000E+00 0. -1.
         11    1    3    3    0    0  0.29679014064E+02  0.53829305314E+01  0.69971956281E+00  0.30171334486E+02  0.51100000000E-03 0. -1.
        -11    1    3    3    0    0  0.14548859397E+02 -0.38475079296E+01 -0.37626722003E+01  0.15512263838E+02  0.51100000000E-03 0.  1.
        -12    1    3    3    0    0 -0.26442639128E+02 -0.34126974218E+01 -0.24903547874E+01  0.26778004681E+02  0.00000000000E+00 0.  1.
</event>
<event>
 7    1  0.2873608E-013  0.7246158E+02  0.7816164E-02  0.1226708E+00
        -11   -1    0    0    0    0  0.00000000000E+00  0.00000000000E+00  0.45593999997E+02  0.45594000000E+02  0.51100000000E-03 0.  1.
         11   -1    0    0    0    0 -0.00000000000E+00 -0.00000000000E+00 -0.45593999997E+02  0.45594000000E+02  0.51100000000E-03 0. -1.
    9900012    2    1    2    0    0 -0.10504958582E+01  0.17037426328E+02  0.77007409785E+01  0.72461578851E+02  0.70000011146E+02 0.  0.
         12    1    1    2    0    0  0.10504958582E+01 -0.17037426328E+02 -0.77007409785E+01  0.18726421149E+02  0.00000000000E+00 0. -1.
         11    1    3    3    0    0  0.13627392405E+01 -0.13593981784E+02 -0.11687708182E+01  0.13712017520E+02  0.51100000000E-03 0. -1.
        -11    1    3    3    0    0  0.21188705332E+02  0.33832902482E+01  0.73063411976E+01  0.22666947490E+02  0.51100000000E-03 0.  1.
         12    1    3    3    0    0 -0.23601940431E+02  0.27248117864E+02  0.15631705992E+01  0.36082613841E+02  0.00000000000E+00 0. -1.
</event>
<event>
 7    1  0.2873608E-013  0.7246158E+02  0.7816164E-02  0.1226708E+00
        -11   -1    0    0    0    0  0.00000000000E+00  0.00000000000E+00  0.45593999997E+02  0.45594000000E+02  0.51100000000E-03 0. -1.
         11   -1    0    0    0    0 -0.00000000000E+00 -0.00000000000E+00 -0.45593999997E+02  0.45594000000E+02  0.51100000000E-03 0.  1.
    9900012    2    1    2    0    0  0.15745626373E+02  0.76661651398E+01  0.66320450181E+01  0.72461578587E+02  0.70000010802E+02 0.  0.
         12    1    1    2    0    0 -0.15745626373E+02 -0.76661651398E+01 -0.66320450181E+01  0.18726421413E+02  0.00000000000E+00 0. -1.
         11    1    3    3    0    0  0.14633078433E+01 -0.34854842954E+01 -0.22931623046E+01  0.44213645217E+01  0.51100000000E-03 0. -1.
        -11    1    3    3    0    0  0.16263404418E+02 -0.11447946915E+02 -0.22018644913E+02  0.29671106078E+02  0.51100000000E-03 0.  1.
         12    1    3    3    0    0 -0.19810858882E+01  0.22599596350E+02  0.30943852236E+02  0.38369107987E+02  0.00000000000E+00 0. -1.
</event>
<event>
 7    1  0.2873608E-013  0.7246155E+02  0.7816164E-02  0.1226708E+00
        -11   -1    0    0    0    0  0.00000000000E+00  0.00000000000E+00  0.45593999997E+02  0.45594000000E+02  0.51100000000E-03 0. -1.
         11   -1    0    0    0    0 -0.00000000000E+00 -0.00000000000E+00 -0.45593999997E+02  0.45594000000E+02  0.51100000000E-03 0.  1.
    9900012    2    1    2    0    0 -0.18499522738E+02  0.28132901553E+01  0.73007522934E+00  0.72461549379E+02  0.69999972753E+02 0.  0.
         12    1    1    2    0    0  0.18499522738E+02 -0.28132901553E+01 -0.73007522934E+00  0.18726450621E+02  0.00000000000E+00 0. -1.
         11    1    3    3    0    0 -0.69684476790E+01  0.20821895306E+02 -0.16952435054E+01  0.22022362225E+02  0.51100000000E-03 0. -1.
        -11    1    3    3    0    0  0.37216725823E+01  0.97952306151E+01 -0.11714375093E+02  0.15716996332E+02  0.51100000000E-03 0.  1.
        -12    1    3    3    0    0 -0.15252747641E+02 -0.27803835766E+02  0.14139693828E+02  0.34722190821E+02  0.00000000000E+00 0.  1.
</event>
<event>
 7    1  0.2873608E-013  0.7246153E+02  0.7816164E-02  0.1226708E+00
        -11   -1    0    0    0    0  0.00000000000E+00  0.00000000000E+00  0.45593999997E+02  0.45594000000E+02  0.51100000000E-03 0.  1.
         11   -1    0    0    0    0 -0.00000000000E+00 -0.00000000000E+00 -0.45593999997E+02  0.45594000000E+02  0.51100000000E-03 0. -1.
    9900012    2    1    2    0    0 -0.10497199952E+02  0.52479162975E+01  0.14592765960E+02  0.72461530748E+02  0.69999948483E+02 0.  0.
         12    1    1    2    0    0  0.10497199952E+02 -0.52479162975E+01 -0.14592765960E+02  0.18726469252E+02  0.00000000000E+00 0. -1.
         11    1    3    3    0    0 -0.37732405839E+02  0.70304168781E+01  0.53662541931E+01  0.38755101551E+02  0.51100000000E-03 0. -1.
        -11    1    3    3    0    0  0.82970642778E-01 -0.33128085039E+00 -0.36181710664E+01  0.36342527783E+01  0.51100000000E-03 0.  1.
        -12    1    3    3    0    0  0.27152235244E+02 -0.14512197302E+01  0.12844682833E+02  0.30072176419E+02  0.00000000000E+00 0.  1.
</event>
<event>
 7    1  0.2873608E-013  0.7246162E+02  0.7816164E-02  0.1226708E+00
        -11   -1    0    0    0    0  0.00000000000E+00  0.00000000000E+00  0.45593999997E+02  0.45594000000E+02  0.51100000000E-03 0.  1.
         11   -1    0    0    0    0 -0.00000000000E+00 -0.00000000000E+00 -0.45593999997E+02  0.45594000000E+02  0.51100000000E-03 0. -1.
    9900012    2    1    2    0    0  0.12254506431E+02 -0.13627018721E+02 -0.38481929082E+01  0.72461624063E+02  0.70000070043E+02 0.  0.
         12    1    1    2    0    0 -0.12254506431E+02  0.13627018721E+02  0.38481929082E+01  0.18726375937E+02  0.00000000000E+00 0. -1.
         11    1    3    3    0    0 -0.15683925955E+02 -0.68110323570E+01 -0.60549642536E+01  0.18139412546E+02  0.51100000000E-03 0. -1.
        -11    1    3    3    0    0  0.37027093538E+02 -0.51377849145E+01 -0.10296380880E+02  0.38773933888E+02  0.51100000000E-03 0.  1.
         12    1    3    3    0    0 -0.90886611519E+01 -0.16782014494E+01  0.12503152226E+02  0.15548277629E+02  0.00000000000E+00 0. -1.
</event>
<event>
 7    1  0.2873608E-013  0.7246149E+02  0.7816164E-02  0.1226708E+00
        -11   -1    0    0    0    0  0.00000000000E+00  0.00000000000E+00  0.45593999997E+02  0.45594000000E+02  0.51100000000E-03 0.  1.
         11   -1    0    0    0    0 -0.00000000000E+00 -0.00000000000E+00 -0.45593999997E+02  0.45594000000E+02  0.51100000000E-03 0. -1.
    9900012    2    1    2    0    0  0.12583874662E+02 -0.12288132372E+02 -0.64288422079E+01  0.72461491761E+02  0.69999897696E+02 0.  0.
         12    1    1    2    0    0 -0.12583874662E+02  0.12288132372E+02  0.64288422079E+01  0.18726508239E+02  0.00000000000E+00 0. -1.
         11    1    3    3    0    0 -0.26502906572E+01  0.14079645072E+02  0.40528806004E+01  0.14889133196E+02  0.51100000000E-03 0.  1.
        -11    1    3    3    0    0 -0.40864620128E+01 -0.24051460376E+02  0.12538500474E+02  0.27429653888E+02  0.51100000000E-03 0. -1.
         12    1    3    3    0    0  0.19320627332E+02 -0.23163170669E+01 -0.23020223283E+02  0.30142704677E+02  0.00000000000E+00 0. -1.
</event>
<event>
 7    1  0.2873608E-013  0.7246156E+02  0.7816164E-02  0.1226708E+00
        -11   -1    0    0    0    0  0.00000000000E+00  0.00000000000E+00  0.45593999997E+02  0.45594000000E+02  0.51100000000E-03 0. -1.
         11   -1    0    0    0    0 -0.00000000000E+00 -0.00000000000E+00 -0.45593999997E+02  0.45594000000E+02  0.51100000000E-03 0.  1.
    9900012    2    1    2    0    0 -0.33353284040E+01 -0.52069512788E+01 -0.17676046340E+02  0.72461564905E+02  0.69999992979E+02 0.  0.
         12    1    1    2    0    0  0.33353284040E+01  0.52069512788E+01  0.17676046340E+02  0.18726435095E+02  0.00000000000E+00 0. -1.
         11    1    3    3    0    0  0.15293576880E+01  0.46347154880E+01 -0.95732779618E+01  0.10745565308E+02  0.51100000000E-03 0. -1.
        -11    1    3    3    0    0 -0.27873327810E+02 -0.19915736235E+02 -0.11999671209E+02  0.36298086208E+02  0.51100000000E-03 0.  1.
         12    1    3    3    0    0  0.23008641718E+02  0.10074069468E+02  0.38969028311E+01  0.25417913389E+02  0.00000000000E+00 0. -1.
</event>
<event>
 7    1  0.2873608E-013  0.7246157E+02  0.7816164E-02  0.1226708E+00
        -11   -1    0    0    0    0  0.00000000000E+00  0.00000000000E+00  0.45593999997E+02  0.45594000000E+02  0.51100000000E-03 0. -1.
         11   -1    0    0    0    0 -0.00000000000E+00 -0.00000000000E+00 -0.45593999997E+02  0.45594000000E+02  0.51100000000E-03 0.  1.
    9900012    2    1    2    0    0 -0.18283060555E+02 -0.16141666363E+01  0.37152604454E+01  0.72461574891E+02  0.70000005988E+02 0.  0.
         12    1    1    2    0    0  0.18283060555E+02  0.16141666363E+01 -0.37152604454E+01  0.18726425109E+02  0.00000000000E+00 0. -1.
         11    1    3    3    0    0 -0.38782117682E+01 -0.44810943644E+01 -0.12051023345E+01  0.60475619153E+01  0.51100000000E-03 0. -1.
        -11    1    3    3    0    0 -0.35506072045E+02 -0.84866536835E+01  0.16189026332E+02  0.39934809586E+02  0.51100000000E-03 0.  1.
         12    1    3    3    0    0  0.21101223259E+02  0.11353581412E+02 -0.11268663552E+02  0.26479203390E+02  0.00000000000E+00 0. -1.
</event>
<event>
 7    1  0.2873608E-013  0.7246156E+02  0.7816164E-02  0.1226708E+00
        -11   -1    0    0    0    0  0.00000000000E+00  0.00000000000E+00  0.45593999997E+02  0.45594000000E+02  0.51100000000E-03 0.  1.
         11   -1    0    0    0    0 -0.00000000000E+00 -0.00000000000E+00 -0.45593999997E+02  0.45594000000E+02  0.51100000000E-03 0. -1.
    9900012    2    1    2    0    0 -0.45625863703E+01  0.16148179032E+02 -0.83125687166E+01  0.72461556688E+02  0.69999982276E+02 0.  0.
         12    1    1    2    0    0  0.45625863703E+01 -0.16148179032E+02  0.83125687166E+01  0.18726443312E+02  0.00000000000E+00 0. -1.
         11    1    3    3    0    0  0.11560213161E+01  0.20414992015E+02 -0.95927514701E+01  0.22586039167E+02  0.51100000000E-03 0. -1.
        -11    1    3    3    0    0 -0.50379688892E+01 -0.35306955164E+01  0.25197277217E+02  0.25937419316E+02  0.51100000000E-03 0.  1.
         12    1    3    3    0    0 -0.68063879713E+00 -0.73611746635E+00 -0.23917094464E+02  0.23938098205E+02  0.00000000000E+00 0. -1.
</event>
<event>
 7    1  0.2873608E-013  0.7246153E+02  0.7816164E-02  0.1226708E+00
        -11   -1    0    0    0    0  0.00000000000E+00  0.00000000000E+00  0.45593999997E+02  0.45594000000E+02  0.51100000000E-03 0. -1.
         11   -1    0    0    0    0 -0.00000000000E+00 -0.00000000000E+00 -0.45593999997E+02  0.45594000000E+02  0.51100000000E-03 0.  1.
    9900012    2    1    2    0    0 -0.16786310482E+02 -0.31872503014E+01 -0.76643267055E+01  0.72461529753E+02  0.69999947187E+02 0.  0.
         12    1    1    2    0    0  0.16786310482E+02  0.31872503014E+01  0.76643267055E+01  0.18726470247E+02  0.00000000000E+00 0. -1.
         11    1    3    3    0    0 -0.66839207824E+01 -0.31999678166E+02  0.20861239962E+01  0.32756772022E+02  0.51100000000E-03 0. -1.
        -11    1    3    3    0    0 -0.91993514858E+01  0.12419144949E+01 -0.76692019489E+01  0.12041058017E+02  0.51100000000E-03 0.  1.
        -12    1    3    3    0    0 -0.90303821345E+00  0.27570513370E+02 -0.20812487528E+01  0.27663699714E+02  0.00000000000E+00 0.  1.
</event>
<event>
 7    1  0.2873608E-013  0.7246176E+02  0.7816164E-02  0.1226708E+00
        -11   -1    0    0    0    0  0.00000000000E+00  0.00000000000E+00  0.45593999997E+02  0.45594000000E+02  0.51100000000E-03 0.  1.
         11   -1    0    0    0    0 -0.00000000000E+00 -0.00000000000E+00 -0.45593999997E+02  0.45594000000E+02  0.51100000000E-03 0. -1.
    9900012    2    1    2    0    0 -0.66656727720E+01 -0.15664754824E+02 -0.78010414394E+01  0.72461762131E+02  0.70000249902E+02 0.  0.
         12    1    1    2    0    0  0.66656727720E+01  0.15664754824E+02  0.78010414394E+01  0.18726237869E+02  0.00000000000E+00 0. -1.
         11    1    3    3    0    0  0.54556835195E+01  0.10246120877E+02  0.64390738459E+01  0.13274379381E+02  0.51100000000E-03 0. -1.
        -11    1    3    3    0    0 -0.73773079828E+01  0.13676713381E+02  0.28664451326E+01  0.15801698325E+02  0.51100000000E-03 0.  1.
         12    1    3    3    0    0 -0.47440483087E+01 -0.39587589082E+02 -0.17106560418E+02  0.43385684425E+02  0.00000000000E+00 0. -1.
</event>
<event>
 7    1  0.2873608E-013  0.7246119E+02  0.7816164E-02  0.1226709E+00
        -11   -1    0    0    0    0  0.00000000000E+00  0.00000000000E+00  0.45593999997E+02  0.45594000000E+02  0.51100000000E-03 0. -1.
         11   -1    0    0    0    0 -0.00000000000E+00 -0.00000000000E+00 -0.45593999997E+02  0.45594000000E+02  0.51100000000E-03 0.  1.
    9900012    2    1    2    0    0 -0.13883290934E+02  0.57709246104E+00 -0.12554460770E+02  0.72461193329E+02  0.69999508930E+02 0.  0.
         12    1    1    2    0    0  0.13883290934E+02 -0.57709246104E+00  0.12554460770E+02  0.18726806671E+02  0.00000000000E+00 0. -1.
         11    1    3    3    0    0  0.62211388368E+01 -0.62177808768E+00  0.20769049015E+02  0.21689688187E+02  0.51100000000E-03 0. -1.
        -11    1    3    3    0    0  0.56949554759E+01 -0.19506409439E+01  0.24952584445E+01  0.65164279272E+01  0.51100000000E-03 0.  1.
        -12    1    3    3    0    0 -0.25799385247E+02  0.31495114926E+01 -0.35818768229E+02  0.44255077214E+02  0.00000000000E+00 0.  1.
</event>
<event>
 7    1  0.2873608E-013  0.7246161E+02  0.7816164E-02  0.1226708E+00
        -11   -1    0    0    0    0  0.00000000000E+00  0.00000000000E+00  0.45593999997E+02  0.45594000000E+02  0.51100000000E-03 0. -1.
         11   -1    0    0    0    0 -0.00000000000E+00 -0.00000000000E+00 -0.45593999997E+02  0.45594000000E+02  0.51100000000E-03 0.  1.
    9900012    2    1    2    0    0 -0.10075160294E+01  0.83235505680E+01 -0.16744587183E+02  0.72461607327E+02  0.70000048242E+02 0.  0.
         12    1    1    2    0    0  0.10075160294E+01 -0.83235505680E+01  0.16744587183E+02  0.18726392673E+02  0.00000000000E+00 0. -1.
         11    1    3    3    0    0 -0.24371782562E+02  0.18636932846E+02 -0.19246873982E+02  0.36218244152E+02  0.51100000000E-03 0. -1.
        -11    1    3    3    0    0 -0.12831666531E+01  0.65747558059E+00 -0.73740094942E+01  0.75136413995E+01  0.51100000000E-03 0.  1.
        -12    1    3    3    0    0  0.24647433186E+02 -0.10970857859E+02  0.98762962924E+01  0.28729721775E+02  0.00000000000E+00 0.  1.
</event>
<event>
 7    1  0.2873608E-013  0.7246155E+02  0.7816164E-02  0.1226708E+00
        -11   -1    0    0    0    0  0.00000000000E+00  0.00000000000E+00  0.45593999997E+02  0.45594000000E+02  0.51100000000E-03 0.  1.
         11   -1    0    0    0    0 -0.00000000000E+00 -0.00000000000E+00 -0.45593999997E+02  0.45594000000E+02  0.51100000000E-03 0. -1.
    9900012    2    1    2    0    0 -0.78509239608E+01  0.45154527490E+01  0.16390661513E+02  0.72461545306E+02  0.69999967448E+02 0.  0.
         12    1    1    2    0    0  0.78509239608E+01 -0.45154527490E+01 -0.16390661513E+02  0.18726454694E+02  0.00000000000E+00 0. -1.
         11    1    3    3    0    0 -0.40848845435E+01  0.12865163455E+02 -0.73791817529E+01  0.15383466322E+02  0.51100000000E-03 0. -1.
        -11    1    3    3    0    0  0.80455273053E+01  0.92068680552E+01 -0.10953255385E+02  0.16415563737E+02  0.51100000000E-03 0.  1.
        -12    1    3    3    0    0 -0.11811566723E+02 -0.17556578762E+02  0.34723098652E+02  0.40662515247E+02  0.00000000000E+00 0.  1.
</event>
<event>
 7    1  0.2873608E-013  0.7246154E+02  0.7816164E-02  0.1226708E+00
        -11   -1    0    0    0    0  0.00000000000E+00  0.00000000000E+00  0.45593999997E+02  0.45594000000E+02  0.51100000000E-03 0.  1.
         11   -1    0    0    0    0 -0.00000000000E+00 -0.00000000000E+00 -0.45593999997E+02  0.45594000000E+02  0.51100000000E-03 0. -1.
    9900012    2    1    2    0    0  0.14175573368E+02 -0.92948941570E+01  0.79585361503E+01  0.72461541837E+02  0.69999962928E+02 0.  0.
         12    1    1    2    0    0 -0.14175573368E+02  0.92948941570E+01 -0.79585361503E+01  0.18726458163E+02  0.00000000000E+00 0. -1.
         11    1    3    3    0    0 -0.71825723548E+01  0.68962361081E+01 -0.32193693555E+01  0.10464786543E+02  0.51100000000E-03 0. -1.
        -11    1    3    3    0    0 -0.99270491295E+01 -0.25094969976E+02 -0.16350343886E+01  0.27036589286E+02  0.51100000000E-03 0.  1.
         12    1    3    3    0    0  0.31285194852E+02  0.89038397107E+01  0.12812939894E+02  0.34960166007E+02  0.00000000000E+00 0. -1.
</event>
<event>
 7    1  0.2873608E-013  0.7246151E+02  0.7816164E-02  0.1226708E+00
        -11   -1    0    0    0    0  0.00000000000E+00  0.00000000000E+00  0.45593999997E+02  0.45594000000E+02  0.51100000000E-03 0.  1.
         11   -1    0    0    0    0 -0.00000000000E+00 -0.00000000000E+00 -0.45593999997E+02  0.45594000000E+02  0.51100000000E-03 0. -1.
    9900012    2    1    2    0    0  0.30143720212E+01 -0.18472775328E+02 -0.59306124071E+00  0.72461505703E+02  0.69999915858E+02 0.  0.
         12    1    1    2    0    0 -0.30143720212E+01  0.18472775328E+02  0.59306124071E+00  0.18726494297E+02  0.00000000000E+00 0. -1.
         11    1    3    3    0    0  0.95255520348E+01 -0.34620978296E+02 -0.13876320585E+02  0.38495461459E+02  0.51100000000E-03 0. -1.
        -11    1    3    3    0    0 -0.97348803196E+01  0.31330355667E+00 -0.37960455962E+01  0.10453516939E+02  0.51100000000E-03 0.  1.
        -12    1    3    3    0    0  0.32237003060E+01  0.15834899411E+02  0.17079304941E+02  0.23512527305E+02  0.00000000000E+00 0.  1.
</event>
<event>
 7    1  0.2873608E-013  0.7246157E+02  0.7816164E-02  0.1226708E+00
        -11   -1    0    0    0    0  0.00000000000E+00  0.00000000000E+00  0.45593999997E+02  0.45594000000E+02  0.51100000000E-03 0. -1.
         11   -1    0    0    0    0 -0.00000000000E+00 -0.00000000000E+00 -0.45593999997E+02  0.45594000000E+02  0.51100000000E-03 0.  1.
    9900012    2    1    2    0    0  0.15910002760E+02 -0.14338645540E+01 -0.97721635606E+01  0.72461565848E+02  0.69999994208E+02 0.  0.
         12    1    1    2    0    0 -0.15910002760E+02  0.14338645540E+01  0.97721635606E+01  0.18726434152E+02  0.00000000000E+00 0. -1.
         11    1    3    3    0    0  0.85965475194E+01 -0.19600874297E+02 -0.14550844795E+02  0.25880919361E+02  0.51100000000E-03 0. -1.
        -11    1    3    3    0    0  0.46676378991E+01 -0.49221641741E+01  0.18422274497E+02  0.19631473241E+02  0.51100000000E-03 0.  1.
        -12    1    3    3    0    0  0.26458173417E+01  0.23089173917E+02 -0.13643593262E+02  0.26949173246E+02  0.00000000000E+00 0.  1.
</event>
<event>
 7    1  0.2873608E-013  0.7246164E+02  0.7816164E-02  0.1226708E+00
        -11   -1    0    0    0    0  0.00000000000E+00  0.00000000000E+00  0.45593999997E+02  0.45594000000E+02  0.51100000000E-03 0. -1.
         11   -1    0    0    0    0 -0.00000000000E+00 -0.00000000000E+00 -0.45593999997E+02  0.45594000000E+02  0.51100000000E-03 0.  1.
    9900012    2    1    2    0    0  0.37947462980E+01  0.16771781951E+02 -0.74151139180E+01  0.72461636667E+02  0.70000086462E+02 0.  0.
         12    1    1    2    0    0 -0.37947462980E+01 -0.16771781951E+02  0.74151139180E+01  0.18726363333E+02  0.00000000000E+00 0. -1.
         11    1    3    3    0    0  0.71619710341E+01 -0.12835790167E+01  0.31152598658E+01  0.79149383117E+01  0.51100000000E-03 0. -1.
        -11    1    3    3    0    0 -0.13140743331E+02 -0.44780659865E+01 -0.30096632511E+02  0.33144222710E+02  0.51100000000E-03 0.  1.
         12    1    3    3    0    0  0.97735185952E+01  0.22533426954E+02  0.19566258727E+02  0.31402475645E+02  0.00000000000E+00 0. -1.
</event>
<event>
 7    1  0.2873608E-013  0.7246149E+02  0.7816164E-02  0.1226708E+00
        -11   -1    0    0    0    0  0.00000000000E+00  0.00000000000E+00  0.45593999997E+02  0.45594000000E+02  0.51100000000E-03 0. -1.
         11   -1    0    0    0    0 -0.00000000000E+00 -0.00000000000E+00 -0.45593999997E+02  0.45594000000E+02  0.51100000000E-03 0.  1.
    9900012    2    1    2    0    0  0.57029322473E+00 -0.48277557660E+01 -0.18084515185E+02  0.72461490727E+02  0.69999896348E+02 0.  0.
         12    1    1    2    0    0 -0.57029322473E+00  0.48277557660E+01  0.18084515185E+02  0.18726509273E+02  0.00000000000E+00 0. -1.
         11    1    3    3    0    0  0.10410865054E+02 -0.64081354436E+01  0.15808458753E+01  0.12326775125E+02  0.51100000000E-03 0. -1.
        -11    1    3    3    0    0  0.12495271436E+02 -0.21261263786E+02 -0.59565095289E+01  0.25370320299E+02  0.51100000000E-03 0.  1.
         12    1    3    3    0    0 -0.22335843265E+02  0.22841643464E+02 -0.13708851531E+02  0.34764395303E+02  0.00000000000E+00 0. -1.
</event>
<event>
 7    1  0.2873608E-013  0.7246161E+02  0.7816164E-02  0.1226708E+00
        -11   -1    0    0    0    0  0.00000000000E+00  0.00000000000E+00  0.45593999997E+02  0.45594000000E+02  0.51100000000E-03 0. -1.
         11   -1    0    0    0    0 -0.00000000000E+00 -0.00000000000E+00 -0.45593999997E+02  0.45594000000E+02  0.51100000000E-03 0.  1.
    9900012    2    1    2    0    0 -0.94510804392E+01 -0.97812784087E+01 -0.12871724568E+02  0.72461611610E+02  0.70000053821E+02 0.  0.
         12    1    1    2    0    0  0.94510804392E+01  0.97812784087E+01  0.12871724568E+02  0.18726388390E+02  0.00000000000E+00 0. -1.
         11    1    3    3    0    0 -0.48673149659E+01  0.77542215332E+00  0.12873346905E+02  0.13784596305E+02  0.51100000000E-03 0. -1.
        -11    1    3    3    0    0  0.92748057075E+01  0.14188994944E+02  0.41673393176E+01  0.17456125449E+02  0.51100000000E-03 0.  1.
        -12    1    3    3    0    0 -0.13858571181E+02 -0.24745695506E+02 -0.29912410791E+02  0.41220889856E+02  0.00000000000E+00 0.  1.
</event>
<event>
 7    1  0.2873608E-013  0.7246156E+02  0.7816164E-02  0.1226708E+00
        -11   -1    0    0    0    0  0.00000000000E+00  0.00000000000E+00  0.45593999997E+02  0.45594000000E+02  0.51100000000E-03 0.  1.
         11   -1    0    0    0    0 -0.00000000000E+00 -0.00000000000E+00 -0.45593999997E+02  0.45594000000E+02  0.51100000000E-03 0. -1.
    9900012    2    1    2    0    0 -0.45245459468E+01  0.17746354325E+02  0.39082983774E+01  0.72461564032E+02  0.69999991843E+02 0.  0.
         12    1    1    2    0    0  0.45245459468E+01 -0.17746354325E+02 -0.39082983774E+01  0.18726435968E+02  0.00000000000E+00 0. -1.
         11    1    3    3    0    0  0.11893128981E+01  0.29534782965E-01 -0.11701613147E+01  0.16687166436E+01  0.51100000000E-03 0. -1.
        -11    1    3    3    0    0  0.10446489402E+02  0.12541646984E+02  0.33742301652E+02  0.37482862364E+02  0.51100000000E-03 0.  1.
         12    1    3    3    0    0 -0.16160348247E+02  0.51751725576E+01 -0.28663841960E+02  0.33309985025E+02  0.00000000000E+00 0. -1.
</event>
<event>
 7    1  0.2873608E-013  0.7246160E+02  0.7816164E-02  0.1226708E+00
        -11   -1    0    0    0    0  0.00000000000E+00  0.00000000000E+00  0.45593999997E+02  0.45594000000E+02  0.51100000000E-03 0. -1.
         11   -1    0    0    0    0 -0.00000000000E+00 -0.00000000000E+00 -0.45593999997E+02  0.45594000000E+02  0.51100000000E-03 0.  1.
    9900012    2    1    2    0    0  0.60288833574E+01  0.23341612559E+01 -0.17575052278E+02  0.72461596024E+02  0.70000033518E+02 0.  0.
         12    1    1    2    0    0 -0.60288833574E+01 -0.23341612559E+01  0.17575052278E+02  0.18726403976E+02  0.00000000000E+00 0. -1.
         11    1    3    3    0    0 -0.77963265989E+01  0.85653033072E+01  0.13999997709E+02  0.18169949513E+02  0.51100000000E-03 0. -1.
        -11    1    3    3    0    0 -0.67603549942E+01  0.13847317350E+02 -0.10958341000E+02  0.18908618013E+02  0.51100000000E-03 0.  1.
        -12    1    3    3    0    0  0.20585564951E+02 -0.20078459401E+02 -0.20616708987E+02  0.35383028498E+02  0.00000000000E+00 0.  1.
</event>
<event>
 7    1  0.2873608E-013  0.7246155E+02  0.7816164E-02  0.1226708E+00
        -11   -1    0    0    0    0  0.00000000000E+00  0.00000000000E+00  0.45593999997E+02  0.45594000000E+02  0.51100000000E-03 0. -1.
         11   -1    0    0    0    0 -0.00000000000E+00 -0.00000000000E+00 -0.45593999997E+02  0.45594000000E+02  0.51100000000E-03 0.  1.
    9900012    2    1    2    0    0 -0.68089980198E+01 -0.44317635465E+01 -0.16872368764E+02  0.72461553197E+02  0.69999977727E+02 0.  0.
         12    1    1    2    0    0  0.68089980198E+01  0.44317635465E+01  0.16872368764E+02  0.18726446803E+02  0.00000000000E+00 0. -1.
         11    1    3    3    0    0 -0.11508753479E+02  0.95460065620E+01  0.16144716793E+02  0.22005215939E+02  0.51100000000E-03 0. -1.
        -11    1    3    3    0    0 -0.77989646836E+01 -0.14059244006E+02 -0.10259621753E+01  0.16110207659E+02  0.51100000000E-03 0.  1.
        -12    1    3    3    0    0  0.12498720143E+02  0.81473897764E-01 -0.31991123382E+02  0.34346129599E+02  0.00000000000E+00 0.  1.
</event>
<event>
 7    1  0.2873608E-013  0.7246159E+02  0.7816164E-02  0.1226708E+00
        -11   -1    0    0    0    0  0.00000000000E+00  0.00000000000E+00  0.45593999997E+02  0.45594000000E+02  0.51100000000E-03 0.  1.
         11   -1    0    0    0    0 -0.00000000000E+00 -0.00000000000E+00 -0.45593999997E+02  0.45594000000E+02  0.51100000000E-03 0. -1.
    9900012    2    1    2    0    0 -0.83237980942E+01  0.14259807481E+02 -0.88346261407E+01  0.72461592359E+02  0.70000028743E+02 0.  0.
         12    1    1    2    0    0  0.83237980942E+01 -0.14259807481E+02  0.88346261407E+01  0.18726407641E+02  0.00000000000E+00 0. -1.
         11    1    3    3    0    0 -0.17629515692E+02  0.35747036130E+01 -0.30991721844E+01  0.18253306493E+02  0.51100000000E-03 0. -1.
        -11    1    3    3    0    0  0.79357119131E+01 -0.18065203381E+02  0.92116309631E+01  0.21775703020E+02  0.51100000000E-03 0.  1.
         12    1    3    3    0    0  0.13700056843E+01  0.28750307248E+02 -0.14947084919E+02  0.32432582846E+02  0.00000000000E+00 0. -1.
</event>
<event>
 7    1  0.2873608E-013  0.7246156E+02  0.7816164E-02  0.1226708E+00
        -11   -1    0    0    0    0  0.00000000000E+00  0.00000000000E+00  0.45593999997E+02  0.45594000000E+02  0.51100000000E-03 0.  1.
         11   -1    0    0    0    0 -0.00000000000E+00 -0.00000000000E+00 -0.45593999997E+02  0.45594000000E+02  0.51100000000E-03 0. -1.
    9900012    2    1    2    0    0  0.57327523599E+01 -0.17779556588E+02 -0.13047891091E+01  0.72461559957E+02  0.69999986533E+02 0.  0.
         12    1    1    2    0    0 -0.57327523599E+01  0.17779556588E+02  0.13047891091E+01  0.18726440043E+02  0.00000000000E+00 0. -1.
         11    1    3    3    0    0 -0.15211968074E+01 -0.16315217734E+02 -0.18302160558E+02  0.24565615213E+02  0.51100000000E-03 0. -1.
        -11    1    3    3    0    0 -0.10560237380E+01  0.94246640519E+01 -0.12313571654E+02  0.15542314042E+02  0.51100000000E-03 0.  1.
        -12    1    3    3    0    0  0.83099729054E+01 -0.10889002905E+02  0.29310943104E+02  0.32353630702E+02  0.00000000000E+00 0.  1.
</event>
<event>
 7    1  0.2873608E-013  0.7246156E+02  0.7816164E-02  0.1226708E+00
        -11   -1    0    0    0    0  0.00000000000E+00  0.00000000000E+00  0.45593999997E+02  0.45594000000E+02  0.51100000000E-03 0. -1.
         11   -1    0    0    0    0 -0.00000000000E+00 -0.00000000000E+00 -0.45593999997E+02  0.45594000000E+02  0.51100000000E-03 0.  1.
    9900012    2    1    2    0    0 -0.61223285486E+01 -0.17552462107E+02 -0.22600270796E+01  0.72461559995E+02  0.69999986583E+02 0.  0.
         12    1    1    2    0    0  0.61223285486E+01  0.17552462107E+02  0.22600270796E+01  0.18726440005E+02  0.00000000000E+00 0. -1.
         11    1    3    3    0    0 -0.54527079576E+01  0.15441528621E+02 -0.77680839830E+01  0.18125009221E+02  0.51100000000E-03 0. -1.
        -11    1    3    3    0    0 -0.89416916318E+00  0.27339549476E+01 -0.13543664773E+02  0.13845754003E+02  0.51100000000E-03 0.  1.
         12    1    3    3    0    0  0.22454857221E+00 -0.35727945676E+02  0.19051721677E+02  0.40490796771E+02  0.00000000000E+00 0. -1.
</event>
<event>
 7    1  0.2873608E-013  0.7246150E+02  0.7816164E-02  0.1226708E+00
        -11   -1    0    0    0    0  0.00000000000E+00  0.00000000000E+00  0.45593999997E+02  0.45594000000E+02  0.51100000000E-03 0. -1.
         11   -1    0    0    0    0 -0.00000000000E+00 -0.00000000000E+00 -0.45593999997E+02  0.45594000000E+02  0.51100000000E-03 0.  1.
    9900012    2    1    2    0    0  0.41746993267E+01  0.23510147003E+01  0.18103212346E+02  0.72461503215E+02  0.69999912616E+02 0.  0.
         12    1    1    2    0    0 -0.41746993267E+01 -0.23510147003E+01 -0.18103212346E+02  0.18726496785E+02  0.00000000000E+00 0. -1.
         11    1    3    3    0    0 -0.11462924954E+02 -0.44313231978E+01 -0.56642261146E+01  0.13532136990E+02  0.51100000000E-03 0. -1.
        -11    1    3    3    0    0  0.16041041101E+02  0.45769520372E+01 -0.13582884041E+02  0.21511816025E+02  0.51100000000E-03 0.  1.
         12    1    3    3    0    0 -0.40341681983E+00  0.22053858609E+01  0.37350322502E+02  0.37417550200E+02  0.00000000000E+00 0. -1.
</event>
<event>
 7    1  0.2873608E-013  0.7246179E+02  0.7816164E-02  0.1226707E+00
        -11   -1    0    0    0    0  0.00000000000E+00  0.00000000000E+00  0.45593999997E+02  0.45594000000E+02  0.51100000000E-03 0. -1.
         11   -1    0    0    0    0 -0.00000000000E+00 -0.00000000000E+00 -0.45593999997E+02  0.45594000000E+02  0.51100000000E-03 0.  1.
    9900012    2    1    2    0    0  0.43326055095E+01  0.79849217769E+01 -0.16374991096E+02  0.72461794306E+02  0.70000291816E+02 0.  0.
         12    1    1    2    0    0 -0.43326055095E+01 -0.79849217769E+01  0.16374991096E+02  0.18726205694E+02  0.00000000000E+00 0. -1.
         11    1    3    3    0    0  0.71961166328E+00  0.11917928511E+01  0.13113847779E+02  0.13187540142E+02  0.51100000000E-03 0. -1.
        -11    1    3    3    0    0 -0.88008063007E+01 -0.18316240571E+02 -0.26710441574E+01  0.20495690702E+02  0.51100000000E-03 0.  1.
         12    1    3    3    0    0  0.12413800147E+02  0.25109369497E+02 -0.26817794719E+02  0.38778563462E+02  0.00000000000E+00 0. -1.
</event>
<event>
 7    1  0.2873608E-013  0.7246158E+02  0.7816164E-02  0.1226708E+00
        -11   -1    0    0    0    0  0.00000000000E+00  0.00000000000E+00  0.45593999997E+02  0.45594000000E+02  0.51100000000E-03 0. -1.
         11   -1    0    0    0    0 -0.00000000000E+00 -0.00000000000E+00 -0.45593999997E+02  0.45594000000E+02  0.51100000000E-03 0.  1.
    9900012    2    1    2    0    0 -0.14723844920E+02  0.25353802975E+01 -0.11289772448E+02  0.72461582179E+02  0.70000015482E+02 0.  0.
         12    1    1    2    0    0  0.14723844920E+02 -0.25353802975E+01  0.11289772448E+02  0.18726417821E+02  0.00000000000E+00 0. -1.
         11    1    3    3    0    0 -0.24103582193E+02 -0.37385869222E+01  0.16354822162E+01  0.24446564361E+02  0.51100000000E-03 0. -1.
        -11    1    3    3    0    0 -0.83887790871E+01  0.21334981583E+02 -0.56238714985E+01  0.23604681413E+02  0.51100000000E-03 0.  1.
        -12    1    3    3    0    0  0.17768516360E+02 -0.15061014363E+02 -0.73013831653E+01  0.24410336405E+02  0.00000000000E+00 0.  1.
</event>
<event>
 7    1  0.2873608E-013  0.7246156E+02  0.7816164E-02  0.1226708E+00
        -11   -1    0    0    0    0  0.00000000000E+00  0.00000000000E+00  0.45593999997E+02  0.45594000000E+02  0.51100000000E-03 0.  1.
         11   -1    0    0    0    0 -0.00000000000E+00 -0.00000000000E+00 -0.45593999997E+02  0.45594000000E+02  0.51100000000E-03 0. -1.
    9900012    2    1    2    0    0 -0.10615976824E+02 -0.11487141550E+02  0.10296900738E+02  0.72461560143E+02  0.69999986776E+02 0.  0.
         12    1    1    2    0    0  0.10615976824E+02  0.11487141550E+02 -0.10296900738E+02  0.18726439857E+02  0.00000000000E+00 0. -1.
         11    1    3    3    0    0  0.50492435084E+01 -0.16433390635E+02 -0.17838484970E+02  0.24774235287E+02  0.51100000000E-03 0. -1.
        -11    1    3    3    0    0  0.66601745158E+00 -0.13509067580E+02  0.13040593501E+02  0.18788176209E+02  0.51100000000E-03 0.  1.
         12    1    3    3    0    0 -0.16331237784E+02  0.18455316665E+02  0.15094792206E+02  0.28899148647E+02  0.00000000000E+00 0. -1.
</event>
<event>
 7    1  0.2873608E-013  0.7246105E+02  0.7816164E-02  0.1226709E+00
        -11   -1    0    0    0    0  0.00000000000E+00  0.00000000000E+00  0.45593999997E+02  0.45594000000E+02  0.51100000000E-03 0.  1.
         11   -1    0    0    0    0 -0.00000000000E+00 -0.00000000000E+00 -0.45593999997E+02  0.45594000000E+02  0.51100000000E-03 0. -1.
    9900012    2    1    2    0    0  0.43757775763E+01  0.25341619079E+01  0.18031345046E+02  0.72461045893E+02  0.69999316866E+02 0.  0.
         12    1    1    2    0    0 -0.43757775763E+01 -0.25341619079E+01 -0.18031345046E+02  0.18726954107E+02  0.00000000000E+00 0. -1.
         11    1    3    3    0    0  0.29327628908E+02  0.11560441991E+02  0.42039888827E+01  0.31802942619E+02  0.51100000000E-03 0. -1.
        -11    1    3    3    0    0 -0.17027555365E+01  0.22068370951E+01 -0.69678939526E+01  0.75047353570E+01  0.51100000000E-03 0.  1.
        -12    1    3    3    0    0 -0.23249095796E+02 -0.11233117178E+02  0.20795250116E+02  0.33153367917E+02  0.00000000000E+00 0.  1.
</event>
<event>
 7    1  0.2873608E-013  0.7246160E+02  0.7816164E-02  0.1226708E+00
        -11   -1    0    0    0    0  0.00000000000E+00  0.00000000000E+00  0.45593999997E+02  0.45594000000E+02  0.51100000000E-03 0.  1.
         11   -1    0    0    0    0 -0.00000000000E+00 -0.00000000000E+00 -0.45593999997E+02  0.45594000000E+02  0.51100000000E-03 0. -1.
    9900012    2    1    2    0    0  0.47869414530E+01  0.15456197892E+02  0.94270525614E+01  0.72461596669E+02  0.70000034357E+02 0.  0.
         12    1    1    2    0    0 -0.47869414530E+01 -0.15456197892E+02 -0.94270525614E+01  0.18726403331E+02  0.00000000000E+00 0. -1.
         11    1    3    3    0    0  0.21187824504E+01  0.56711033385E+01 -0.66784301278E+01  0.90139936422E+01  0.51100000000E-03 0. -1.
        -11    1    3    3    0    0 -0.76833398021E+01  0.33248807004E+02  0.20113343230E+01  0.34184241161E+02  0.51100000000E-03 0.  1.
         12    1    3    3    0    0  0.10351498805E+02 -0.23463712451E+02  0.14094148366E+02  0.29263361865E+02  0.00000000000E+00 0. -1.
</event>
<event>
 7    1  0.2873608E-013  0.7246163E+02  0.7816164E-02  0.1226708E+00
        -11   -1    0    0    0    0  0.00000000000E+00  0.00000000000E+00  0.45593999997E+02  0.45594000000E+02  0.51100000000E-03 0.  1.
         11   -1    0    0    0    0 -0.00000000000E+00 -0.00000000000E+00 -0.45593999997E+02  0.45594000000E+02  0.51100000000E-03 0. -1.
    9900012    2    1    2    0    0 -0.17873440342E+02 -0.27381664390E+01  0.48702739724E+01  0.72461628390E+02  0.70000075680E+02 0.  0.
         12    1    1    2    0    0  0.17873440342E+02  0.27381664390E+01 -0.48702739724E+01  0.18726371610E+02  0.00000000000E+00 0. -1.
         11    1    3    3    0    0 -0.30384417020E+02 -0.20113095557E+02  0.18921467164E+02  0.41058145726E+02  0.51100000000E-03 0. -1.
        -11    1    3    3    0    0 -0.16221467854E+01  0.52238607867E+01  0.29160834019E+01  0.61986792449E+01  0.51100000000E-03 0.  1.
         12    1    3    3    0    0  0.14133123463E+02  0.12151068331E+02 -0.16967276593E+02  0.25204803419E+02  0.00000000000E+00 0. -1.
</event>
<event>
 7    1  0.2873608E-013  0.7246118E+02  0.7816164E-02  0.1226709E+00
        -11   -1    0    0    0    0  0.00000000000E+00  0.00000000000E+00  0.45593999997E+02  0.45594000000E+02  0.51100000000E-03 0. -1.
         11   -1    0    0    0    0 -0.00000000000E+00 -0.00000000000E+00 -0.45593999997E+02  0.45594000000E+02  0.51100000000E-03 0.  1.
    9900012    2    1    2    0    0  0.18657067620E+02  0.10843252082E+01  0.11965628062E+01  0.72461182441E+02  0.69999494748E+02 0.  0.
         12    1    1    2    0    0 -0.18657067620E+02 -0.10843252082E+01 -0.11965628062E+01  0.18726817559E+02  0.00000000000E+00 0. -1.
         11    1    3    3    0    0 -0.15606043139E+02  0.12477151482E+02  0.18946211527E+02  0.27535192446E+02  0.51100000000E-03 0. -1.
        -11    1    3    3    0    0 -0.23216366019E+01  0.10166588494E+01 -0.19061780293E+01  0.31712941629E+01  0.51100000000E-03 0.  1.
        -12    1    3    3    0    0  0.36584747361E+02 -0.12409485123E+02 -0.15843470692E+02  0.41754695832E+02  0.00000000000E+00 0.  1.
</event>
<event>
 7    1  0.2873608E-013  0.7246154E+02  0.7816164E-02  0.1226708E+00
        -11   -1    0    0    0    0  0.00000000000E+00  0.00000000000E+00  0.45593999997E+02  0.45594000000E+02  0.51100000000E-03 0. -1.
         11   -1    0    0    0    0 -0.00000000000E+00 -0.00000000000E+00 -0.45593999997E+02  0.45594000000E+02  0.51100000000E-03 0.  1.
    9900012    2    1    2    0    0 -0.88932084748E+01 -0.24711036160E+01 -0.16293702242E+02  0.72461541637E+02  0.69999962669E+02 0.  0.
         12    1    1    2    0    0  0.88932084748E+01  0.24711036160E+01  0.16293702242E+02  0.18726458363E+02  0.00000000000E+00 0. -1.
         11    1    3    3    0    0 -0.12307666423E+02  0.95628557225E+01 -0.10493101533E+02  0.18789146931E+02  0.51100000000E-03 0. -1.
        -11    1    3    3    0    0 -0.23307229112E+02 -0.12115900361E+02 -0.60218383079E+01  0.26949666182E+02  0.51100000000E-03 0.  1.
        -12    1    3    3    0    0  0.26721687061E+02  0.81941022110E-01  0.22123759901E+00  0.26722728524E+02  0.00000000000E+00 0.  1.
</event>
<event>
 7    1  0.2873608E-013  0.7246153E+02  0.7816164E-02  0.1226708E+00
        -11   -1    0    0    0    0  0.00000000000E+00  0.00000000000E+00  0.45593999997E+02  0.45594000000E+02  0.51100000000E-03 0.  1.
         11   -1    0    0    0    0 -0.00000000000E+00 -0.00000000000E+00 -0.45593999997E+02  0.45594000000E+02  0.51100000000E-03 0. -1.
    9900012    2    1    2    0    0  0.21182733701E+01  0.39927372986E+01  0.18172830481E+02  0.72461526736E+02  0.69999943257E+02 0.  0.
         12    1    1    2    0    0 -0.21182733701E+01 -0.39927372986E+01 -0.18172830481E+02  0.18726473264E+02  0.00000000000E+00 0. -1.
         11    1    3    3    0    0 -0.68670646753E+01 -0.95450119743E+01  0.75806217877E+01  0.13990341590E+02  0.51100000000E-03 0. -1.
        -11    1    3    3    0    0  0.22510120782E+02 -0.12357588591E+02 -0.37064479090E+01  0.25945197817E+02  0.51100000000E-03 0.  1.
        -12    1    3    3    0    0 -0.13524782736E+02  0.25895337864E+02  0.14298656603E+02  0.32525987330E+02  0.00000000000E+00 0.  1.
</event>
<event>
 7    1  0.2873608E-013  0.7246165E+02  0.7816164E-02  0.1226708E+00
        -11   -1    0    0    0    0  0.00000000000E+00  0.00000000000E+00  0.45593999997E+02  0.45594000000E+02  0.51100000000E-03 0.  1.
         11   -1    0    0    0    0 -0.00000000000E+00 -0.00000000000E+00 -0.45593999997E+02  0.45594000000E+02  0.51100000000E-03 0. -1.
    9900012    2    1    2    0    0  0.13548994637E+02 -0.18354474040E+01  0.12795780116E+02  0.72461651941E+02  0.70000106360E+02 0.  0.
         12    1    1    2    0    0 -0.13548994637E+02  0.18354474040E+01 -0.12795780116E+02  0.18726348059E+02  0.00000000000E+00 0. -1.
         11    1    3    3    0    0 -0.60869267315E+01 -0.22832998806E+01 -0.13690218390E+01  0.66436704039E+01  0.51100000000E-03 0. -1.
        -11    1    3    3    0    0 -0.15192143273E+02  0.19262742858E+02  0.76676218955E+01  0.25703052453E+02  0.51100000000E-03 0.  1.
         12    1    3    3    0    0  0.34828064641E+02 -0.18814890381E+02  0.64971800595E+01  0.40114929084E+02  0.00000000000E+00 0. -1.
</event>
<event>
 7    1  0.2873608E-013  0.7246140E+02  0.7816164E-02  0.1226708E+00
        -11   -1    0    0    0    0  0.00000000000E+00  0.00000000000E+00  0.45593999997E+02  0.45594000000E+02  0.51100000000E-03 0.  1.
         11   -1    0    0    0    0 -0.00000000000E+00 -0.00000000000E+00 -0.45593999997E+02  0.45594000000E+02  0.51100000000E-03 0. -1.
    9900012    2    1    2    0    0 -0.15771543808E+02 -0.76786427519E+01  0.65560847152E+01  0.72461404063E+02  0.69999783453E+02 0.  0.
         12    1    1    2    0    0  0.15771543808E+02  0.76786427519E+01 -0.65560847152E+01  0.18726595937E+02  0.00000000000E+00 0. -1.
         11    1    3    3    0    0  0.40900023779E+01 -0.12110203232E+02  0.80170531231E+01  0.15088349240E+02  0.51100000000E-03 0. -1.
        -11    1    3    3    0    0  0.45573407839E+01 -0.18367031787E+02 -0.11921690525E+02  0.22366133258E+02  0.51100000000E-03 0.  1.
         12    1    3    3    0    0 -0.24418886970E+02  0.22798592267E+02  0.10460722117E+02  0.35006921564E+02  0.00000000000E+00 0. -1.
</event>
<event>
 7    1  0.2873608E-013  0.7246157E+02  0.7816164E-02  0.1226708E+00
        -11   -1    0    0    0    0  0.00000000000E+00  0.00000000000E+00  0.45593999997E+02  0.45594000000E+02  0.51100000000E-03 0.  1.
         11   -1    0    0    0    0 -0.00000000000E+00 -0.00000000000E+00 -0.45593999997E+02  0.45594000000E+02  0.51100000000E-03 0. -1.
    9900012    2    1    2    0    0 -0.13052670211E+02  0.13342218945E+02  0.15140305084E+01  0.72461566960E+02  0.69999995656E+02 0.  0.
         12    1    1    2    0    0  0.13052670211E+02 -0.13342218945E+02 -0.15140305084E+01  0.18726433040E+02  0.00000000000E+00 0. -1.
         11    1    3    3    0    0 -0.20888042302E+02 -0.50855188851E+01 -0.35723605973E+01  0.21792993692E+02  0.51100000000E-03 0. -1.
        -11    1    3    3    0    0 -0.16395394291E+02  0.15850933435E+02  0.11401465005E+02  0.25496165384E+02  0.51100000000E-03 0.  1.
        -12    1    3    3    0    0  0.24230766382E+02  0.25768043949E+01 -0.63150738995E+01  0.25172407885E+02  0.00000000000E+00 0.  1.
</event>
<event>
 7    1  0.2873608E-013  0.7246160E+02  0.7816164E-02  0.1226708E+00
        -11   -1    0    0    0    0  0.00000000000E+00  0.00000000000E+00  0.45593999997E+02  0.45594000000E+02  0.51100000000E-03 0.  1.
         11   -1    0    0    0    0 -0.00000000000E+00 -0.00000000000E+00 -0.45593999997E+02  0.45594000000E+02  0.51100000000E-03 0. -1.
    9900012    2    1    2    0    0 -0.92115071727E+00  0.12963484631E+02  0.13482495812E+02  0.72461597629E+02  0.70000035609E+02 0.  0.
         12    1    1    2    0    0  0.92115071727E+00 -0.12963484631E+02 -0.13482495812E+02  0.18726402371E+02  0.00000000000E+00 0. -1.
         11    1    3    3    0    0  0.17561061278E+02  0.40779366481E+01  0.63057934915E+01  0.19099305545E+02  0.51100000000E-03 0. -1.
        -11    1    3    3    0    0 -0.21022480440E+02  0.58159386908E+01  0.26105537707E+02  0.34018655557E+02  0.51100000000E-03 0.  1.
         12    1    3    3    0    0  0.25402684451E+01  0.30696092924E+01 -0.18928835386E+02  0.19343636526E+02  0.00000000000E+00 0. -1.
</event>
<event>
 7    1  0.2873608E-013  0.7246107E+02  0.7816164E-02  0.1226709E+00
        -11   -1    0    0    0    0  0.00000000000E+00  0.00000000000E+00  0.45593999997E+02  0.45594000000E+02  0.51100000000E-03 0. -1.
         11   -1    0    0    0    0 -0.00000000000E+00 -0.00000000000E+00 -0.45593999997E+02  0.45594000000E+02  0.51100000000E-03 0.  1.
    9900012    2    1    2    0    0 -0.99982799749E+01 -0.97540435681E+01 -0.12473616980E+02  0.72461065148E+02  0.69999341950E+02 0.  0.
         12    1    1    2    0    0  0.99982799749E+01  0.97540435681E+01  0.12473616980E+02  0.18726934852E+02  0.00000000000E+00 0. -1.
         11    1    3    3    0    0 -0.91756187020E+01 -0.18741618956E+02 -0.31146590371E+02  0.37490670195E+02  0.51100000000E-03 0.  1.
        -11    1    3    3    0    0 -0.12506505567E+02 -0.15538453826E+01  0.34281179195E+01  0.13060593773E+02  0.51100000000E-03 0. -1.
        -12    1    3    3    0    0  0.11683844295E+02  0.10541420771E+02  0.15244855472E+02  0.21909801179E+02  0.00000000000E+00 0.  1.
</event>
<event>
 7    1  0.2873608E-013  0.7246157E+02  0.7816164E-02  0.1226708E+00
        -11   -1    0    0    0    0  0.00000000000E+00  0.00000000000E+00  0.45593999997E+02  0.45594000000E+02  0.51100000000E-03 0.  1.
         11   -1    0    0    0    0 -0.00000000000E+00 -0.00000000000E+00 -0.45593999997E+02  0.45594000000E+02  0.51100000000E-03 0. -1.
    9900012    2    1    2    0    0 -0.57489954342E+01  0.29497752410E+01  0.17576318076E+02  0.72461572696E+02  0.70000003128E+02 0.  0.
         12    1    1    2    0    0  0.57489954342E+01 -0.29497752410E+01 -0.17576318076E+02  0.18726427304E+02  0.00000000000E+00 0. -1.
         11    1    3    3    0    0  0.94920913524E+01  0.19767174228E+01  0.24554112955E+02  0.26399084705E+02  0.51100000000E-03 0. -1.
        -11    1    3    3    0    0  0.34717675865E+00  0.28856756852E+01  0.17083656231E+02  0.17329136342E+02  0.51100000000E-03 0.  1.
         12    1    3    3    0    0 -0.15588263545E+02 -0.19126178669E+01 -0.24061451110E+02  0.28733351649E+02  0.00000000000E+00 0. -1.
</event>
<event>
 7    1  0.2873608E-013  0.7246156E+02  0.7816164E-02  0.1226708E+00
        -11   -1    0    0    0    0  0.00000000000E+00  0.00000000000E+00  0.45593999997E+02  0.45594000000E+02  0.51100000000E-03 0. -1.
         11   -1    0    0    0    0 -0.00000000000E+00 -0.00000000000E+00 -0.45593999997E+02  0.45594000000E+02  0.51100000000E-03 0.  1.
    9900012    2    1    2    0    0 -0.21357210309E+01  0.24786764952E+01 -0.18438395454E+02  0.72461559644E+02  0.69999986127E+02 0.  0.
         12    1    1    2    0    0  0.21357210309E+01 -0.24786764952E+01  0.18438395454E+02  0.18726440356E+02  0.00000000000E+00 0. -1.
         11    1    3    3    0    0  0.96614235223E+01 -0.83932854429E+00  0.22113809989E-01  0.96978382212E+01  0.51100000000E-03 0. -1.
        -11    1    3    3    0    0  0.71138080801E+01  0.13400593417E+01 -0.36105331887E+02  0.36823864753E+02  0.51100000000E-03 0.  1.
         12    1    3    3    0    0 -0.18910952633E+02  0.19779456977E+01  0.17644822623E+02  0.25939856670E+02  0.00000000000E+00 0. -1.
</event>
<event>
 7    1  0.2873608E-013  0.7246153E+02  0.7816164E-02  0.1226708E+00
        -11   -1    0    0    0    0  0.00000000000E+00  0.00000000000E+00  0.45593999997E+02  0.45594000000E+02  0.51100000000E-03 0.  1.
         11   -1    0    0    0    0 -0.00000000000E+00 -0.00000000000E+00 -0.45593999997E+02  0.45594000000E+02  0.51100000000E-03 0. -1.
    9900012    2    1    2    0    0 -0.57603052158E+01  0.93245115243E+01  0.15183967620E+02  0.72461534663E+02  0.69999953583E+02 0.  0.
         12    1    1    2    0    0  0.57603052158E+01 -0.93245115243E+01 -0.15183967620E+02  0.18726465337E+02  0.00000000000E+00 0. -1.
         11    1    3    3    0    0  0.62050252775E+01  0.19765471367E+02  0.15374668732E+02  0.25798384367E+02  0.51100000000E-03 0. -1.
        -11    1    3    3    0    0 -0.14582886020E+01 -0.13567566198E+02  0.19692435940E+02  0.23958244754E+02  0.51100000000E-03 0.  1.
        -12    1    3    3    0    0 -0.10507041891E+02  0.31266063549E+01 -0.19883137053E+02  0.22704905542E+02  0.00000000000E+00 0.  1.
</event>
<event>
 7    1  0.2873608E-013  0.7246153E+02  0.7816164E-02  0.1226708E+00
        -11   -1    0    0    0    0  0.00000000000E+00  0.00000000000E+00  0.45593999997E+02  0.45594000000E+02  0.51100000000E-03 0.  1.
         11   -1    0    0    0    0 -0.00000000000E+00 -0.00000000000E+00 -0.45593999997E+02  0.45594000000E+02  0.51100000000E-03 0. -1.
    9900012    2    1    2    0    0  0.12450994335E+02 -0.41269605290E+01  0.13364939409E+02  0.72461530270E+02  0.69999947861E+02 0.  0.
         12    1    1    2    0    0 -0.12450994335E+02  0.41269605290E+01 -0.13364939409E+02  0.18726469730E+02  0.00000000000E+00 0. -1.
         11    1    3    3    0    0 -0.49754390850E+01 -0.19736411105E+02  0.85229596371E+01  0.22066303692E+02  0.51100000000E-03 0. -1.
        -11    1    3    3    0    0  0.54216213246E+01 -0.15632691385E+02  0.34196215381E+01  0.16895822841E+02  0.51100000000E-03 0.  1.
        -12    1    3    3    0    0  0.12004812096E+02  0.31242141962E+02  0.14223582336E+01  0.33499403737E+02  0.00000000000E+00 0.  1.
</event>
<event>
 7    1  0.2873608E-013  0.7246165E+02  0.7816164E-02  0.1226708E+00
        -11   -1    0    0    0    0  0.00000000000E+00  0.00000000000E+00  0.45593999997E+02  0.45594000000E+02  0.51100000000E-03 0. -1.
         11   -1    0    0    0    0 -0.00000000000E+00 -0.00000000000E+00 -0.45593999997E+02  0.45594000000E+02  0.51100000000E-03 0.  1.
    9900012    2    1    2    0    0 -0.98215022436E+01 -0.52066583011E-01 -0.15944009106E+02  0.72461653757E+02  0.70000108725E+02 0.  0.
         12    1    1    2    0    0  0.98215022436E+01  0.52066583011E-01  0.15944009106E+02  0.18726346243E+02  0.00000000000E+00 0. -1.
         11    1    3    3    0    0  0.11144242978E+02  0.56033947224E+00 -0.68771374328E+01  0.13107370118E+02  0.51100000000E-03 0. -1.
        -11    1    3    3    0    0  0.35645440660E+01  0.30707884181E+01 -0.27847013890E+02  0.28241669546E+02  0.51100000000E-03 0.  1.
         12    1    3    3    0    0 -0.24530289287E+02 -0.36831944734E+01  0.18780142217E+02  0.31112614093E+02  0.00000000000E+00 0. -1.
</event>
<event>
 7    1  0.2873608E-013  0.7246158E+02  0.7816164E-02  0.1226708E+00
        -11   -1    0    0    0    0  0.00000000000E+00  0.00000000000E+00  0.45593999997E+02  0.45594000000E+02  0.51100000000E-03 0.  1.
         11   -1    0    0    0    0 -0.00000000000E+00 -0.00000000000E+00 -0.45593999997E+02  0.45594000000E+02  0.51100000000E-03 0. -1.
    9900012    2    1    2    0    0  0.16955252197E+02 -0.46239237064E+01  0.64666628674E+01  0.72461575457E+02  0.70000006726E+02 0.  0.
         12    1    1    2    0    0 -0.16955252197E+02  0.46239237064E+01 -0.64666628674E+01  0.18726424543E+02  0.00000000000E+00 0. -1.
         11    1    3    3    0    0  0.74242961379E+00 -0.24495438116E+02  0.11230880302E+02  0.26957565967E+02  0.51100000000E-03 0. -1.
        -11    1    3    3    0    0  0.81150325174E+01 -0.96681880646E+01  0.46634139344E+01  0.13456412709E+02  0.51100000000E-03 0.  1.
         12    1    3    3    0    0  0.80977900659E+01  0.29539702474E+02 -0.94276313691E+01  0.32047596781E+02  0.00000000000E+00 0. -1.
</event>
<event>
 7    1  0.2873608E-013  0.7246154E+02  0.7816164E-02  0.1226708E+00
        -11   -1    0    0    0    0  0.00000000000E+00  0.00000000000E+00  0.45593999997E+02  0.45594000000E+02  0.51100000000E-03 0.  1.
         11   -1    0    0    0    0 -0.00000000000E+00 -0.00000000000E+00 -0.45593999997E+02  0.45594000000E+02  0.51100000000E-03 0. -1.
    9900012    2    1    2    0    0 -0.19000019244E+01  0.10552497920E+02  0.15353009945E+02  0.72461544542E+02  0.69999966453E+02 0.  0.
         12    1    1    2    0    0  0.19000019244E+01 -0.10552497920E+02 -0.15353009945E+02  0.18726455458E+02  0.00000000000E+00 0. -1.
         11    1    3    3    0    0 -0.11543487874E+02  0.18663186550E+02  0.56099131829E+01  0.22650337099E+02  0.51100000000E-03 0. -1.
        -11    1    3    3    0    0 -0.13410421976E+02  0.60609968199E+01 -0.86690969834E+01  0.17080056873E+02  0.51100000000E-03 0.  1.
        -12    1    3    3    0    0  0.23053907925E+02 -0.14171685450E+02  0.18412193745E+02  0.32731150570E+02  0.00000000000E+00 0.  1.
</event>
<event>
 7    1  0.2873608E-013  0.7246147E+02  0.7816164E-02  0.1226708E+00
        -11   -1    0    0    0    0  0.00000000000E+00  0.00000000000E+00  0.45593999997E+02  0.45594000000E+02  0.51100000000E-03 0.  1.
         11   -1    0    0    0    0 -0.00000000000E+00 -0.00000000000E+00 -0.45593999997E+02  0.45594000000E+02  0.51100000000E-03 0. -1.
    9900012    2    1    2    0    0  0.15311866273E+01 -0.16799206836E+02  0.81317341384E+01  0.72461468476E+02  0.69999867363E+02 0.  0.
         12    1    1    2    0    0 -0.15311866273E+01  0.16799206836E+02 -0.81317341384E+01  0.18726531524E+02  0.00000000000E+00 0. -1.
         11    1    3    3    0    0  0.28089843443E+02 -0.17096855730E+02 -0.58221075822E+01  0.33395190035E+02  0.51100000000E-03 0. -1.
        -11    1    3    3    0    0 -0.27981215718E+01  0.45708582339E+01  0.13929084613E+02  0.14924531072E+02  0.51100000000E-03 0.  1.
        -12    1    3    3    0    0 -0.23760535244E+02 -0.42732093393E+01  0.24757108043E-01  0.24141747369E+02  0.00000000000E+00 0.  1.
</event>
<event>
 7    1  0.2873608E-013  0.7246164E+02  0.7816164E-02  0.1226708E+00
        -11   -1    0    0    0    0  0.00000000000E+00  0.00000000000E+00  0.45593999997E+02  0.45594000000E+02  0.51100000000E-03 0.  1.
         11   -1    0    0    0    0 -0.00000000000E+00 -0.00000000000E+00 -0.45593999997E+02  0.45594000000E+02  0.51100000000E-03 0. -1.
    9900012    2    1    2    0    0 -0.87038813153E+01 -0.78146636176E+01  0.14623617966E+02  0.72461635702E+02  0.70000085205E+02 0.  0.
         12    1    1    2    0    0  0.87038813153E+01  0.78146636176E+01 -0.14623617966E+02  0.18726364298E+02  0.00000000000E+00 0. -1.
         11    1    3    3    0    0 -0.22518617506E+02 -0.11559282270E+02 -0.17291820678E+02  0.30654725632E+02  0.51100000000E-03 0. -1.
        -11    1    3    3    0    0  0.28201790380E+00  0.11416520109E+02  0.14456649070E+02  0.18423115049E+02  0.51100000000E-03 0.  1.
        -12    1    3    3    0    0  0.13532718287E+02 -0.76719014563E+01  0.17458789574E+02  0.23383795021E+02  0.00000000000E+00 0.  1.
</event>
<event>
 7    1  0.2873608E-013  0.7246157E+02  0.7816164E-02  0.1226708E+00
        -11   -1    0    0    0    0  0.00000000000E+00  0.00000000000E+00  0.45593999997E+02  0.45594000000E+02  0.51100000000E-03 0.  1.
         11   -1    0    0    0    0 -0.00000000000E+00 -0.00000000000E+00 -0.45593999997E+02  0.45594000000E+02  0.51100000000E-03 0. -1.
    9900012    2    1    2    0    0  0.43244246365E+01 -0.12907000073E+02  0.12860323788E+02  0.72461568753E+02  0.69999997992E+02 0.  0.
         12    1    1    2    0    0 -0.43244246365E+01  0.12907000073E+02 -0.12860323788E+02  0.18726431247E+02  0.00000000000E+00 0. -1.
         11    1    3    3    0    0  0.35349120843E+01 -0.78383912950E+01  0.17156027156E+02  0.19190238393E+02  0.51100000000E-03 0. -1.
        -11    1    3    3    0    0 -0.23462443390E+02  0.10703759305E+01 -0.12924535201E+02  0.26808124979E+02  0.51100000000E-03 0.  1.
         12    1    3    3    0    0  0.24251955942E+02 -0.61389847087E+01  0.86288318318E+01  0.26463205381E+02  0.00000000000E+00 0. -1.
</event>
<event>
 7    1  0.2873608E-013  0.7246159E+02  0.7816164E-02  0.1226708E+00
        -11   -1    0    0    0    0  0.00000000000E+00  0.00000000000E+00  0.45593999997E+02  0.45594000000E+02  0.51100000000E-03 0.  1.
         11   -1    0    0    0    0 -0.00000000000E+00 -0.00000000000E+00 -0.45593999997E+02  0.45594000000E+02  0.51100000000E-03 0. -1.
    9900012    2    1    2    0    0  0.18431292979E+02 -0.22076216840E+00  0.33041229441E+01  0.72461587497E+02  0.70000022409E+02 0.  0.
         12    1    1    2    0    0 -0.18431292979E+02  0.22076216840E+00 -0.33041229441E+01  0.18726412503E+02  0.00000000000E+00 0. -1.
         11    1    3    3    0    0  0.13735589102E+02 -0.17898270307E+02 -0.91257545369E+01  0.24337088652E+02  0.51100000000E-03 0. -1.
        -11    1    3    3    0    0 -0.69141244924E+01 -0.63423287799E+01 -0.96757084962E+01  0.13477744137E+02  0.51100000000E-03 0.  1.
        -12    1    3    3    0    0  0.11609828370E+02  0.24019836918E+02  0.22105585977E+02  0.34646754708E+02  0.00000000000E+00 0.  1.
</event>
<event>
 7    1  0.2873608E-013  0.7246155E+02  0.7816164E-02  0.1226708E+00
        -11   -1    0    0    0    0  0.00000000000E+00  0.00000000000E+00  0.45593999997E+02  0.45594000000E+02  0.51100000000E-03 0. -1.
         11   -1    0    0    0    0 -0.00000000000E+00 -0.00000000000E+00 -0.45593999997E+02  0.45594000000E+02  0.51100000000E-03 0.  1.
    9900012    2    1    2    0    0 -0.28206619730E+01 -0.12865553828E+02 -0.13311702516E+02  0.72461547235E+02  0.69999969961E+02 0.  0.
         12    1    1    2    0    0  0.28206619730E+01  0.12865553828E+02  0.13311702516E+02  0.18726452765E+02  0.00000000000E+00 0. -1.
         11    1    3    3    0    0  0.51626821540E+01 -0.52235496152E+01  0.18425371689E+01  0.75719020784E+01  0.51100000000E-03 0. -1.
        -11    1    3    3    0    0 -0.33361014199E+01 -0.12077916523E+02  0.23003535225E+02  0.26194813863E+02  0.51100000000E-03 0.  1.
        -12    1    3    3    0    0 -0.46472427070E+01  0.44359123102E+01 -0.38157774910E+02  0.38694831294E+02  0.00000000000E+00 0.  1.
</event>
<event>
 7    1  0.2873608E-013  0.7246156E+02  0.7816164E-02  0.1226708E+00
        -11   -1    0    0    0    0  0.00000000000E+00  0.00000000000E+00  0.45593999997E+02  0.45594000000E+02  0.51100000000E-03 0.  1.
         11   -1    0    0    0    0 -0.00000000000E+00 -0.00000000000E+00 -0.45593999997E+02  0.45594000000E+02  0.51100000000E-03 0. -1.
    9900012    2    1    2    0    0 -0.15260070781E+02  0.78757212108E+01  0.74687904709E+01  0.72461559443E+02  0.69999985864E+02 0.  0.
         12    1    1    2    0    0  0.15260070781E+02 -0.78757212108E+01 -0.74687904709E+01  0.18726440557E+02  0.00000000000E+00 0. -1.
         11    1    3    3    0    0 -0.10836177919E+02  0.15989387300E+02  0.58888677388E+01  0.20193118175E+02  0.51100000000E-03 0. -1.
        -11    1    3    3    0    0 -0.19064213065E+02  0.51794855974E+01  0.17877194482E+02  0.26643298851E+02  0.51100000000E-03 0.  1.
         12    1    3    3    0    0  0.14640320202E+02 -0.13293151687E+02 -0.16297271750E+02  0.25625142417E+02  0.00000000000E+00 0. -1.
</event>
<event>
 7    1  0.2873608E-013  0.7246166E+02  0.7816164E-02  0.1226708E+00
        -11   -1    0    0    0    0  0.00000000000E+00  0.00000000000E+00  0.45593999997E+02  0.45594000000E+02  0.51100000000E-03 0. -1.
         11   -1    0    0    0    0 -0.00000000000E+00 -0.00000000000E+00 -0.45593999997E+02  0.45594000000E+02  0.51100000000E-03 0.  1.
    9900012    2    1    2    0    0 -0.23962613260E+01 -0.12791713288E+02 -0.13464990816E+02  0.72461655593E+02  0.70000111117E+02 0.  0.
         12    1    1    2    0    0  0.23962613260E+01  0.12791713288E+02  0.13464990816E+02  0.18726344407E+02  0.00000000000E+00 0. -1.
         11    1    3    3    0    0 -0.30984166887E+00 -0.10098376714E+02 -0.19361837315E+01  0.10286983126E+02  0.51100000000E-03 0. -1.
        -11    1    3    3    0    0  0.18000366704E+02 -0.25153522247E+02 -0.68712922147E+01  0.31684815604E+02  0.51100000000E-03 0.  1.
         12    1    3    3    0    0 -0.20086786361E+02  0.22460185673E+02 -0.46575148695E+01  0.30489856863E+02  0.00000000000E+00 0. -1.
</event>
<event>
 7    1  0.2873608E-013  0.7246156E+02  0.7816164E-02  0.1226708E+00
        -11   -1    0    0    0    0  0.00000000000E+00  0.00000000000E+00  0.45593999997E+02  0.45594000000E+02  0.51100000000E-03 0. -1.
         11   -1    0    0    0    0 -0.00000000000E+00 -0.00000000000E+00 -0.45593999997E+02  0.45594000000E+02  0.51100000000E-03 0.  1.
    9900012    2    1    2    0    0 -0.21455151460E+01  0.18594108438E+02  0.57909886344E+00  0.72461562556E+02  0.69999989919E+02 0.  0.
         12    1    1    2    0    0  0.21455151460E+01 -0.18594108438E+02 -0.57909886344E+00  0.18726437444E+02  0.00000000000E+00 0. -1.
         11    1    3    3    0    0 -0.28338722729E+02 -0.13063743390E+01 -0.11971489574E+02  0.30791336163E+02  0.51100000000E-03 0. -1.
        -11    1    3    3    0    0  0.31641816387E+01 -0.49202875855E+01  0.13129055244E+01  0.59954146265E+01  0.51100000000E-03 0.  1.
        -12    1    3    3    0    0  0.23029025944E+02  0.24820770363E+02  0.11237682913E+02  0.35674811767E+02  0.00000000000E+00 0.  1.
</event>
<event>
 7    1  0.2873608E-013  0.7246156E+02  0.7816164E-02  0.1226708E+00
        -11   -1    0    0    0    0  0.00000000000E+00  0.00000000000E+00  0.45593999997E+02  0.45594000000E+02  0.51100000000E-03 0. -1.
         11   -1    0    0    0    0 -0.00000000000E+00 -0.00000000000E+00 -0.45593999997E+02  0.45594000000E+02  0.51100000000E-03 0.  1.
    9900012    2    1    2    0    0  0.10416222607E+01 -0.56926704210E+00 -0.18688776811E+02  0.72461563591E+02  0.69999991268E+02 0.  0.
         12    1    1    2    0    0 -0.10416222607E+01  0.56926704210E+00  0.18688776811E+02  0.18726436409E+02  0.00000000000E+00 0. -1.
         11    1    3    3    0    0  0.10692614094E+01  0.17845865532E+02 -0.16417896878E+02  0.24272733153E+02  0.51100000000E-03 0. -1.
        -11    1    3    3    0    0 -0.15582863954E+02 -0.17687666594E+02 -0.15115432765E+02  0.28002776764E+02  0.51100000000E-03 0.  1.
        -12    1    3    3    0    0  0.15555224805E+02 -0.72746597955E+00  0.12844552833E+02  0.20186053674E+02  0.00000000000E+00 0.  1.
</event>
<event>
 7    1  0.2873608E-013  0.7246161E+02  0.7816164E-02  0.1226708E+00
        -11   -1    0    0    0    0  0.00000000000E+00  0.00000000000E+00  0.45593999997E+02  0.45594000000E+02  0.51100000000E-03 0.  1.
         11   -1    0    0    0    0 -0.00000000000E+00 -0.00000000000E+00 -0.45593999997E+02  0.45594000000E+02  0.51100000000E-03 0. -1.
    9900012    2    1    2    0    0 -0.16468732530E+02 -0.62490047201E+01  0.63567771052E+01  0.72461606159E+02  0.70000046720E+02 0.  0.
         12    1    1    2    0    0  0.16468732530E+02  0.62490047201E+01 -0.63567771052E+01  0.18726393841E+02  0.00000000000E+00 0. -1.
         11    1    3    3    0    0 -0.91429599185E+01  0.58637981857E+01 -0.28793418888E+01  0.11236923743E+02  0.51100000000E-03 0. -1.
        -11    1    3    3    0    0 -0.23111133389E+02 -0.21975775334E+02 -0.10995187368E+02  0.33733563902E+02  0.51100000000E-03 0.  1.
         12    1    3    3    0    0  0.15785360777E+02  0.98629724280E+01  0.20231306362E+02  0.27491118513E+02  0.00000000000E+00 0. -1.
</event>
<event>
 7    1  0.2873608E-013  0.7246153E+02  0.7816164E-02  0.1226708E+00
        -11   -1    0    0    0    0  0.00000000000E+00  0.00000000000E+00  0.45593999997E+02  0.45594000000E+02  0.51100000000E-03 0.  1.
         11   -1    0    0    0    0 -0.00000000000E+00 -0.00000000000E+00 -0.45593999997E+02  0.45594000000E+02  0.51100000000E-03 0. -1.
    9900012    2    1    2    0    0  0.95862002706E+01 -0.52609454057E+01  0.15202228107E+02  0.72461534193E+02  0.69999952972E+02 0.  0.
         12    1    1    2    0    0 -0.95862002706E+01  0.52609454057E+01 -0.15202228107E+02  0.18726465807E+02  0.00000000000E+00 0. -1.
         11    1    3    3    0    0  0.30932720607E+01 -0.19618953286E+02  0.11127696351E+02  0.22766143424E+02  0.51100000000E-03 0. -1.
        -11    1    3    3    0    0  0.24669738930E+02  0.15762296226E+02  0.93229400170E+01  0.30723984312E+02  0.51100000000E-03 0.  1.
        -12    1    3    3    0    0 -0.18176810720E+02 -0.14042883459E+01 -0.52484082610E+01  0.18971406457E+02  0.00000000000E+00 0.  1.
</event>
<event>
 7    1  0.2873608E-013  0.7246157E+02  0.7816164E-02  0.1226708E+00
        -11   -1    0    0    0    0  0.00000000000E+00  0.00000000000E+00  0.45593999997E+02  0.45594000000E+02  0.51100000000E-03 0.  1.
         11   -1    0    0    0    0 -0.00000000000E+00 -0.00000000000E+00 -0.45593999997E+02  0.45594000000E+02  0.51100000000E-03 0. -1.
    9900012    2    1    2    0    0  0.12853390079E+02  0.13615130474E+02 -0.31247861189E+00  0.72461573293E+02  0.70000003906E+02 0.  0.
         12    1    1    2    0    0 -0.12853390079E+02 -0.13615130474E+02  0.31247861189E+00  0.18726426707E+02  0.00000000000E+00 0. -1.
         11    1    3    3    0    0  0.35619013888E+01  0.53536016537E+01 -0.16308746411E+02  0.17530641801E+02  0.51100000000E-03 0. -1.
        -11    1    3    3    0    0  0.26663345372E+02 -0.26288059712E+01 -0.30255461881E+01  0.26962910400E+02  0.51100000000E-03 0.  1.
        -12    1    3    3    0    0 -0.17371856682E+02  0.10890334791E+02  0.19021813987E+02  0.27968021092E+02  0.00000000000E+00 0.  1.
</event>
<event>
 7    1  0.2873608E-013  0.7246158E+02  0.7816164E-02  0.1226708E+00
        -11   -1    0    0    0    0  0.00000000000E+00  0.00000000000E+00  0.45593999997E+02  0.45594000000E+02  0.51100000000E-03 0. -1.
         11   -1    0    0    0    0 -0.00000000000E+00 -0.00000000000E+00 -0.45593999997E+02  0.45594000000E+02  0.51100000000E-03 0.  1.
    9900012    2    1    2    0    0  0.68770733036E+01  0.17308440870E+02 -0.19500253291E+01  0.72461578523E+02  0.70000010719E+02 0.  0.
         12    1    1    2    0    0 -0.68770733036E+01 -0.17308440870E+02  0.19500253291E+01  0.18726421477E+02  0.00000000000E+00 0. -1.
         11    1    3    3    0    0  0.12387130045E+02  0.18753883478E+02  0.21754023718E+02  0.31279173334E+02  0.51100000000E-03 0. -1.
        -11    1    3    3    0    0  0.71192499403E+01  0.50444823287E+00  0.56919716735E+01  0.91288953070E+01  0.51100000000E-03 0.  1.
        -12    1    3    3    0    0 -0.12629306682E+02 -0.19498908409E+01 -0.29396020721E+02  0.32053509882E+02  0.00000000000E+00 0.  1.
</event>
<event>
 7    1  0.2873608E-013  0.7246159E+02  0.7816164E-02  0.1226708E+00
        -11   -1    0    0    0    0  0.00000000000E+00  0.00000000000E+00  0.45593999997E+02  0.45594000000E+02  0.51100000000E-03 0.  1.
         11   -1    0    0    0    0 -0.00000000000E+00 -0.00000000000E+00 -0.45593999997E+02  0.45594000000E+02  0.51100000000E-03 0. -1.
    9900012    2    1    2    0    0 -0.29502378231E+01 -0.45266417929E+01  0.17929976506E+02  0.72461589596E+02  0.70000025143E+02 0.  0.
         12    1    1    2    0    0  0.29502378231E+01  0.45266417929E+01 -0.17929976506E+02  0.18726410404E+02  0.00000000000E+00 0. -1.
         11    1    3    3    0    0 -0.97989615986E+00  0.22311723675E+01 -0.19675055612E+02  0.19825391300E+02  0.51100000000E-03 0. -1.
        -11    1    3    3    0    0 -0.21619910895E+01 -0.15678029192E+02  0.20260697735E+01  0.15955555891E+02  0.51100000000E-03 0.  1.
        -12    1    3    3    0    0  0.19164942620E+00  0.89202150317E+01  0.35578962344E+02  0.36680642404E+02  0.00000000000E+00 0.  1.
</event>
<event>
 7    1  0.2873608E-013  0.7246157E+02  0.7816164E-02  0.1226708E+00
        -11   -1    0    0    0    0  0.00000000000E+00  0.00000000000E+00  0.45593999997E+02  0.45594000000E+02  0.51100000000E-03 0.  1.
         11   -1    0    0    0    0 -0.00000000000E+00 -0.00000000000E+00 -0.45593999997E+02  0.45594000000E+02  0.51100000000E-03 0. -1.
    9900012    2    1    2    0    0 -0.57010749922E+01 -0.17543460355E+02  0.32255059181E+01  0.72461570929E+02  0.70000000827E+02 0.  0.
         12    1    1    2    0    0  0.57010749922E+01  0.17543460355E+02 -0.32255059181E+01  0.18726429071E+02  0.00000000000E+00 0. -1.
         11    1    3    3    0    0  0.12263369405E+02 -0.22400737624E+01 -0.10337311067E+02  0.16194695427E+02  0.51100000000E-03 0. -1.
        -11    1    3    3    0    0  0.15796851602E+02  0.32560344446E+00  0.10429042774E+02  0.18931758280E+02  0.51100000000E-03 0.  1.
        -12    1    3    3    0    0 -0.33761296000E+02 -0.15628990037E+02  0.31337742110E+01  0.37335117222E+02  0.00000000000E+00 0.  1.
</event>
<event>
 7    1  0.2873608E-013  0.7246162E+02  0.7816164E-02  0.1226708E+00
        -11   -1    0    0    0    0  0.00000000000E+00  0.00000000000E+00  0.45593999997E+02  0.45594000000E+02  0.51100000000E-03 0.  1.
         11   -1    0    0    0    0 -0.00000000000E+00 -0.00000000000E+00 -0.45593999997E+02  0.45594000000E+02  0.51100000000E-03 0. -1.
    9900012    2    1    2    0    0  0.12720643037E+02 -0.36276377032E+01  0.13255293642E+02  0.72461619567E+02  0.70000064187E+02 0.  0.
         12    1    1    2    0    0 -0.12720643037E+02  0.36276377032E+01 -0.13255293642E+02  0.18726380433E+02  0.00000000000E+00 0. -1.
         11    1    3    3    0    0  0.59099561275E+01  0.36873461224E+01  0.28839144271E+01  0.75393013960E+01  0.51100000000E-03 0. -1.
        -11    1    3    3    0    0 -0.36973577477E+01  0.22312046340E+02  0.21859373056E+02  0.31453617548E+02  0.51100000000E-03 0.  1.
         12    1    3    3    0    0  0.10508044657E+02 -0.29627030165E+02 -0.11487993841E+02  0.33468700624E+02  0.00000000000E+00 0. -1.
</event>
<event>
 7    1  0.2873608E-013  0.7246163E+02  0.7816164E-02  0.1226708E+00
        -11   -1    0    0    0    0  0.00000000000E+00  0.00000000000E+00  0.45593999997E+02  0.45594000000E+02  0.51100000000E-03 0. -1.
         11   -1    0    0    0    0 -0.00000000000E+00 -0.00000000000E+00 -0.45593999997E+02  0.45594000000E+02  0.51100000000E-03 0.  1.
    9900012    2    1    2    0    0  0.16470132693E+02 -0.31013361855E+01  0.83542336443E+01  0.72461634180E+02  0.70000083223E+02 0.  0.
         12    1    1    2    0    0 -0.16470132693E+02  0.31013361855E+01 -0.83542336443E+01  0.18726365820E+02  0.00000000000E+00 0. -1.
         11    1    3    3    0    0  0.15918078231E+02  0.15805459376E+02  0.36335408415E+01  0.22724444547E+02  0.51100000000E-03 0. -1.
        -11    1    3    3    0    0  0.10211708951E+02  0.12310659032E+02 -0.27164652678E+01  0.16223763722E+02  0.51100000000E-03 0.  1.
         12    1    3    3    0    0 -0.96596544892E+01 -0.31217454593E+02  0.74371580705E+01  0.33513425911E+02  0.00000000000E+00 0. -1.
</event>
<event>
 7    1  0.2873608E-013  0.7246163E+02  0.7816164E-02  0.1226708E+00
        -11   -1    0    0    0    0  0.00000000000E+00  0.00000000000E+00  0.45593999997E+02  0.45594000000E+02  0.51100000000E-03 0.  1.
         11   -1    0    0    0    0 -0.00000000000E+00 -0.00000000000E+00 -0.45593999997E+02  0.45594000000E+02  0.51100000000E-03 0. -1.
    9900012    2    1    2    0    0 -0.18361229831E+02  0.36461752379E+01 -0.49762432949E+00  0.72461628629E+02  0.70000075991E+02 0.  0.
         12    1    1    2    0    0  0.18361229831E+02 -0.36461752379E+01  0.49762432949E+00  0.18726371371E+02  0.00000000000E+00 0. -1.
         11    1    3    3    0    0 -0.18298958220E+02 -0.19677458414E+02  0.27108055444E+01  0.27007456536E+02  0.51100000000E-03 0. -1.
        -11    1    3    3    0    0 -0.26771813840E+01  0.23286448208E+02 -0.18549599040E+02  0.29891697763E+02  0.51100000000E-03 0.  1.
         12    1    3    3    0    0  0.26149097736E+01  0.37185443187E-01  0.15341169166E+02  0.15562474330E+02  0.00000000000E+00 0. -1.
</event>
<event>
 7    1  0.2873608E-013  0.7246142E+02  0.7816164E-02  0.1226708E+00
        -11   -1    0    0    0    0  0.00000000000E+00  0.00000000000E+00  0.45593999997E+02  0.45594000000E+02  0.51100000000E-03 0. -1.
         11   -1    0    0    0    0 -0.00000000000E+00 -0.00000000000E+00 -0.45593999997E+02  0.45594000000E+02  0.51100000000E-03 0.  1.
    9900012    2    1    2    0    0  0.63088069236E+01  0.17627635025E+02  0.38759313543E+00  0.72461420231E+02  0.69999804515E+02 0.  0.
         12    1    1    2    0    0 -0.63088069236E+01 -0.17627635025E+02 -0.38759313543E+00  0.18726579769E+02  0.00000000000E+00 0. -1.
         11    1    3    3    0    0  0.11125223742E+02 -0.97616382083E+01  0.88457250408E+01  0.17242593644E+02  0.51100000000E-03 0. -1.
        -11    1    3    3    0    0  0.98595970548E+00 -0.13336064240E+02 -0.31763398922E+01  0.13744521138E+02  0.51100000000E-03 0.  1.
        -12    1    3    3    0    0 -0.58023765236E+01  0.40725337473E+02 -0.52817920132E+01  0.41474305449E+02  0.00000000000E+00 0.  1.
</event>
<event>
 7    1  0.2873608E-013  0.7246137E+02  0.7816164E-02  0.1226709E+00
        -11   -1    0    0    0    0  0.00000000000E+00  0.00000000000E+00  0.45593999997E+02  0.45594000000E+02  0.51100000000E-03 0.  1.
         11   -1    0    0    0    0 -0.00000000000E+00 -0.00000000000E+00 -0.45593999997E+02  0.45594000000E+02  0.51100000000E-03 0. -1.
    9900012    2    1    2    0    0  0.97285093379E+01  0.13885070080E+02 -0.79528408956E+01  0.72461368072E+02  0.69999736567E+02 0.  0.
         12    1    1    2    0    0 -0.97285093379E+01 -0.13885070080E+02  0.79528408956E+01  0.18726631928E+02  0.00000000000E+00 0. -1.
         11    1    3    3    0    0 -0.37134260381E+01 -0.19872395242E+00  0.12173660015E+01  0.39129278542E+01  0.51100000000E-03 0. -1.
        -11    1    3    3    0    0  0.20772880091E+02 -0.86299853188E+01  0.20524542576E+02  0.30450714969E+02  0.51100000000E-03 0.  1.
         12    1    3    3    0    0 -0.73309447154E+01  0.22713779352E+02 -0.29694749473E+02  0.38097725249E+02  0.00000000000E+00 0. -1.
</event>
<event>
 7    1  0.2873608E-013  0.7246163E+02  0.7816164E-02  0.1226708E+00
        -11   -1    0    0    0    0  0.00000000000E+00  0.00000000000E+00  0.45593999997E+02  0.45594000000E+02  0.51100000000E-03 0.  1.
         11   -1    0    0    0    0 -0.00000000000E+00 -0.00000000000E+00 -0.45593999997E+02  0.45594000000E+02  0.51100000000E-03 0. -1.
    9900012    2    1    2    0    0  0.10899222856E+02  0.34635633603E+01 -0.14828608732E+02  0.72461629104E+02  0.70000076610E+02 0.  0.
         12    1    1    2    0    0 -0.10899222856E+02 -0.34635633603E+01  0.14828608732E+02  0.18726370896E+02  0.00000000000E+00 0. -1.
         11    1    3    3    0    0 -0.78082705585E+01  0.56844349013E+01 -0.19851490597E+02  0.22076312384E+02  0.51100000000E-03 0. -1.
        -11    1    3    3    0    0 -0.53850070634E+00 -0.28774364904E+01 -0.19210456496E+02  0.19432222282E+02  0.51100000000E-03 0.  1.
        -12    1    3    3    0    0  0.19245994120E+02  0.65656494940E+00  0.24233338361E+02  0.30953094439E+02  0.00000000000E+00 0.  1.
</event>
<event>
 7    1  0.2873608E-013  0.7246155E+02  0.7816164E-02  0.1226708E+00
        -11   -1    0    0    0    0  0.00000000000E+00  0.00000000000E+00  0.45593999997E+02  0.45594000000E+02  0.51100000000E-03 0.  1.
         11   -1    0    0    0    0 -0.00000000000E+00 -0.00000000000E+00 -0.45593999997E+02  0.45594000000E+02  0.51100000000E-03 0. -1.
    9900012    2    1    2    0    0  0.16360168002E+02 -0.56059564260E+01  0.71831702681E+01  0.72461554005E+02  0.69999978781E+02 0.  0.
         12    1    1    2    0    0 -0.16360168002E+02  0.56059564260E+01 -0.71831702681E+01  0.18726445995E+02  0.00000000000E+00 0. -1.
         11    1    3    3    0    0  0.93611996178E+01  0.96971806666E+01  0.26342654462E+01  0.13733416395E+02  0.51100000000E-03 0. -1.
        -11    1    3    3    0    0 -0.21342595223E+02 -0.15148514354E+02  0.12903806262E+02  0.29180337118E+02  0.51100000000E-03 0.  1.
         12    1    3    3    0    0  0.28341563607E+02 -0.15462273852E+00 -0.83549014400E+01  0.29547800493E+02  0.00000000000E+00 0. -1.
</event>
<event>
 7    1  0.2873608E-013  0.7246158E+02  0.7816164E-02  0.1226708E+00
        -11   -1    0    0    0    0  0.00000000000E+00  0.00000000000E+00  0.45593999997E+02  0.45594000000E+02  0.51100000000E-03 0. -1.
         11   -1    0    0    0    0 -0.00000000000E+00 -0.00000000000E+00 -0.45593999997E+02  0.45594000000E+02  0.51100000000E-03 0.  1.
    9900012    2    1    2    0    0  0.11991658607E+02  0.13510275174E+02  0.49347011600E+01  0.72461583178E+02  0.70000016784E+02 0.  0.
         12    1    1    2    0    0 -0.11991658607E+02 -0.13510275174E+02 -0.49347011600E+01  0.18726416822E+02  0.00000000000E+00 0. -1.
         11    1    3    3    0    0 -0.51594463901E+00  0.11961716994E+02  0.15031235630E+02  0.19216839416E+02  0.51100000000E-03 0. -1.
        -11    1    3    3    0    0  0.26714581427E+02 -0.88905245644E+01  0.66490564019E+01  0.28929573781E+02  0.51100000000E-03 0.  1.
         12    1    3    3    0    0 -0.14206978181E+02  0.10439082745E+02 -0.16745590871E+02  0.24315169981E+02  0.00000000000E+00 0. -1.
</event>
<event>
 7    1  0.3430421E-013  0.7246160E+02  0.7816164E-02  0.1226708E+00
        -11   -1    0    0    0    0  0.00000000000E+00  0.00000000000E+00  0.45593999997E+02  0.45594000000E+02  0.51100000000E-03 0.  1.
         11   -1    0    0    0    0 -0.00000000000E+00 -0.00000000000E+00 -0.45593999997E+02  0.45594000000E+02  0.51100000000E-03 0. -1.
    9900012    2    1    2    0    0 -0.91855028680E+01 -0.15268347303E+02  0.57603950544E+01  0.72461600360E+02  0.70000039166E+02 0.  0.
         12    1    1    2    0    0  0.91855028680E+01  0.15268347303E+02 -0.57603950544E+01  0.18726399640E+02  0.00000000000E+00 0. -1.
         11    1    3    3    0    0 -0.21742145206E+01  0.91238710940E+01 -0.64116712370E+01  0.11361415442E+02  0.51100000000E-03 0. -1.
        -11    1    3    3    0    0 -0.24695676168E+02 -0.17562913505E+01  0.19430583643E+02  0.31472345983E+02  0.51100000000E-03 0.  1.
         12    1    3    3    0    0  0.17684387821E+02 -0.22635927046E+02 -0.72585173515E+01  0.29627838935E+02  0.00000000000E+00 0. -1.
</event>
<event>
 7    1  0.2873608E-013  0.7246155E+02  0.7816164E-02  0.1226708E+00
        -11   -1    0    0    0    0  0.00000000000E+00  0.00000000000E+00  0.45593999997E+02  0.45594000000E+02  0.51100000000E-03 0.  1.
         11   -1    0    0    0    0 -0.00000000000E+00 -0.00000000000E+00 -0.45593999997E+02  0.45594000000E+02  0.51100000000E-03 0. -1.
    9900012    2    1    2    0    0 -0.81700795899E+01 -0.12563752772E+02  0.11228617332E+02  0.72461549952E+02  0.69999973500E+02 0.  0.
         12    1    1    2    0    0  0.81700795899E+01  0.12563752772E+02 -0.11228617332E+02  0.18726450048E+02  0.00000000000E+00 0. -1.
         11    1    3    3    0    0  0.36948851859E+01  0.51546168474E+01 -0.71211447264E+01  0.95358771938E+01  0.51100000000E-03 0. -1.
        -11    1    3    3    0    0  0.14413885777E+02  0.12712914491E+02  0.13326711008E+01  0.19265365571E+02  0.51100000000E-03 0.  1.
         12    1    3    3    0    0 -0.26278850553E+02 -0.30431284111E+02  0.17017090958E+02  0.43660307187E+02  0.00000000000E+00 0. -1.
</event>
<event>
 7    1  0.2873608E-013  0.7246148E+02  0.7816164E-02  0.1226708E+00
        -11   -1    0    0    0    0  0.00000000000E+00  0.00000000000E+00  0.45593999997E+02  0.45594000000E+02  0.51100000000E-03 0. -1.
         11   -1    0    0    0    0 -0.00000000000E+00 -0.00000000000E+00 -0.45593999997E+02  0.45594000000E+02  0.51100000000E-03 0.  1.
    9900012    2    1    2    0    0  0.15567324299E+02  0.77664272851E+01 -0.69299128399E+01  0.72461476815E+02  0.69999878226E+02 0.  0.
         12    1    1    2    0    0 -0.15567324299E+02 -0.77664272851E+01  0.69299128399E+01  0.18726523185E+02  0.00000000000E+00 0. -1.
         11    1    3    3    0    0  0.18449883538E+02  0.18144664330E+02  0.69931663955E+01  0.26805436439E+02  0.51100000000E-03 0. -1.
        -11    1    3    3    0    0  0.19323721555E+02 -0.11026853098E+01 -0.50117953512E+01  0.19993504508E+02  0.51100000000E-03 0.  1.
        -12    1    3    3    0    0 -0.22206280794E+02 -0.92755517346E+01 -0.89112838842E+01  0.25662535867E+02  0.00000000000E+00 0.  1.
</event>
<event>
 7    1  0.2873608E-013  0.7246156E+02  0.7816164E-02  0.1226708E+00
        -11   -1    0    0    0    0  0.00000000000E+00  0.00000000000E+00  0.45593999997E+02  0.45594000000E+02  0.51100000000E-03 0.  1.
         11   -1    0    0    0    0 -0.00000000000E+00 -0.00000000000E+00 -0.45593999997E+02  0.45594000000E+02  0.51100000000E-03 0. -1.
    9900012    2    1    2    0    0  0.16431361763E+01  0.73146583711E+01  0.17160284438E+02  0.72461561855E+02  0.69999989007E+02 0.  0.
         12    1    1    2    0    0 -0.16431361763E+01 -0.73146583711E+01 -0.17160284438E+02  0.18726438145E+02  0.00000000000E+00 0. -1.
         11    1    3    3    0    0  0.68160067049E+01  0.10417165745E+02  0.24509001628E+02  0.27489387963E+02  0.51100000000E-03 0. -1.
        -11    1    3    3    0    0 -0.76279738502E+01 -0.48475217936E+01  0.17630455981E+02  0.19812052669E+02  0.51100000000E-03 0.  1.
         12    1    3    3    0    0  0.24551033216E+01  0.17450144198E+01 -0.24979173171E+02  0.25160121223E+02  0.00000000000E+00 0. -1.
</event>
<event>
 7    1  0.2873608E-013  0.7246155E+02  0.7816164E-02  0.1226708E+00
        -11   -1    0    0    0    0  0.00000000000E+00  0.00000000000E+00  0.45593999997E+02  0.45594000000E+02  0.51100000000E-03 0.  1.
         11   -1    0    0    0    0 -0.00000000000E+00 -0.00000000000E+00 -0.45593999997E+02  0.45594000000E+02  0.51100000000E-03 0. -1.
    9900012    2    1    2    0    0 -0.11787559454E+02 -0.62981388957E+01  0.13117420924E+02  0.72461552309E+02  0.69999976571E+02 0.  0.
         12    1    1    2    0    0  0.11787559454E+02  0.62981388957E+01 -0.13117420924E+02  0.18726447691E+02  0.00000000000E+00 0. -1.
         11    1    3    3    0    0  0.38995186138E+01 -0.91043771489E+01 -0.22378998515E+02  0.24472750223E+02  0.51100000000E-03 0. -1.
        -11    1    3    3    0    0  0.36377335109E+00  0.33196040911E+01 -0.40834569821E+01  0.52751041278E+01  0.51100000000E-03 0.  1.
        -12    1    3    3    0    0 -0.16050851419E+02 -0.51336583789E+00  0.39579876421E+02  0.42713697958E+02  0.00000000000E+00 0.  1.
</event>
<event>
 7    1  0.2873608E-013  0.7246166E+02  0.7816164E-02  0.1226708E+00
        -11   -1    0    0    0    0  0.00000000000E+00  0.00000000000E+00  0.45593999997E+02  0.45594000000E+02  0.51100000000E-03 0.  1.
         11   -1    0    0    0    0 -0.00000000000E+00 -0.00000000000E+00 -0.45593999997E+02  0.45594000000E+02  0.51100000000E-03 0. -1.
    9900012    2    1    2    0    0 -0.60786909615E+01 -0.42544636351E+01  0.17193749204E+02  0.72461656088E+02  0.70000111762E+02 0.  0.
         12    1    1    2    0    0  0.60786909615E+01  0.42544636351E+01 -0.17193749204E+02  0.18726343912E+02  0.00000000000E+00 0. -1.
         11    1    3    3    0    0 -0.10683875972E+02 -0.91455890073E+01  0.11818639171E+02  0.18370281331E+02  0.51100000000E-03 0. -1.
        -11    1    3    3    0    0 -0.73335025508E+01 -0.22387443824E+02 -0.12330670408E+01  0.23590217363E+02  0.51100000000E-03 0.  1.
         12    1    3    3    0    0  0.11938687561E+02  0.27278569197E+02  0.66081770737E+01  0.30501157393E+02  0.00000000000E+00 0. -1.
</event>
<event>
 7    1  0.2873608E-013  0.7246159E+02  0.7816164E-02  0.1226708E+00
        -11   -1    0    0    0    0  0.00000000000E+00  0.00000000000E+00  0.45593999997E+02  0.45594000000E+02  0.51100000000E-03 0. -1.
         11   -1    0    0    0    0 -0.00000000000E+00 -0.00000000000E+00 -0.45593999997E+02  0.45594000000E+02  0.51100000000E-03 0.  1.
    9900012    2    1    2    0    0  0.43842083558E+01 -0.13848087594E+02  0.11818956464E+02  0.72461586975E+02  0.70000021729E+02 0.  0.
         12    1    1    2    0    0 -0.43842083558E+01  0.13848087594E+02 -0.11818956464E+02  0.18726413025E+02  0.00000000000E+00 0. -1.
         11    1    3    3    0    0 -0.32579390409E+01 -0.77917737588E+01  0.35707706773E+02  0.36692863452E+02  0.51100000000E-03 0. -1.
        -11    1    3    3    0    0 -0.75328980345E+01 -0.49654496571E+01 -0.22184971425E+01  0.92909618946E+01  0.51100000000E-03 0.  1.
         12    1    3    3    0    0  0.15175045431E+02 -0.10908641779E+01 -0.21670253167E+02  0.26477761628E+02  0.00000000000E+00 0. -1.
</event>
<event>
 7    1  0.2873608E-013  0.7246161E+02  0.7816164E-02  0.1226708E+00
        -11   -1    0    0    0    0  0.00000000000E+00  0.00000000000E+00  0.45593999997E+02  0.45594000000E+02  0.51100000000E-03 0. -1.
         11   -1    0    0    0    0 -0.00000000000E+00 -0.00000000000E+00 -0.45593999997E+02  0.45594000000E+02  0.51100000000E-03 0.  1.
    9900012    2    1    2    0    0 -0.36618539230E+01  0.44770640899E+01 -0.17810799347E+02  0.72461605515E+02  0.70000045882E+02 0.  0.
         12    1    1    2    0    0  0.36618539230E+01 -0.44770640899E+01  0.17810799347E+02  0.18726394485E+02  0.00000000000E+00 0. -1.
         11    1    3    3    0    0  0.96220605486E+01 -0.11923362444E+01  0.58728210688E+01  0.11335596256E+02  0.51100000000E-03 0. -1.
        -11    1    3    3    0    0  0.32057592292E+01  0.24823055531E+02 -0.25570875770E+02  0.35781708540E+02  0.51100000000E-03 0.  1.
        -12    1    3    3    0    0 -0.16489673701E+02 -0.19153655197E+02  0.18872553542E+01  0.25344300719E+02  0.00000000000E+00 0.  1.
</event>
<event>
 7    1  0.2873608E-013  0.7246155E+02  0.7816164E-02  0.1226708E+00
        -11   -1    0    0    0    0  0.00000000000E+00  0.00000000000E+00  0.45593999997E+02  0.45594000000E+02  0.51100000000E-03 0.  1.
         11   -1    0    0    0    0 -0.00000000000E+00 -0.00000000000E+00 -0.45593999997E+02  0.45594000000E+02  0.51100000000E-03 0. -1.
    9900012    2    1    2    0    0  0.13758630042E+02 -0.33272763542E+00  0.12699180578E+02  0.72461553576E+02  0.69999978222E+02 0.  0.
         12    1    1    2    0    0 -0.13758630042E+02  0.33272763542E+00 -0.12699180578E+02  0.18726446424E+02  0.00000000000E+00 0. -1.
         11    1    3    3    0    0 -0.94483519214E+01 -0.28363664634E+02  0.14409577374E+02  0.33187418487E+02  0.51100000000E-03 0. -1.
        -11    1    3    3    0    0  0.12150951427E+02  0.45473052909E+01  0.17386079586E+01  0.13089933685E+02  0.51100000000E-03 0.  1.
        -12    1    3    3    0    0  0.11056030536E+02  0.23483631707E+02 -0.34490047544E+01  0.26184201404E+02  0.00000000000E+00 0.  1.
</event>
<event>
 7    1  0.2873608E-013  0.7246156E+02  0.7816164E-02  0.1226708E+00
        -11   -1    0    0    0    0  0.00000000000E+00  0.00000000000E+00  0.45593999997E+02  0.45594000000E+02  0.51100000000E-03 0. -1.
         11   -1    0    0    0    0 -0.00000000000E+00 -0.00000000000E+00 -0.45593999997E+02  0.45594000000E+02  0.51100000000E-03 0.  1.
    9900012    2    1    2    0    0  0.17630153910E+02  0.32596905464E+01 -0.54066278832E+01  0.72461560552E+02  0.69999987309E+02 0.  0.
         12    1    1    2    0    0 -0.17630153910E+02 -0.32596905464E+01  0.54066278832E+01  0.18726439448E+02  0.00000000000E+00 0. -1.
         11    1    3    3    0    0 -0.59686685622E+01  0.16202990787E+02  0.21240023216E+02  0.27373353856E+02  0.51100000000E-03 0. -1.
        -11    1    3    3    0    0  0.18915338641E+02 -0.13053449333E+01 -0.42704362258E+01  0.19435292308E+02  0.51100000000E-03 0.  1.
        -12    1    3    3    0    0  0.46834838308E+01 -0.11637955308E+02 -0.22376214873E+02  0.25652914388E+02  0.00000000000E+00 0.  1.
</event>
<event>
 7    1  0.2873608E-013  0.7246087E+02  0.7816164E-02  0.1226710E+00
        -11   -1    0    0    0    0  0.00000000000E+00  0.00000000000E+00  0.45593999997E+02  0.45594000000E+02  0.51100000000E-03 0.  1.
         11   -1    0    0    0    0 -0.00000000000E+00 -0.00000000000E+00 -0.45593999997E+02  0.45594000000E+02  0.51100000000E-03 0. -1.
    9900012    2    1    2    0    0 -0.16832497020E+02  0.40067848912E+01  0.71636673435E+01  0.72460869656E+02  0.69999087283E+02 0.  0.
         12    1    1    2    0    0  0.16832497020E+02 -0.40067848912E+01 -0.71636673435E+01  0.18727130344E+02  0.00000000000E+00 0. -1.
         11    1    3    3    0    0  0.14337499837E+01  0.57445749553E+01 -0.15113131641E+02  0.16231528846E+02  0.51100000000E-03 0. -1.
        -11    1    3    3    0    0 -0.41922151306E+01 -0.23962709822E+02  0.52297437532E+01  0.24882450637E+02  0.51100000000E-03 0.  1.
         12    1    3    3    0    0 -0.14074031873E+02  0.22224919758E+02  0.17047055231E+02  0.31346890173E+02  0.00000000000E+00 0. -1.
</event>
<event>
 7    1  0.2873608E-013  0.7246158E+02  0.7816164E-02  0.1226708E+00
        -11   -1    0    0    0    0  0.00000000000E+00  0.00000000000E+00  0.45593999997E+02  0.45594000000E+02  0.51100000000E-03 0. -1.
         11   -1    0    0    0    0 -0.00000000000E+00 -0.00000000000E+00 -0.45593999997E+02  0.45594000000E+02  0.51100000000E-03 0.  1.
    9900012    2    1    2    0    0  0.41736414074E+01  0.51235330264E+00 -0.18248202031E+02  0.72461583742E+02  0.70000017519E+02 0.  0.
         12    1    1    2    0    0 -0.41736414074E+01 -0.51235330264E+00  0.18248202031E+02  0.18726416258E+02  0.00000000000E+00 0. -1.
         11    1    3    3    0    0  0.11720134949E+02  0.23021568782E+02 -0.21159374580E+00  0.25834065971E+02  0.51100000000E-03 0. -1.
        -11    1    3    3    0    0  0.91157074494E+00 -0.97971517234E+01  0.10421151145E+02  0.14332324814E+02  0.51100000000E-03 0.  1.
        -12    1    3    3    0    0 -0.84580642866E+01 -0.12712063756E+02 -0.28457759430E+02  0.32295192958E+02  0.00000000000E+00 0.  1.
</event>
<event>
 7    1  0.2873608E-013  0.7246156E+02  0.7816164E-02  0.1226708E+00
        -11   -1    0    0    0    0  0.00000000000E+00  0.00000000000E+00  0.45593999997E+02  0.45594000000E+02  0.51100000000E-03 0. -1.
         11   -1    0    0    0    0 -0.00000000000E+00 -0.00000000000E+00 -0.45593999997E+02  0.45594000000E+02  0.51100000000E-03 0.  1.
    9900012    2    1    2    0    0 -0.34254761943E+00 -0.69697038737E+01 -0.17377727270E+02  0.72461561043E+02  0.69999987948E+02 0.  0.
         12    1    1    2    0    0  0.34254761943E+00  0.69697038737E+01  0.17377727270E+02  0.18726438957E+02  0.00000000000E+00 0. -1.
         11    1    3    3    0    0  0.26799085547E+02 -0.42504776048E+01  0.38560472048E+01  0.27406689810E+02  0.51100000000E-03 0. -1.
        -11    1    3    3    0    0 -0.15126209233E+01  0.39903036353E+01 -0.17842811905E+02  0.18346020879E+02  0.51100000000E-03 0.  1.
        -12    1    3    3    0    0 -0.25629012243E+02 -0.67095299042E+01 -0.33909625698E+01  0.26708850354E+02  0.00000000000E+00 0.  1.
</event>
<event>
 7    1  0.2873608E-013  0.7246157E+02  0.7816164E-02  0.1226708E+00
        -11   -1    0    0    0    0  0.00000000000E+00  0.00000000000E+00  0.45593999997E+02  0.45594000000E+02  0.51100000000E-03 0. -1.
         11   -1    0    0    0    0 -0.00000000000E+00 -0.00000000000E+00 -0.45593999997E+02  0.45594000000E+02  0.51100000000E-03 0.  1.
    9900012    2    1    2    0    0 -0.45760609945E+01  0.16222903554E+02 -0.81582079130E+01  0.72461567069E+02  0.69999995799E+02 0.  0.
         12    1    1    2    0    0  0.45760609945E+01 -0.16222903554E+02  0.81582079130E+01  0.18726432931E+02  0.00000000000E+00 0. -1.
         11    1    3    3    0    0 -0.12308617220E+02  0.18760648643E+01 -0.12358341218E+02  0.17542812636E+02  0.51100000000E-03 0. -1.
        -11    1    3    3    0    0  0.40143966997E+01  0.25617705707E+02  0.21673891687E+02  0.33795558994E+02  0.51100000000E-03 0.  1.
         12    1    3    3    0    0  0.37181595263E+01 -0.11270867017E+02 -0.17473758383E+02  0.21123195440E+02  0.00000000000E+00 0. -1.
</event>
<event>
 7    1  0.2873608E-013  0.7246148E+02  0.7816164E-02  0.1226708E+00
        -11   -1    0    0    0    0  0.00000000000E+00  0.00000000000E+00  0.45593999997E+02  0.45594000000E+02  0.51100000000E-03 0.  1.
         11   -1    0    0    0    0 -0.00000000000E+00 -0.00000000000E+00 -0.45593999997E+02  0.45594000000E+02  0.51100000000E-03 0. -1.
    9900012    2    1    2    0    0 -0.41786196060E+00 -0.12857977306E+02  0.13608096240E+02  0.72461482110E+02  0.69999885124E+02 0.  0.
         12    1    1    2    0    0  0.41786196060E+00  0.12857977306E+02 -0.13608096240E+02  0.18726517890E+02  0.00000000000E+00 0. -1.
         11    1    3    3    0    0 -0.95226953563E+01  0.44189443913E+01 -0.20818032889E+01  0.10702462407E+02  0.51100000000E-03 0.  1.
        -11    1    3    3    0    0  0.71322087515E+01 -0.27410444974E+02  0.31825409383E+02  0.42603492557E+02  0.51100000000E-03 0. -1.
         12    1    3    3    0    0  0.19726246442E+01  0.10133523277E+02 -0.16135509854E+02  0.19155527146E+02  0.00000000000E+00 0. -1.
</event>
<event>
 7    1  0.2873608E-013  0.7246160E+02  0.7816164E-02  0.1226708E+00
        -11   -1    0    0    0    0  0.00000000000E+00  0.00000000000E+00  0.45593999997E+02  0.45594000000E+02  0.51100000000E-03 0.  1.
         11   -1    0    0    0    0 -0.00000000000E+00 -0.00000000000E+00 -0.45593999997E+02  0.45594000000E+02  0.51100000000E-03 0. -1.
    9900012    2    1    2    0    0 -0.10912876080E+02 -0.11839231106E+02  0.95613686622E+01  0.72461600768E+02  0.70000039697E+02 0.  0.
         12    1    1    2    0    0  0.10912876080E+02  0.11839231106E+02 -0.95613686622E+01  0.18726399232E+02  0.00000000000E+00 0. -1.
         11    1    3    3    0    0 -0.50177031694E+01  0.94517308678E+01 -0.12054512601E+02  0.16119051951E+02  0.51100000000E-03 0. -1.
        -11    1    3    3    0    0 -0.14028937668E+02  0.85510058629E+01 -0.31375447010E+01  0.16726475432E+02  0.51100000000E-03 0.  1.
        -12    1    3    3    0    0  0.81337647577E+01 -0.29841967837E+02  0.24753425964E+02  0.39616073385E+02  0.00000000000E+00 0.  1.
</event>
<event>
 7    1  0.2873608E-013  0.7246158E+02  0.7816164E-02  0.1226708E+00
        -11   -1    0    0    0    0  0.00000000000E+00  0.00000000000E+00  0.45593999997E+02  0.45594000000E+02  0.51100000000E-03 0. -1.
         11   -1    0    0    0    0 -0.00000000000E+00 -0.00000000000E+00 -0.45593999997E+02  0.45594000000E+02  0.51100000000E-03 0.  1.
    9900012    2    1    2    0    0 -0.10545647653E+02 -0.10415265560E+02 -0.11445096781E+02  0.72461583326E+02  0.70000016976E+02 0.  0.
         12    1    1    2    0    0  0.10545647653E+02  0.10415265560E+02  0.11445096781E+02  0.18726416674E+02  0.00000000000E+00 0. -1.
         11    1    3    3    0    0 -0.65400726725E+00 -0.13488801675E+02  0.15739922644E+02  0.20739350550E+02  0.51100000000E-03 0. -1.
        -11    1    3    3    0    0  0.14839018020E+02 -0.74230264574E+01 -0.65170621243E+01  0.17826100992E+02  0.51100000000E-03 0.  1.
         12    1    3    3    0    0 -0.24730658406E+02  0.10496562572E+02 -0.20667957300E+02  0.33896131785E+02  0.00000000000E+00 0. -1.
</event>
<event>
 7    1  0.2873608E-013  0.7246154E+02  0.7816164E-02  0.1226708E+00
        -11   -1    0    0    0    0  0.00000000000E+00  0.00000000000E+00  0.45593999997E+02  0.45594000000E+02  0.51100000000E-03 0. -1.
         11   -1    0    0    0    0 -0.00000000000E+00 -0.00000000000E+00 -0.45593999997E+02  0.45594000000E+02  0.51100000000E-03 0.  1.
    9900012    2    1    2    0    0  0.10010525198E+02 -0.86854865062E+01 -0.13229965331E+02  0.72461540824E+02  0.69999961610E+02 0.  0.
         12    1    1    2    0    0 -0.10010525198E+02  0.86854865062E+01  0.13229965331E+02  0.18726459176E+02  0.00000000000E+00 0. -1.
         11    1    3    3    0    0  0.15725670096E+02  0.29214559245E+01 -0.25457646407E+02  0.30065318318E+02  0.51100000000E-03 0. -1.
        -11    1    3    3    0    0 -0.11705540341E+02  0.97934472875E+01 -0.28703593018E+01  0.15529657023E+02  0.51100000000E-03 0.  1.
         12    1    3    3    0    0  0.59903954429E+01 -0.21400389718E+02  0.15098040378E+02  0.26866565484E+02  0.00000000000E+00 0. -1.
</event>
<event>
 7    1  0.2873608E-013  0.7246160E+02  0.7816164E-02  0.1226708E+00
        -11   -1    0    0    0    0  0.00000000000E+00  0.00000000000E+00  0.45593999997E+02  0.45594000000E+02  0.51100000000E-03 0. -1.
         11   -1    0    0    0    0 -0.00000000000E+00 -0.00000000000E+00 -0.45593999997E+02  0.45594000000E+02  0.51100000000E-03 0.  1.
    9900012    2    1    2    0    0  0.61051258572E+01 -0.81894804724E+01 -0.15695158445E+02  0.72461597496E+02  0.70000035435E+02 0.  0.
         12    1    1    2    0    0 -0.61051258572E+01  0.81894804724E+01  0.15695158445E+02  0.18726402504E+02  0.00000000000E+00 0. -1.
         11    1    3    3    0    0  0.41486897258E+00 -0.36176172877E+01  0.81671150634E+01  0.89420937048E+01  0.51100000000E-03 0. -1.
        -11    1    3    3    0    0  0.17516370502E+02 -0.13235680645E+01  0.14792998042E+02  0.22965362164E+02  0.51100000000E-03 0.  1.
        -12    1    3    3    0    0 -0.11826113618E+02 -0.32482951202E+01 -0.38655271550E+02  0.40554141627E+02  0.00000000000E+00 0.  1.
</event>
<event>
 7    1  0.2873608E-013  0.7246205E+02  0.7816164E-02  0.1226707E+00
        -11   -1    0    0    0    0  0.00000000000E+00  0.00000000000E+00  0.45593999997E+02  0.45594000000E+02  0.51100000000E-03 0.  1.
         11   -1    0    0    0    0 -0.00000000000E+00 -0.00000000000E+00 -0.45593999997E+02  0.45594000000E+02  0.51100000000E-03 0. -1.
    9900012    2    1    2    0    0 -0.10431695690E+02 -0.54380840331E+01  0.14569423377E+02  0.72462051948E+02  0.70000627440E+02 0.  0.
         12    1    1    2    0    0  0.10431695690E+02  0.54380840331E+01 -0.14569423377E+02  0.18725948052E+02  0.00000000000E+00 0. -1.
         11    1    3    3    0    0 -0.31597733919E+02  0.27012512265E+01  0.22586178636E+02  0.38933905695E+02  0.51100000000E-03 0. -1.
        -11    1    3    3    0    0  0.54890712041E+01  0.74994933970E+01 -0.64830442238E+01  0.11331467979E+02  0.51100000000E-03 0.  1.
        -12    1    3    3    0    0  0.15676967025E+02 -0.15638828657E+02 -0.15337110358E+01  0.22196678274E+02  0.00000000000E+00 0.  1.
</event>
<event>
 7    1  0.2873608E-013  0.7246165E+02  0.7816164E-02  0.1226708E+00
        -11   -1    0    0    0    0  0.00000000000E+00  0.00000000000E+00  0.45593999997E+02  0.45594000000E+02  0.51100000000E-03 0. -1.
         11   -1    0    0    0    0 -0.00000000000E+00 -0.00000000000E+00 -0.45593999997E+02  0.45594000000E+02  0.51100000000E-03 0.  1.
    9900012    2    1    2    0    0  0.71706206018E+01  0.16972477890E+02 -0.33456698484E+01  0.72461646583E+02  0.70000099380E+02 0.  0.
         12    1    1    2    0    0 -0.71706206018E+01 -0.16972477890E+02  0.33456698484E+01  0.18726353417E+02  0.00000000000E+00 0. -1.
         11    1    3    3    0    0  0.93314708967E+01  0.25130013264E+01  0.13474581405E+02  0.16581793301E+02  0.51100000000E-03 0. -1.
        -11    1    3    3    0    0  0.17293795628E+02 -0.88515288129E+01  0.29469078583E+01  0.19649661467E+02  0.51100000000E-03 0.  1.
        -12    1    3    3    0    0 -0.19454645923E+02  0.23311005377E+02 -0.19767159112E+02  0.36230191816E+02  0.00000000000E+00 0.  1.
</event>
<event>
 7    1  0.2873608E-013  0.7246159E+02  0.7816164E-02  0.1226708E+00
        -11   -1    0    0    0    0  0.00000000000E+00  0.00000000000E+00  0.45593999997E+02  0.45594000000E+02  0.51100000000E-03 0.  1.
         11   -1    0    0    0    0 -0.00000000000E+00 -0.00000000000E+00 -0.45593999997E+02  0.45594000000E+02  0.51100000000E-03 0. -1.
    9900012    2    1    2    0    0  0.16437253118E+02 -0.26510125773E+01  0.85712957719E+01  0.72461594340E+02  0.70000031323E+02 0.  0.
         12    1    1    2    0    0 -0.16437253118E+02  0.26510125773E+01 -0.85712957719E+01  0.18726405660E+02  0.00000000000E+00 0. -1.
         11    1    3    3    0    0  0.10379958607E+02 -0.60993009284E+01 -0.15401625764E+01  0.12137426149E+02  0.51100000000E-03 0. -1.
        -11    1    3    3    0    0  0.32100725337E+02 -0.30653422609E+01  0.88946709372E+01  0.33450979981E+02  0.51100000000E-03 0.  1.
         12    1    3    3    0    0 -0.26043430826E+02  0.65136306120E+01  0.12167874111E+01  0.26873188210E+02  0.00000000000E+00 0. -1.
</event>
<event>
 7    1  0.2873608E-013  0.7246153E+02  0.7816164E-02  0.1226708E+00
        -11   -1    0    0    0    0  0.00000000000E+00  0.00000000000E+00  0.45593999997E+02  0.45594000000E+02  0.51100000000E-03 0.  1.
         11   -1    0    0    0    0 -0.00000000000E+00 -0.00000000000E+00 -0.45593999997E+02  0.45594000000E+02  0.51100000000E-03 0. -1.
    9900012    2    1    2    0    0 -0.13000701007E+02  0.13388792408E+02 -0.15500457768E+01  0.72461531280E+02  0.69999949176E+02 0.  0.
         12    1    1    2    0    0  0.13000701007E+02 -0.13388792408E+02  0.15500457768E+01  0.18726468720E+02  0.00000000000E+00 0. -1.
         11    1    3    3    0    0  0.27781308688E+01  0.32654098780E+01 -0.17179090546E+01  0.46186712999E+01  0.51100000000E-03 0. -1.
        -11    1    3    3    0    0  0.16023443140E+02 -0.13927899332E+02  0.14235131567E+02  0.25561222210E+02  0.51100000000E-03 0.  1.
         12    1    3    3    0    0 -0.31802275016E+02  0.24051281863E+02 -0.14067268289E+02  0.42281637770E+02  0.00000000000E+00 0. -1.
</event>
<event>
 7    1  0.2873608E-013  0.7246146E+02  0.7816164E-02  0.1226708E+00
        -11   -1    0    0    0    0  0.00000000000E+00  0.00000000000E+00  0.45593999997E+02  0.45594000000E+02  0.51100000000E-03 0. -1.
         11   -1    0    0    0    0 -0.00000000000E+00 -0.00000000000E+00 -0.45593999997E+02  0.45594000000E+02  0.51100000000E-03 0.  1.
    9900012    2    1    2    0    0  0.13885630313E+02 -0.82723872145E+01 -0.94572839329E+01  0.72461458974E+02  0.69999854984E+02 0.  0.
         12    1    1    2    0    0 -0.13885630313E+02  0.82723872145E+01  0.94572839329E+01  0.18726541026E+02  0.00000000000E+00 0. -1.
         11    1    3    3    0    0  0.81418415844E+01 -0.10966381357E+02  0.21363195515E+02  0.25356206880E+02  0.51100000000E-03 0. -1.
        -11    1    3    3    0    0  0.12531434833E+02 -0.13277989744E+02 -0.15216336984E+02  0.23767178674E+02  0.51100000000E-03 0.  1.
        -12    1    3    3    0    0 -0.67876461042E+01  0.15971983887E+02 -0.15604142464E+02  0.23338073420E+02  0.00000000000E+00 0.  1.
</event>
<event>
 7    1  0.2873608E-013  0.7246157E+02  0.7816164E-02  0.1226708E+00
        -11   -1    0    0    0    0  0.00000000000E+00  0.00000000000E+00  0.45593999997E+02  0.45594000000E+02  0.51100000000E-03 0. -1.
         11   -1    0    0    0    0 -0.00000000000E+00 -0.00000000000E+00 -0.45593999997E+02  0.45594000000E+02  0.51100000000E-03 0.  1.
    9900012    2    1    2    0    0  0.39499688793E+01  0.33421394666E+01 -0.17997419470E+02  0.72461567933E+02  0.69999996925E+02 0.  0.
         12    1    1    2    0    0 -0.39499688793E+01 -0.33421394666E+01  0.17997419470E+02  0.18726432067E+02  0.00000000000E+00 0. -1.
         11    1    3    3    0    0  0.13830167883E+02 -0.32421181142E+01  0.10663689022E+02  0.17762295385E+02  0.51100000000E-03 0. -1.
        -11    1    3    3    0    0 -0.11716148288E+02  0.25003110654E+02 -0.13313797986E+02  0.30654214884E+02  0.51100000000E-03 0.  1.
         12    1    3    3    0    0  0.18359492849E+01 -0.18418853073E+02 -0.15347310506E+02  0.24045057664E+02  0.00000000000E+00 0. -1.
</event>
<event>
 7    1  0.2873608E-013  0.7246157E+02  0.7816164E-02  0.1226708E+00
        -11   -1    0    0    0    0  0.00000000000E+00  0.00000000000E+00  0.45593999997E+02  0.45594000000E+02  0.51100000000E-03 0. -1.
         11   -1    0    0    0    0 -0.00000000000E+00 -0.00000000000E+00 -0.45593999997E+02  0.45594000000E+02  0.51100000000E-03 0.  1.
    9900012    2    1    2    0    0  0.38893119521E+01 -0.68614525260E+01 -0.16984485762E+02  0.72461573891E+02  0.70000004685E+02 0.  0.
         12    1    1    2    0    0 -0.38893119521E+01  0.68614525260E+01  0.16984485762E+02  0.18726426109E+02  0.00000000000E+00 0. -1.
         11    1    3    3    0    0  0.75186361926E+01  0.12524626468E+02 -0.22915866701E+02  0.27175965582E+02  0.51100000000E-03 0. -1.
        -11    1    3    3    0    0  0.53291296065E+01  0.10341083841E+02 -0.45862346887E+01  0.12504846511E+02  0.51100000000E-03 0.  1.
         12    1    3    3    0    0 -0.89584538469E+01 -0.29727162835E+02  0.10517615628E+02  0.32780761798E+02  0.00000000000E+00 0. -1.
</event>
<event>
 7    1  0.2873608E-013  0.7246160E+02  0.7816164E-02  0.1226708E+00
        -11   -1    0    0    0    0  0.00000000000E+00  0.00000000000E+00  0.45593999997E+02  0.45594000000E+02  0.51100000000E-03 0.  1.
         11   -1    0    0    0    0 -0.00000000000E+00 -0.00000000000E+00 -0.45593999997E+02  0.45594000000E+02  0.51100000000E-03 0. -1.
    9900012    2    1    2    0    0  0.23432784246E+01 -0.12165507653E+02  0.14042350524E+02  0.72461597824E+02  0.70000035862E+02 0.  0.
         12    1    1    2    0    0 -0.23432784246E+01  0.12165507653E+02 -0.14042350524E+02  0.18726402176E+02  0.00000000000E+00 0. -1.
         11    1    3    3    0    0  0.16011137693E+02 -0.23499696039E+02 -0.11867991179E+02  0.30813007952E+02  0.51100000000E-03 0. -1.
        -11    1    3    3    0    0  0.14878125451E+01  0.26032131763E+01 -0.51746990519E+01  0.59806199971E+01  0.51100000000E-03 0.  1.
        -12    1    3    3    0    0 -0.15155671814E+02  0.87309752101E+01  0.31085040755E+02  0.35667969874E+02  0.00000000000E+00 0.  1.
</event>
<event>
 7    1  0.2873608E-013  0.7246156E+02  0.7816164E-02  0.1226708E+00
        -11   -1    0    0    0    0  0.00000000000E+00  0.00000000000E+00  0.45593999997E+02  0.45594000000E+02  0.51100000000E-03 0.  1.
         11   -1    0    0    0    0 -0.00000000000E+00 -0.00000000000E+00 -0.45593999997E+02  0.45594000000E+02  0.51100000000E-03 0. -1.
    9900012    2    1    2    0    0 -0.60119067477E+01 -0.70939575733E+00  0.17720983397E+02  0.72461561000E+02  0.69999987892E+02 0.  0.
         12    1    1    2    0    0  0.60119067477E+01  0.70939575733E+00 -0.17720983397E+02  0.18726439000E+02  0.00000000000E+00 0. -1.
         11    1    3    3    0    0  0.41619553213E+01  0.30582321919E+01  0.46011441342E+01  0.69170213127E+01  0.51100000000E-03 0. -1.
        -11    1    3    3    0    0  0.21529139810E+02  0.10325558623E+02  0.18797609513E+02  0.30388668045E+02  0.51100000000E-03 0.  1.
         12    1    3    3    0    0 -0.31703001879E+02 -0.14093186572E+02 -0.56777702510E+01  0.35155871642E+02  0.00000000000E+00 0. -1.
</event>
<event>
 7    1  0.2873608E-013  0.7246221E+02  0.7816164E-02  0.1226706E+00
        -11   -1    0    0    0    0  0.00000000000E+00  0.00000000000E+00  0.45593999997E+02  0.45594000000E+02  0.51100000000E-03 0.  1.
         11   -1    0    0    0    0 -0.00000000000E+00 -0.00000000000E+00 -0.45593999997E+02  0.45594000000E+02  0.51100000000E-03 0. -1.
    9900012    2    1    2    0    0 -0.63987579099E+01  0.16729039424E+02  0.54635593345E+01  0.72462206467E+02  0.70000828728E+02 0.  0.
         12    1    1    2    0    0  0.63987579099E+01 -0.16729039424E+02 -0.54635593345E+01  0.18725793533E+02  0.00000000000E+00 0. -1.
         11    1    3    3    0    0  0.18222916993E+02 -0.11775264364E+01  0.29821074926E+01  0.18502817018E+02  0.51100000000E-03 0. -1.
        -11    1    3    3    0    0  0.11824804231E+01 -0.91937714040E+01  0.12176709491E+02  0.15303461924E+02  0.51100000000E-03 0.  1.
         12    1    3    3    0    0 -0.25804155326E+02  0.27100337264E+02 -0.96952576492E+01  0.38655927525E+02  0.00000000000E+00 0. -1.
</event>
<event>
 7    1  0.2873608E-013  0.7246157E+02  0.7816164E-02  0.1226708E+00
        -11   -1    0    0    0    0  0.00000000000E+00  0.00000000000E+00  0.45593999997E+02  0.45594000000E+02  0.51100000000E-03 0. -1.
         11   -1    0    0    0    0 -0.00000000000E+00 -0.00000000000E+00 -0.45593999997E+02  0.45594000000E+02  0.51100000000E-03 0.  1.
    9900012    2    1    2    0    0  0.10109760393E+02  0.83933951847E+00 -0.15740626290E+02  0.72461573164E+02  0.70000003738E+02 0.  0.
         12    1    1    2    0    0 -0.10109760393E+02 -0.83933951847E+00  0.15740626290E+02  0.18726426836E+02  0.00000000000E+00 0. -1.
         11    1    3    3    0    0  0.15699179721E+02  0.56118368307E+01  0.37870435548E+01  0.17096744008E+02  0.51100000000E-03 0. -1.
        -11    1    3    3    0    0  0.20327771263E+02 -0.10190218187E+02 -0.47312001848E+00  0.22743849147E+02  0.51100000000E-03 0.  1.
         12    1    3    3    0    0 -0.25917190591E+02  0.54177208747E+01 -0.19054549827E+02  0.32620980008E+02  0.00000000000E+00 0. -1.
</event>
<event>
 7    1  0.2873608E-013  0.7246169E+02  0.7816164E-02  0.1226708E+00
        -11   -1    0    0    0    0  0.00000000000E+00  0.00000000000E+00  0.45593999997E+02  0.45594000000E+02  0.51100000000E-03 0. -1.
         11   -1    0    0    0    0 -0.00000000000E+00 -0.00000000000E+00 -0.45593999997E+02  0.45594000000E+02  0.51100000000E-03 0.  1.
    9900012    2    1    2    0    0  0.51771677235E+01  0.55907359185E+01 -0.17105996655E+02  0.72461694563E+02  0.70000161883E+02 0.  0.
         12    1    1    2    0    0 -0.51771677235E+01 -0.55907359185E+01  0.17105996655E+02  0.18726305437E+02  0.00000000000E+00 0. -1.
         11    1    3    3    0    0  0.38288896473E+01 -0.71988840651E+01  0.42929308927E+01  0.92148566795E+01  0.51100000000E-03 0. -1.
        -11    1    3    3    0    0 -0.47562602999E+01  0.33598343520E+02 -0.17419715019E+01  0.33978010011E+02  0.51100000000E-03 0.  1.
         12    1    3    3    0    0  0.61045383760E+01 -0.20808723537E+02 -0.19656956046E+02  0.29268827872E+02  0.00000000000E+00 0. -1.
</event>
<event>
 7    1  0.2873608E-013  0.7246161E+02  0.7816164E-02  0.1226708E+00
        -11   -1    0    0    0    0  0.00000000000E+00  0.00000000000E+00  0.45593999997E+02  0.45594000000E+02  0.51100000000E-03 0. -1.
         11   -1    0    0    0    0 -0.00000000000E+00 -0.00000000000E+00 -0.45593999997E+02  0.45594000000E+02  0.51100000000E-03 0.  1.
    9900012    2    1    2    0    0 -0.26215814793E+01  0.37188455850E+01 -0.18165218991E+02  0.72461609987E+02  0.70000051707E+02 0.  0.
         12    1    1    2    0    0  0.26215814793E+01 -0.37188455850E+01  0.18165218991E+02  0.18726390013E+02  0.00000000000E+00 0. -1.
         11    1    3    3    0    0  0.33080004010E+01  0.51019231388E+01 -0.95222120397E+00  0.61546089924E+01  0.51100000000E-03 0. -1.
        -11    1    3    3    0    0 -0.59119696609E+01  0.11265477335E+02 -0.39050578568E+02  0.41070793170E+02  0.51100000000E-03 0.  1.
         12    1    3    3    0    0 -0.17612219350E-01 -0.12648554889E+02  0.21837580782E+02  0.25236207824E+02  0.00000000000E+00 0. -1.
</event>
<event>
 7    1  0.2873608E-013  0.7246162E+02  0.7816164E-02  0.1226708E+00
        -11   -1    0    0    0    0  0.00000000000E+00  0.00000000000E+00  0.45593999997E+02  0.45594000000E+02  0.51100000000E-03 0.  1.
         11   -1    0    0    0    0 -0.00000000000E+00 -0.00000000000E+00 -0.45593999997E+02  0.45594000000E+02  0.51100000000E-03 0. -1.
    9900012    2    1    2    0    0 -0.10567711351E+02 -0.14089145419E+02  0.63637106176E+01  0.72461618752E+02  0.70000063125E+02 0.  0.
         12    1    1    2    0    0  0.10567711351E+02  0.14089145419E+02 -0.63637106176E+01  0.18726381248E+02  0.00000000000E+00 0. -1.
         11    1    3    3    0    0 -0.20757084106E+02  0.47357184545E+01 -0.25053091910E+01  0.21437353947E+02  0.51100000000E-03 0. -1.
        -11    1    3    3    0    0 -0.31235480925E+01  0.13163951137E+02 -0.39279209676E+01  0.14088105821E+02  0.51100000000E-03 0.  1.
        -12    1    3    3    0    0  0.13312920847E+02 -0.31988815010E+02  0.12796940776E+02  0.36936158984E+02  0.00000000000E+00 0.  1.
</event>
<event>
 7    1  0.2873608E-013  0.7246154E+02  0.7816164E-02  0.1226708E+00
        -11   -1    0    0    0    0  0.00000000000E+00  0.00000000000E+00  0.45593999997E+02  0.45594000000E+02  0.51100000000E-03 0.  1.
         11   -1    0    0    0    0 -0.00000000000E+00 -0.00000000000E+00 -0.45593999997E+02  0.45594000000E+02  0.51100000000E-03 0. -1.
    9900012    2    1    2    0    0 -0.55880179376E+00 -0.17650662759E+02 -0.62307415774E+01  0.72461540220E+02  0.69999960822E+02 0.  0.
         12    1    1    2    0    0  0.55880179376E+00  0.17650662759E+02  0.62307415774E+01  0.18726459780E+02  0.00000000000E+00 0. -1.
         11    1    3    3    0    0 -0.25578216247E+00 -0.75379416425E+00 -0.22408828739E+02  0.22422962246E+02  0.51100000000E-03 0. -1.
        -11    1    3    3    0    0 -0.81230696610E+01  0.13585956278E+02  0.43132267232E+01  0.16406291285E+02  0.51100000000E-03 0.  1.
        -12    1    3    3    0    0  0.78200500297E+01 -0.30482824873E+02  0.11864860438E+02  0.33632286689E+02  0.00000000000E+00 0.  1.
</event>
<event>
 7    1  0.2873608E-013  0.7246159E+02  0.7816164E-02  0.1226708E+00
        -11   -1    0    0    0    0  0.00000000000E+00  0.00000000000E+00  0.45593999997E+02  0.45594000000E+02  0.51100000000E-03 0. -1.
         11   -1    0    0    0    0 -0.00000000000E+00 -0.00000000000E+00 -0.45593999997E+02  0.45594000000E+02  0.51100000000E-03 0.  1.
    9900012    2    1    2    0    0 -0.65610027730E+01 -0.12797440140E+02 -0.11994047561E+02  0.72461590616E+02  0.70000026472E+02 0.  0.
         12    1    1    2    0    0  0.65610027730E+01  0.12797440140E+02  0.11994047561E+02  0.18726409384E+02  0.00000000000E+00 0. -1.
         11    1    3    3    0    0 -0.94837880273E+01 -0.24552202976E+02  0.21011025481E+02  0.33678124923E+02  0.51100000000E-03 0. -1.
        -11    1    3    3    0    0 -0.41144686243E+01  0.82822378298E+00 -0.11088151185E+01  0.43409996456E+01  0.51100000000E-03 0.  1.
        -12    1    3    3    0    0  0.70372538786E+01  0.10926539053E+02 -0.31896257924E+02  0.34442466047E+02  0.00000000000E+00 0.  1.
</event>
<event>
 7    1  0.2873608E-013  0.7246161E+02  0.7816164E-02  0.1226708E+00
        -11   -1    0    0    0    0  0.00000000000E+00  0.00000000000E+00  0.45593999997E+02  0.45594000000E+02  0.51100000000E-03 0.  1.
         11   -1    0    0    0    0 -0.00000000000E+00 -0.00000000000E+00 -0.45593999997E+02  0.45594000000E+02  0.51100000000E-03 0. -1.
    9900012    2    1    2    0    0  0.18024155357E+02  0.39155573266E+01  0.32366269232E+01  0.72461614355E+02  0.70000057397E+02 0.  0.
         12    1    1    2    0    0 -0.18024155357E+02 -0.39155573266E+01 -0.32366269232E+01  0.18726385645E+02  0.00000000000E+00 0. -1.
         11    1    3    3    0    0  0.18280067925E+02  0.10887326380E+02  0.69290842764E+01  0.22376482481E+02  0.51100000000E-03 0. -1.
        -11    1    3    3    0    0 -0.16360226716E+02 -0.21198388627E+02  0.43748528940E+01  0.27132416713E+02  0.51100000000E-03 0.  1.
         12    1    3    3    0    0  0.16104314147E+02  0.14226619573E+02 -0.80673102472E+01  0.22952715161E+02  0.00000000000E+00 0. -1.
</event>
<event>
 7    1  0.2873608E-013  0.7246158E+02  0.7816164E-02  0.1226708E+00
        -11   -1    0    0    0    0  0.00000000000E+00  0.00000000000E+00  0.45593999997E+02  0.45594000000E+02  0.51100000000E-03 0. -1.
         11   -1    0    0    0    0 -0.00000000000E+00 -0.00000000000E+00 -0.45593999997E+02  0.45594000000E+02  0.51100000000E-03 0.  1.
    9900012    2    1    2    0    0  0.90092198119E+01  0.83456655211E+01 -0.14137281707E+02  0.72461577259E+02  0.70000009073E+02 0.  0.
         12    1    1    2    0    0 -0.90092198119E+01 -0.83456655211E+01  0.14137281707E+02  0.18726422741E+02  0.00000000000E+00 0. -1.
         11    1    3    3    0    0  0.16528708888E+02  0.58846011511E+01 -0.24576987447E+02  0.30196937932E+02  0.51100000000E-03 0. -1.
        -11    1    3    3    0    0 -0.14760466614E+02 -0.38580187507E+01 -0.10973987353E+02  0.18793192439E+02  0.51100000000E-03 0.  1.
         12    1    3    3    0    0  0.72409775376E+01  0.63190831207E+01  0.21413693092E+02  0.23471446889E+02  0.00000000000E+00 0. -1.
</event>
<event>
 7    1  0.2873608E-013  0.7246157E+02  0.7816164E-02  0.1226708E+00
        -11   -1    0    0    0    0  0.00000000000E+00  0.00000000000E+00  0.45593999997E+02  0.45594000000E+02  0.51100000000E-03 0. -1.
         11   -1    0    0    0    0 -0.00000000000E+00 -0.00000000000E+00 -0.45593999997E+02  0.45594000000E+02  0.51100000000E-03 0.  1.
    9900012    2    1    2    0    0  0.80029873442E+01  0.14634028909E+02 -0.85133066845E+01  0.72461574841E+02  0.70000005923E+02 0.  0.
         12    1    1    2    0    0 -0.80029873442E+01 -0.14634028909E+02  0.85133066845E+01  0.18726425159E+02  0.00000000000E+00 0. -1.
         11    1    3    3    0    0  0.39111742972E+01  0.13422763078E+01  0.93196342270E+01  0.10195811515E+02  0.51100000000E-03 0. -1.
        -11    1    3    3    0    0  0.29622565391E+02  0.40114417910E+01 -0.18386714679E+02  0.35095004239E+02  0.51100000000E-03 0.  1.
         12    1    3    3    0    0 -0.25530752344E+02  0.92803108100E+01  0.55377376707E+00  0.27170759087E+02  0.00000000000E+00 0. -1.
</event>
<event>
 7    1  0.2873608E-013  0.7246159E+02  0.7816164E-02  0.1226708E+00
        -11   -1    0    0    0    0  0.00000000000E+00  0.00000000000E+00  0.45593999997E+02  0.45594000000E+02  0.51100000000E-03 0.  1.
         11   -1    0    0    0    0 -0.00000000000E+00 -0.00000000000E+00 -0.45593999997E+02  0.45594000000E+02  0.51100000000E-03 0. -1.
    9900012    2    1    2    0    0 -0.95755386567E+01 -0.16072139160E+02  0.82091067739E+00  0.72461588382E+02  0.70000023563E+02 0.  0.
         12    1    1    2    0    0  0.95755386567E+01  0.16072139160E+02 -0.82091067739E+00  0.18726411618E+02  0.00000000000E+00 0. -1.
         11    1    3    3    0    0  0.55488279342E+01  0.36254423125E+01  0.42008814148E+01  0.78473389328E+01  0.51100000000E-03 0. -1.
        -11    1    3    3    0    0 -0.21550218820E+02 -0.15359418808E+02  0.24264037579E+02  0.35903581955E+02  0.51100000000E-03 0.  1.
         12    1    3    3    0    0  0.64258522288E+01 -0.43381626638E+01 -0.27644008317E+02  0.28710667495E+02  0.00000000000E+00 0. -1.
</event>
<event>
 7    1  0.2873608E-013  0.7246158E+02  0.7816164E-02  0.1226708E+00
        -11   -1    0    0    0    0  0.00000000000E+00  0.00000000000E+00  0.45593999997E+02  0.45594000000E+02  0.51100000000E-03 0. -1.
         11   -1    0    0    0    0 -0.00000000000E+00 -0.00000000000E+00 -0.45593999997E+02  0.45594000000E+02  0.51100000000E-03 0.  1.
    9900012    2    1    2    0    0  0.17399515453E+02 -0.47214531830E+01  0.50639482245E+01  0.72461579366E+02  0.70000011817E+02 0.  0.
         12    1    1    2    0    0 -0.17399515453E+02  0.47214531830E+01 -0.50639482245E+01  0.18726420634E+02  0.00000000000E+00 0. -1.
         11    1    3    3    0    0  0.14504617608E+02  0.80942203977E+01  0.18438814364E+02  0.24817135435E+02  0.51100000000E-03 0. -1.
        -11    1    3    3    0    0  0.69145950839E+01  0.15580008382E+02 -0.53040939042E+01  0.17851658152E+02  0.51100000000E-03 0.  1.
        -12    1    3    3    0    0 -0.40196972390E+01 -0.28395681963E+02 -0.80707722351E+01  0.29792785779E+02  0.00000000000E+00 0.  1.
</event>
<event>
 7    1  0.2873608E-013  0.7246156E+02  0.7816164E-02  0.1226708E+00
        -11   -1    0    0    0    0  0.00000000000E+00  0.00000000000E+00  0.45593999997E+02  0.45594000000E+02  0.51100000000E-03 0.  1.
         11   -1    0    0    0    0 -0.00000000000E+00 -0.00000000000E+00 -0.45593999997E+02  0.45594000000E+02  0.51100000000E-03 0. -1.
    9900012    2    1    2    0    0  0.11257125951E+02  0.14397792304E+02  0.40816837509E+01  0.72461562801E+02  0.69999990239E+02 0.  0.
         12    1    1    2    0    0 -0.11257125951E+02 -0.14397792304E+02 -0.40816837509E+01  0.18726437199E+02  0.00000000000E+00 0. -1.
         11    1    3    3    0    0  0.15271390851E+02  0.18880235768E+02  0.45039069852E+01  0.24697446418E+02  0.51100000000E-03 0. -1.
        -11    1    3    3    0    0  0.12445064149E+02  0.11145351641E+02  0.13201396518E+02  0.21292612690E+02  0.51100000000E-03 0.  1.
         12    1    3    3    0    0 -0.16459329049E+02 -0.15627795105E+02 -0.13623619753E+02  0.26471503693E+02  0.00000000000E+00 0. -1.
</event>
<event>
 7    1  0.2873608E-013  0.7246158E+02  0.7816164E-02  0.1226708E+00
        -11   -1    0    0    0    0  0.00000000000E+00  0.00000000000E+00  0.45593999997E+02  0.45594000000E+02  0.51100000000E-03 0.  1.
         11   -1    0    0    0    0 -0.00000000000E+00 -0.00000000000E+00 -0.45593999997E+02  0.45594000000E+02  0.51100000000E-03 0. -1.
    9900012    2    1    2    0    0  0.10997976420E+02 -0.11298873596E+02  0.10102407647E+02  0.72461583628E+02  0.70000017370E+02 0.  0.
         12    1    1    2    0    0 -0.10997976420E+02  0.11298873596E+02 -0.10102407647E+02  0.18726416372E+02  0.00000000000E+00 0. -1.
         11    1    3    3    0    0 -0.18564086628E+02 -0.15576444000E+02 -0.50890286536E+01  0.24761848334E+02  0.51100000000E-03 0. -1.
        -11    1    3    3    0    0 -0.11367751300E+01 -0.10882175640E+02  0.28625083561E+01  0.11309640079E+02  0.51100000000E-03 0.  1.
        -12    1    3    3    0    0  0.30698838178E+02  0.15159746044E+02  0.12328927944E+02  0.36390095216E+02  0.00000000000E+00 0.  1.
</event>
<event>
 7    1  0.2873608E-013  0.7246204E+02  0.7816164E-02  0.1226707E+00
        -11   -1    0    0    0    0  0.00000000000E+00  0.00000000000E+00  0.45593999997E+02  0.45594000000E+02  0.51100000000E-03 0.  1.
         11   -1    0    0    0    0 -0.00000000000E+00 -0.00000000000E+00 -0.45593999997E+02  0.45594000000E+02  0.51100000000E-03 0. -1.
    9900012    2    1    2    0    0  0.53063590150E+01  0.17674893915E+02  0.31783873835E+01  0.72462042955E+02  0.70000615725E+02 0.  0.
         12    1    1    2    0    0 -0.53063590150E+01 -0.17674893915E+02 -0.31783873835E+01  0.18725957045E+02  0.00000000000E+00 0. -1.
         11    1    3    3    0    0 -0.24306526877E+01  0.48131433537E+01  0.23210672140E+02  0.23828758316E+02  0.51100000000E-03 0. -1.
        -11    1    3    3    0    0  0.12969529005E+01  0.24132831251E+02  0.69374514255E+00  0.24177611826E+02  0.51100000000E-03 0.  1.
         12    1    3    3    0    0  0.64400588023E+01 -0.11271080690E+02 -0.20726029899E+02  0.24455672812E+02  0.00000000000E+00 0. -1.
</event>
<event>
 7    1  0.2873608E-013  0.7246193E+02  0.7816164E-02  0.1226707E+00
        -11   -1    0    0    0    0  0.00000000000E+00  0.00000000000E+00  0.45593999997E+02  0.45594000000E+02  0.51100000000E-03 0.  1.
         11   -1    0    0    0    0 -0.00000000000E+00 -0.00000000000E+00 -0.45593999997E+02  0.45594000000E+02  0.51100000000E-03 0. -1.
    9900012    2    1    2    0    0 -0.16846975690E+02  0.80625238844E+01  0.13568199939E+01  0.72461926151E+02  0.70000463568E+02 0.  0.
         12    1    1    2    0    0  0.16846975690E+02 -0.80625238844E+01 -0.13568199939E+01  0.18726073849E+02  0.00000000000E+00 0. -1.
         11    1    3    3    0    0 -0.75329598180E+01 -0.58519229412E+01 -0.18997060327E+02  0.21257440746E+02  0.51100000000E-03 0. -1.
        -11    1    3    3    0    0  0.17646655843E+02  0.45879438132E+01  0.55228106817E+01  0.19051381287E+02  0.51100000000E-03 0.  1.
        -12    1    3    3    0    0 -0.26960671715E+02  0.93265030124E+01  0.14831069639E+02  0.32153104118E+02  0.00000000000E+00 0.  1.
</event>
<event>
 7    1  0.2873608E-013  0.7246158E+02  0.7816164E-02  0.1226708E+00
        -11   -1    0    0    0    0  0.00000000000E+00  0.00000000000E+00  0.45593999997E+02  0.45594000000E+02  0.51100000000E-03 0.  1.
         11   -1    0    0    0    0 -0.00000000000E+00 -0.00000000000E+00 -0.45593999997E+02  0.45594000000E+02  0.51100000000E-03 0. -1.
    9900012    2    1    2    0    0 -0.18125828268E+02  0.45858369587E+01  0.10503969200E+01  0.72461577899E+02  0.70000009906E+02 0.  0.
         12    1    1    2    0    0  0.18125828268E+02 -0.45858369587E+01 -0.10503969200E+01  0.18726422101E+02  0.00000000000E+00 0. -1.
         11    1    3    3    0    0 -0.31124646829E+01 -0.15409707667E+02  0.25962699522E+01  0.15933836472E+02  0.51100000000E-03 0. -1.
        -11    1    3    3    0    0  0.11632932069E+02 -0.62465851231E+01  0.10890093337E+02  0.17115462815E+02  0.51100000000E-03 0.  1.
         12    1    3    3    0    0 -0.26646295654E+02  0.26242129748E+02 -0.12435966370E+02  0.39412278612E+02  0.00000000000E+00 0. -1.
</event>
<event>
 7    1  0.2873608E-013  0.7246155E+02  0.7816164E-02  0.1226708E+00
        -11   -1    0    0    0    0  0.00000000000E+00  0.00000000000E+00  0.45593999997E+02  0.45594000000E+02  0.51100000000E-03 0.  1.
         11   -1    0    0    0    0 -0.00000000000E+00 -0.00000000000E+00 -0.45593999997E+02  0.45594000000E+02  0.51100000000E-03 0. -1.
    9900012    2    1    2    0    0 -0.59972077753E+01  0.20734922376E+00  0.17738950878E+02  0.72461551510E+02  0.69999975530E+02 0.  0.
         12    1    1    2    0    0  0.59972077753E+01 -0.20734922376E+00 -0.17738950878E+02  0.18726448490E+02  0.00000000000E+00 0. -1.
         11    1    3    3    0    0 -0.15369267902E+02  0.75518764168E+01 -0.10891550534E+02  0.20294607820E+02  0.51100000000E-03 0. -1.
        -11    1    3    3    0    0  0.16558372164E+02  0.13490149992E+02  0.11529623528E+02  0.24271301046E+02  0.51100000000E-03 0.  1.
         12    1    3    3    0    0 -0.71863120370E+01 -0.20834677185E+02  0.17100877884E+02  0.27895642644E+02  0.00000000000E+00 0. -1.
</event>
<event>
 7    1  0.2873608E-013  0.7246157E+02  0.7816164E-02  0.1226708E+00
        -11   -1    0    0    0    0  0.00000000000E+00  0.00000000000E+00  0.45593999997E+02  0.45594000000E+02  0.51100000000E-03 0. -1.
         11   -1    0    0    0    0 -0.00000000000E+00 -0.00000000000E+00 -0.45593999997E+02  0.45594000000E+02  0.51100000000E-03 0.  1.
    9900012    2    1    2    0    0  0.10866230621E+02 -0.51007981892E+01 -0.14373096248E+02  0.72461574665E+02  0.70000005693E+02 0.  0.
         12    1    1    2    0    0 -0.10866230621E+02  0.51007981892E+01  0.14373096248E+02  0.18726425335E+02  0.00000000000E+00 0. -1.
         11    1    3    3    0    0 -0.65938226647E+01 -0.19386381634E+02 -0.28910432946E+01  0.20680145594E+02  0.51100000000E-03 0. -1.
        -11    1    3    3    0    0  0.13793772368E+02 -0.14994719717E+02 -0.77146638610E+00  0.20388843424E+02  0.51100000000E-03 0.  1.
        -12    1    3    3    0    0  0.36662809176E+01  0.29280303161E+02 -0.10710586568E+02  0.31392585647E+02  0.00000000000E+00 0.  1.
</event>
<event>
 7    1  0.2873608E-013  0.7246214E+02  0.7816164E-02  0.1226706E+00
        -11   -1    0    0    0    0  0.00000000000E+00  0.00000000000E+00  0.45593999997E+02  0.45594000000E+02  0.51100000000E-03 0.  1.
         11   -1    0    0    0    0 -0.00000000000E+00 -0.00000000000E+00 -0.45593999997E+02  0.45594000000E+02  0.51100000000E-03 0. -1.
    9900012    2    1    2    0    0 -0.75021777167E+01  0.16766320515E+02  0.36422054410E+01  0.72462139951E+02  0.70000742080E+02 0.  0.
         12    1    1    2    0    0  0.75021777167E+01 -0.16766320515E+02 -0.36422054410E+01  0.18725860049E+02  0.00000000000E+00 0. -1.
         11    1    3    3    0    0  0.60995446292E+01  0.46727354862E+00  0.20127427294E+02  0.21036542468E+02  0.51100000000E-03 0. -1.
        -11    1    3    3    0    0  0.21982356209E+01  0.16115926558E+02  0.11060604672E+02  0.19669578151E+02  0.51100000000E-03 0.  1.
         12    1    3    3    0    0 -0.15799957967E+02  0.18312040764E+00 -0.27545826526E+02  0.31756019332E+02  0.00000000000E+00 0. -1.
</event>
<event>
 7    1  0.2873608E-013  0.7246150E+02  0.7816164E-02  0.1226708E+00
        -11   -1    0    0    0    0  0.00000000000E+00  0.00000000000E+00  0.45593999997E+02  0.45594000000E+02  0.51100000000E-03 0.  1.
         11   -1    0    0    0    0 -0.00000000000E+00 -0.00000000000E+00 -0.45593999997E+02  0.45594000000E+02  0.51100000000E-03 0. -1.
    9900012    2    1    2    0    0 -0.12230640299E+02  0.99130358217E+01 -0.10140264345E+02  0.72461499998E+02  0.69999908426E+02 0.  0.
         12    1    1    2    0    0  0.12230640299E+02 -0.99130358217E+01  0.10140264345E+02  0.18726500002E+02  0.00000000000E+00 0. -1.
         11    1    3    3    0    0  0.11154917014E+02 -0.11998630622E+01  0.10219591780E+02  0.15176030488E+02  0.51100000000E-03 0. -1.
        -11    1    3    3    0    0 -0.10841133209E+02  0.15621725611E+02  0.11864499328E+02  0.22412827240E+02  0.51100000000E-03 0.  1.
         12    1    3    3    0    0 -0.12544424104E+02 -0.45088267273E+01 -0.32224355453E+02  0.34872642270E+02  0.00000000000E+00 0. -1.
</event>
<event>
 7    1  0.2873608E-013  0.7246159E+02  0.7816164E-02  0.1226708E+00
        -11   -1    0    0    0    0  0.00000000000E+00  0.00000000000E+00  0.45593999997E+02  0.45594000000E+02  0.51100000000E-03 0.  1.
         11   -1    0    0    0    0 -0.00000000000E+00 -0.00000000000E+00 -0.45593999997E+02  0.45594000000E+02  0.51100000000E-03 0. -1.
    9900012    2    1    2    0    0 -0.11491551422E+01 -0.54659194546E+01  0.17874048148E+02  0.72461590033E+02  0.70000025714E+02 0.  0.
         12    1    1    2    0    0  0.11491551422E+01  0.54659194546E+01 -0.17874048148E+02  0.18726409967E+02  0.00000000000E+00 0. -1.
         11    1    3    3    0    0  0.47543310867E+01  0.10103249714E+02 -0.98367598191E+01  0.14880899262E+02  0.51100000000E-03 0. -1.
        -11    1    3    3    0    0  0.10332371273E+02 -0.19053446209E+02 -0.37592661068E+01  0.21998267897E+02  0.51100000000E-03 0.  1.
         12    1    3    3    0    0 -0.16235857502E+02  0.34842770403E+01  0.31470074074E+02  0.35582422874E+02  0.00000000000E+00 0. -1.
</event>
<event>
 7    1  0.2873608E-013  0.7246150E+02  0.7816164E-02  0.1226708E+00
        -11   -1    0    0    0    0  0.00000000000E+00  0.00000000000E+00  0.45593999997E+02  0.45594000000E+02  0.51100000000E-03 0.  1.
         11   -1    0    0    0    0 -0.00000000000E+00 -0.00000000000E+00 -0.45593999997E+02  0.45594000000E+02  0.51100000000E-03 0. -1.
    9900012    2    1    2    0    0 -0.10635069593E+02  0.14941584989E+02  0.37849647572E+01  0.72461504721E+02  0.69999914579E+02 0.  0.
         12    1    1    2    0    0  0.10635069593E+02 -0.14941584989E+02 -0.37849647572E+01  0.18726495279E+02  0.00000000000E+00 0. -1.
         11    1    3    3    0    0 -0.57646179960E+01 -0.10732724720E+02  0.13984098749E+02  0.18546622837E+02  0.51100000000E-03 0. -1.
        -11    1    3    3    0    0 -0.17765568843E+02 -0.55047965299E+01  0.22687959019E+00  0.18600260637E+02  0.51100000000E-03 0.  1.
         12    1    3    3    0    0  0.12895117247E+02  0.31179106239E+02 -0.10426013582E+02  0.35314621248E+02  0.00000000000E+00 0. -1.
</event>
<event>
 7    1  0.2873608E-013  0.7246180E+02  0.7816164E-02  0.1226707E+00
        -11   -1    0    0    0    0  0.00000000000E+00  0.00000000000E+00  0.45593999997E+02  0.45594000000E+02  0.51100000000E-03 0. -1.
         11   -1    0    0    0    0 -0.00000000000E+00 -0.00000000000E+00 -0.45593999997E+02  0.45594000000E+02  0.51100000000E-03 0.  1.
    9900012    2    1    2    0    0  0.97447188011E+01  0.12868785133E+02  0.94923791001E+01  0.72461803475E+02  0.70000303761E+02 0.  0.
         12    1    1    2    0    0 -0.97447188011E+01 -0.12868785133E+02 -0.94923791001E+01  0.18726196525E+02  0.00000000000E+00 0. -1.
         11    1    3    3    0    0  0.10531734194E+02 -0.61929754502E+01 -0.29048781433E+01  0.12558211949E+02  0.51100000000E-03 0. -1.
        -11    1    3    3    0    0 -0.35735351304E+01 -0.17802238829E+02 -0.53025160174E+01  0.18915774820E+02  0.51100000000E-03 0.  1.
         12    1    3    3    0    0  0.27865197377E+01  0.36863999412E+02  0.17699773261E+02  0.40987816707E+02  0.00000000000E+00 0. -1.
</event>
<event>
 7    1  0.2873608E-013  0.7246155E+02  0.7816164E-02  0.1226708E+00
        -11   -1    0    0    0    0  0.00000000000E+00  0.00000000000E+00  0.45593999997E+02  0.45594000000E+02  0.51100000000E-03 0. -1.
         11   -1    0    0    0    0 -0.00000000000E+00 -0.00000000000E+00 -0.45593999997E+02  0.45594000000E+02  0.51100000000E-03 0.  1.
    9900012    2    1    2    0    0  0.11969112082E+02 -0.78203114898E+01  0.12093929244E+02  0.72461547042E+02  0.69999969710E+02 0.  0.
         12    1    1    2    0    0 -0.11969112082E+02  0.78203114898E+01 -0.12093929244E+02  0.18726452958E+02  0.00000000000E+00 0. -1.
         11    1    3    3    0    0  0.31227226937E+01 -0.10015381400E+02  0.33111169857E+02  0.34733396482E+02  0.51100000000E-03 0. -1.
        -11    1    3    3    0    0  0.14063244508E+02 -0.54520745518E+01 -0.35533580437E+00  0.15087286926E+02  0.51100000000E-03 0.  1.
        -12    1    3    3    0    0 -0.52168551194E+01  0.76471444624E+01 -0.20661904809E+02  0.22640863634E+02  0.00000000000E+00 0.  1.
</event>
<event>
 7    1  0.2873608E-013  0.7246148E+02  0.7816164E-02  0.1226708E+00
        -11   -1    0    0    0    0  0.00000000000E+00  0.00000000000E+00  0.45593999997E+02  0.45594000000E+02  0.51100000000E-03 0. -1.
         11   -1    0    0    0    0 -0.00000000000E+00 -0.00000000000E+00 -0.45593999997E+02  0.45594000000E+02  0.51100000000E-03 0.  1.
    9900012    2    1    2    0    0 -0.16202555481E+02 -0.89578106557E+01  0.28138060850E+01  0.72461476550E+02  0.69999877880E+02 0.  0.
         12    1    1    2    0    0  0.16202555481E+02  0.89578106557E+01 -0.28138060850E+01  0.18726523450E+02  0.00000000000E+00 0. -1.
         11    1    3    3    0    0 -0.11744773991E+02 -0.20002280448E+02 -0.15638395253E+00  0.23196021112E+02  0.51100000000E-03 0. -1.
        -11    1    3    3    0    0 -0.21297962224E+02 -0.87975866373E+01  0.30195066153E+01  0.23240442035E+02  0.51100000000E-03 0.  1.
        -12    1    3    3    0    0  0.16840180734E+02  0.19842056429E+02 -0.49316577821E-01  0.26025013403E+02  0.00000000000E+00 0.  1.
</event>
<event>
 7    1  0.2873608E-013  0.7246153E+02  0.7816164E-02  0.1226708E+00
        -11   -1    0    0    0    0  0.00000000000E+00  0.00000000000E+00  0.45593999997E+02  0.45594000000E+02  0.51100000000E-03 0.  1.
         11   -1    0    0    0    0 -0.00000000000E+00 -0.00000000000E+00 -0.45593999997E+02  0.45594000000E+02  0.51100000000E-03 0. -1.
    9900012    2    1    2    0    0 -0.71714114823E-01  0.24086612995E+01  0.18570782545E+02  0.72461527922E+02  0.69999944802E+02 0.  0.
         12    1    1    2    0    0  0.71714114823E-01 -0.24086612995E+01 -0.18570782545E+02  0.18726472078E+02  0.00000000000E+00 0. -1.
         11    1    3    3    0    0 -0.82597041082E+01 -0.16338282090E+02 -0.20502318325E+01  0.18421878961E+02  0.51100000000E-03 0. -1.
        -11    1    3    3    0    0 -0.17065131635E+02  0.17828342448E+02  0.99854119433E+01  0.26622865437E+02  0.51100000000E-03 0.  1.
         12    1    3    3    0    0  0.25253121628E+02  0.91860094106E+00  0.10635602434E+02  0.27416783524E+02  0.00000000000E+00 0. -1.
</event>
<event>
 7    1  0.2873608E-013  0.7246154E+02  0.7816164E-02  0.1226708E+00
        -11   -1    0    0    0    0  0.00000000000E+00  0.00000000000E+00  0.45593999997E+02  0.45594000000E+02  0.51100000000E-03 0. -1.
         11   -1    0    0    0    0 -0.00000000000E+00 -0.00000000000E+00 -0.45593999997E+02  0.45594000000E+02  0.51100000000E-03 0.  1.
    9900012    2    1    2    0    0 -0.16056928210E+02 -0.34188902746E+01 -0.90092543879E+01  0.72461536936E+02  0.69999956544E+02 0.  0.
         12    1    1    2    0    0  0.16056928210E+02  0.34188902746E+01  0.90092543879E+01  0.18726463064E+02  0.00000000000E+00 0. -1.
         11    1    3    3    0    0  0.96505759743E+01 -0.21345432771E+02  0.11890161985E+01  0.23455806884E+02  0.51100000000E-03 0. -1.
        -11    1    3    3    0    0  0.54372220960E+01  0.37416259300E+01 -0.13091064278E+02  0.14660801919E+02  0.51100000000E-03 0.  1.
         12    1    3    3    0    0 -0.31144726281E+02  0.14184916566E+02  0.28927936917E+01  0.34344928133E+02  0.00000000000E+00 0. -1.
</event>
<event>
 7    1  0.2873608E-013  0.7246166E+02  0.7816164E-02  0.1226708E+00
        -11   -1    0    0    0    0  0.00000000000E+00  0.00000000000E+00  0.45593999997E+02  0.45594000000E+02  0.51100000000E-03 0.  1.
         11   -1    0    0    0    0 -0.00000000000E+00 -0.00000000000E+00 -0.45593999997E+02  0.45594000000E+02  0.51100000000E-03 0. -1.
    9900012    2    1    2    0    0  0.80021700588E+01  0.16799981565E+02  0.20980591514E+01  0.72461656032E+02  0.70000111689E+02 0.  0.
         12    1    1    2    0    0 -0.80021700588E+01 -0.16799981565E+02 -0.20980591514E+01  0.18726343968E+02  0.00000000000E+00 0. -1.
         11    1    3    3    0    0 -0.31451107129E+01 -0.79024199293E-01 -0.11840868490E+02  0.12251699191E+02  0.51100000000E-03 0. -1.
        -11    1    3    3    0    0 -0.11289845084E+02 -0.68772697761E+01  0.22797897542E+02  0.26353397773E+02  0.51100000000E-03 0.  1.
         12    1    3    3    0    0  0.22437125855E+02  0.23756275540E+02 -0.88589699007E+01  0.33856559067E+02  0.00000000000E+00 0. -1.
</event>
<event>
 7    1  0.2873608E-013  0.7246154E+02  0.7816164E-02  0.1226708E+00
        -11   -1    0    0    0    0  0.00000000000E+00  0.00000000000E+00  0.45593999997E+02  0.45594000000E+02  0.51100000000E-03 0. -1.
         11   -1    0    0    0    0 -0.00000000000E+00 -0.00000000000E+00 -0.45593999997E+02  0.45594000000E+02  0.51100000000E-03 0.  1.
    9900012    2    1    2    0    0  0.17516530675E+02 -0.88346497862E+00 -0.65628354620E+01  0.72461543674E+02  0.69999965321E+02 0.  0.
         12    1    1    2    0    0 -0.17516530675E+02  0.88346497862E+00  0.65628354620E+01  0.18726456326E+02  0.00000000000E+00 0. -1.
         11    1    3    3    0    0 -0.49504697039E+01 -0.14735784143E+02 -0.22071327595E+02  0.26996184669E+02  0.51100000000E-03 0.  1.
        -11    1    3    3    0    0  0.68243189723E+01  0.31217626174E+01 -0.10726361246E+02  0.13090895963E+02  0.51100000000E-03 0. -1.
         12    1    3    3    0    0  0.15642681406E+02  0.10730556547E+02  0.26234853379E+02  0.32374463041E+02  0.00000000000E+00 0. -1.
</event>
<event>
 7    1  0.2873608E-013  0.7246155E+02  0.7816164E-02  0.1226708E+00
        -11   -1    0    0    0    0  0.00000000000E+00  0.00000000000E+00  0.45593999997E+02  0.45594000000E+02  0.51100000000E-03 0. -1.
         11   -1    0    0    0    0 -0.00000000000E+00 -0.00000000000E+00 -0.45593999997E+02  0.45594000000E+02  0.51100000000E-03 0.  1.
    9900012    2    1    2    0    0  0.14544107003E+02  0.56241709008E+01  0.10369074523E+02  0.72461546697E+02  0.69999969261E+02 0.  0.
         12    1    1    2    0    0 -0.14544107003E+02 -0.56241709008E+01 -0.10369074523E+02  0.18726453303E+02  0.00000000000E+00 0. -1.
         11    1    3    3    0    0  0.18615941024E+02 -0.92784161907E+01  0.47496114545E+01  0.21335441791E+02  0.51100000000E-03 0. -1.
        -11    1    3    3    0    0 -0.39566092910E+01  0.14576234747E+01  0.26203106743E+02  0.26540200198E+02  0.51100000000E-03 0.  1.
        -12    1    3    3    0    0 -0.11522473002E+00  0.13444963617E+02 -0.20583643675E+02  0.24585904708E+02  0.00000000000E+00 0.  1.
</event>
<event>
 7    1  0.2873608E-013  0.7246158E+02  0.7816164E-02  0.1226708E+00
        -11   -1    0    0    0    0  0.00000000000E+00  0.00000000000E+00  0.45593999997E+02  0.45594000000E+02  0.51100000000E-03 0. -1.
         11   -1    0    0    0    0 -0.00000000000E+00 -0.00000000000E+00 -0.45593999997E+02  0.45594000000E+02  0.51100000000E-03 0.  1.
    9900012    2    1    2    0    0  0.27246833796E+01 -0.29762936744E+01 -0.18286517331E+02  0.72461576432E+02  0.70000007996E+02 0.  0.
         12    1    1    2    0    0 -0.27246833796E+01  0.29762936744E+01  0.18286517331E+02  0.18726423568E+02  0.00000000000E+00 0. -1.
         11    1    3    3    0    0 -0.22730890181E+02  0.11637634535E+02 -0.36691117834E+01  0.25799036563E+02  0.51100000000E-03 0. -1.
        -11    1    3    3    0    0 -0.56677020747E+01  0.39941136434E+01  0.13111071217E+01  0.70565425493E+01  0.51100000000E-03 0.  1.
        -12    1    3    3    0    0  0.31123275636E+02 -0.18608041853E+02 -0.15928512669E+02  0.39605997320E+02  0.00000000000E+00 0.  1.
</event>
<event>
 7    1  0.2873608E-013  0.7246165E+02  0.7816164E-02  0.1226708E+00
        -11   -1    0    0    0    0  0.00000000000E+00  0.00000000000E+00  0.45593999997E+02  0.45594000000E+02  0.51100000000E-03 0.  1.
         11   -1    0    0    0    0 -0.00000000000E+00 -0.00000000000E+00 -0.45593999997E+02  0.45594000000E+02  0.51100000000E-03 0. -1.
    9900012    2    1    2    0    0 -0.61113671258E+01  0.10594236177E+02 -0.14180605814E+02  0.72461648792E+02  0.70000102257E+02 0.  0.
         12    1    1    2    0    0  0.61113671258E+01 -0.10594236177E+02  0.14180605814E+02  0.18726351208E+02  0.00000000000E+00 0. -1.
         11    1    3    3    0    0 -0.19053999225E+02 -0.52945234505E+00 -0.23447244342E+02  0.30217684785E+02  0.51100000000E-03 0. -1.
        -11    1    3    3    0    0  0.14177985751E+02 -0.10115411355E+02 -0.30192513528E+01  0.17676331797E+02  0.51100000000E-03 0.  1.
         12    1    3    3    0    0 -0.12353536513E+01  0.21239099877E+02  0.12285889881E+02  0.24567632209E+02  0.00000000000E+00 0. -1.
</event>
<event>
 7    1  0.2873608E-013  0.7246106E+02  0.7816164E-02  0.1226709E+00
        -11   -1    0    0    0    0  0.00000000000E+00  0.00000000000E+00  0.45593999997E+02  0.45594000000E+02  0.51100000000E-03 0.  1.
         11   -1    0    0    0    0 -0.00000000000E+00 -0.00000000000E+00 -0.45593999997E+02  0.45594000000E+02  0.51100000000E-03 0. -1.
    9900012    2    1    2    0    0 -0.17354073102E+02 -0.82661345232E+00 -0.69893480517E+01  0.72461064073E+02  0.69999340549E+02 0.  0.
         12    1    1    2    0    0  0.17354073102E+02  0.82661345232E+00  0.69893480517E+01  0.18726935927E+02  0.00000000000E+00 0. -1.
         11    1    3    3    0    0 -0.27190449354E+02  0.15222364651E+02 -0.21236404404E+02  0.37709757277E+02  0.51100000000E-03 0. -1.
        -11    1    3    3    0    0  0.70324464410E+00  0.26146307567E+01 -0.54721442017E+01  0.61053426971E+01  0.51100000000E-03 0.  1.
        -12    1    3    3    0    0  0.91331316081E+01 -0.18663608860E+02  0.19719200554E+02  0.28645964098E+02  0.00000000000E+00 0.  1.
</event>
<event>
 7    1  0.2873608E-013  0.7246158E+02  0.7816164E-02  0.1226708E+00
        -11   -1    0    0    0    0  0.00000000000E+00  0.00000000000E+00  0.45593999997E+02  0.45594000000E+02  0.51100000000E-03 0.  1.
         11   -1    0    0    0    0 -0.00000000000E+00 -0.00000000000E+00 -0.45593999997E+02  0.45594000000E+02  0.51100000000E-03 0. -1.
    9900012    2    1    2    0    0  0.80657277372E+01 -0.81432875321E+00  0.16880746026E+02  0.72461583321E+02  0.70000016969E+02 0.  0.
         12    1    1    2    0    0 -0.80657277372E+01  0.81432875321E+00 -0.16880746026E+02  0.18726416679E+02  0.00000000000E+00 0. -1.
         11    1    3    3    0    0 -0.38624241302E+01  0.22757264155E+02  0.36314835962E+01  0.23366622892E+02  0.51100000000E-03 0. -1.
        -11    1    3    3    0    0 -0.81716972289E+00 -0.73048981399E+01 -0.13453046121E+02  0.15330158296E+02  0.51100000000E-03 0.  1.
        -12    1    3    3    0    0  0.12745321590E+02 -0.16266694769E+02  0.26702308551E+02  0.33764802133E+02  0.00000000000E+00 0.  1.
</event>
<event>
 7    1  0.2873608E-013  0.7246158E+02  0.7816164E-02  0.1226708E+00
        -11   -1    0    0    0    0  0.00000000000E+00  0.00000000000E+00  0.45593999997E+02  0.45594000000E+02  0.51100000000E-03 0. -1.
         11   -1    0    0    0    0 -0.00000000000E+00 -0.00000000000E+00 -0.45593999997E+02  0.45594000000E+02  0.51100000000E-03 0.  1.
    9900012    2    1    2    0    0 -0.32455644494E+00 -0.17028025659E+02 -0.77858639086E+01  0.72461583591E+02  0.70000017321E+02 0.  0.
         12    1    1    2    0    0  0.32455644494E+00  0.17028025659E+02  0.77858639086E+01  0.18726416409E+02  0.00000000000E+00 0. -1.
         11    1    3    3    0    0  0.40321540007E+01  0.10756609390E+02 -0.56311842324E+01  0.12793480667E+02  0.51100000000E-03 0. -1.
        -11    1    3    3    0    0  0.22771554368E+02 -0.66206551485E+01 -0.74469262334E+01  0.24856256225E+02  0.51100000000E-03 0.  1.
         12    1    3    3    0    0 -0.27128264813E+02 -0.21163979900E+02  0.52922465571E+01  0.34811846699E+02  0.00000000000E+00 0. -1.
</event>
<event>
 7    1  0.2873608E-013  0.7246172E+02  0.7816164E-02  0.1226708E+00
        -11   -1    0    0    0    0  0.00000000000E+00  0.00000000000E+00  0.45593999997E+02  0.45594000000E+02  0.51100000000E-03 0. -1.
         11   -1    0    0    0    0 -0.00000000000E+00 -0.00000000000E+00 -0.45593999997E+02  0.45594000000E+02  0.51100000000E-03 0.  1.
    9900012    2    1    2    0    0  0.17424687301E+02 -0.43846368192E+01 -0.52752874692E+01  0.72461723663E+02  0.70000199791E+02 0.  0.
         12    1    1    2    0    0 -0.17424687301E+02  0.43846368192E+01  0.52752874692E+01  0.18726276337E+02  0.00000000000E+00 0. -1.
         11    1    3    3    0    0  0.48934799516E+01 -0.16622600393E+02 -0.21115144205E+02  0.27314946548E+02  0.51100000000E-03 0. -1.
        -11    1    3    3    0    0  0.15044831280E+01  0.38101192842E+01 -0.12736187824E+02  0.13378750278E+02  0.51100000000E-03 0.  1.
         12    1    3    3    0    0  0.11026724221E+02  0.84278442900E+01  0.28576044560E+02  0.31768026837E+02  0.00000000000E+00 0. -1.
</event>
<event>
 7    1  0.2873608E-013  0.7246156E+02  0.7816164E-02  0.1226708E+00
        -11   -1    0    0    0    0  0.00000000000E+00  0.00000000000E+00  0.45593999997E+02  0.45594000000E+02  0.51100000000E-03 0. -1.
         11   -1    0    0    0    0 -0.00000000000E+00 -0.00000000000E+00 -0.45593999997E+02  0.45594000000E+02  0.51100000000E-03 0.  1.
    9900012    2    1    2    0    0 -0.17311850656E+02  0.39659489578E+01 -0.59372169836E+01  0.72461562277E+02  0.69999989556E+02 0.  0.
         12    1    1    2    0    0  0.17311850656E+02 -0.39659489578E+01  0.59372169836E+01  0.18726437723E+02  0.00000000000E+00 0. -1.
         11    1    3    3    0    0  0.31516649967E+01 -0.57677667604E+01  0.10239062848E+02  0.12167108692E+02  0.51100000000E-03 0. -1.
        -11    1    3    3    0    0 -0.28640677407E+02 -0.10645656544E+02  0.35701144435E+01  0.30763031759E+02  0.51100000000E-03 0.  1.
         12    1    3    3    0    0  0.81771617546E+01  0.20379372262E+02 -0.19746394275E+02  0.29531421826E+02  0.00000000000E+00 0. -1.
</event>
<event>
 7    1  0.2873608E-013  0.7246159E+02  0.7816164E-02  0.1226708E+00
        -11   -1    0    0    0    0  0.00000000000E+00  0.00000000000E+00  0.45593999997E+02  0.45594000000E+02  0.51100000000E-03 0. -1.
         11   -1    0    0    0    0 -0.00000000000E+00 -0.00000000000E+00 -0.45593999997E+02  0.45594000000E+02  0.51100000000E-03 0.  1.
    9900012    2    1    2    0    0  0.14623625412E+02  0.73980279169E+01 -0.90607596238E+01  0.72461585441E+02  0.70000019732E+02 0.  0.
         12    1    1    2    0    0 -0.14623625412E+02 -0.73980279169E+01  0.90607596238E+01  0.18726414559E+02  0.00000000000E+00 0. -1.
         11    1    3    3    0    0 -0.61360706495E+01 -0.11048912970E+02  0.16245941170E+02  0.20583013520E+02  0.51100000000E-03 0. -1.
        -11    1    3    3    0    0 -0.76682994233E+01  0.26230910544E+01 -0.16165777496E+02  0.18083577772E+02  0.51100000000E-03 0.  1.
        -12    1    3    3    0    0  0.28427995485E+02  0.15823849832E+02 -0.91409232978E+01  0.33794994149E+02  0.00000000000E+00 0.  1.
</event>
<event>
 7    1  0.2873608E-013  0.7246162E+02  0.7816164E-02  0.1226708E+00
        -11   -1    0    0    0    0  0.00000000000E+00  0.00000000000E+00  0.45593999997E+02  0.45594000000E+02  0.51100000000E-03 0.  1.
         11   -1    0    0    0    0 -0.00000000000E+00 -0.00000000000E+00 -0.45593999997E+02  0.45594000000E+02  0.51100000000E-03 0. -1.
    9900012    2    1    2    0    0  0.20930634427E+01 -0.63799923812E+01  0.17481191480E+02  0.72461620934E+02  0.70000065967E+02 0.  0.
         12    1    1    2    0    0 -0.20930634427E+01  0.63799923812E+01 -0.17481191480E+02  0.18726379066E+02  0.00000000000E+00 0. -1.
         11    1    3    3    0    0  0.20402722202E+02 -0.18399561274E+02  0.16522992426E+02  0.32059697555E+02  0.51100000000E-03 0. -1.
        -11    1    3    3    0    0 -0.61578761239E+01 -0.92397423881E+01  0.93506709885E+01  0.14516450184E+02  0.51100000000E-03 0.  1.
        -12    1    3    3    0    0 -0.12151782635E+02  0.21259311281E+02 -0.83924719345E+01  0.25885473195E+02  0.00000000000E+00 0.  1.
</event>
<event>
 7    1  0.2873608E-013  0.7246157E+02  0.7816164E-02  0.1226708E+00
        -11   -1    0    0    0    0  0.00000000000E+00  0.00000000000E+00  0.45593999997E+02  0.45594000000E+02  0.51100000000E-03 0. -1.
         11   -1    0    0    0    0 -0.00000000000E+00 -0.00000000000E+00 -0.45593999997E+02  0.45594000000E+02  0.51100000000E-03 0.  1.
    9900012    2    1    2    0    0  0.13517850039E+02  0.11359789261E+02  0.62371577472E+01  0.72461568987E+02  0.69999998297E+02 0.  0.
         12    1    1    2    0    0 -0.13517850039E+02 -0.11359789261E+02 -0.62371577472E+01  0.18726431013E+02  0.00000000000E+00 0. -1.
         11    1    3    3    0    0  0.28072993006E+02  0.10047231713E+02 -0.19173853291E+02  0.35449632603E+02  0.51100000000E-03 0. -1.
        -11    1    3    3    0    0  0.25405420399E+01  0.78857120301E+01  0.54264685737E+01  0.99038058099E+01  0.51100000000E-03 0.  1.
        -12    1    3    3    0    0 -0.17095685007E+02 -0.65731544818E+01  0.19984542465E+02  0.27108130574E+02  0.00000000000E+00 0.  1.
</event>
<event>
 7    1  0.2873608E-013  0.7246153E+02  0.7816164E-02  0.1226708E+00
        -11   -1    0    0    0    0  0.00000000000E+00  0.00000000000E+00  0.45593999997E+02  0.45594000000E+02  0.51100000000E-03 0.  1.
         11   -1    0    0    0    0 -0.00000000000E+00 -0.00000000000E+00 -0.45593999997E+02  0.45594000000E+02  0.51100000000E-03 0. -1.
    9900012    2    1    2    0    0  0.16206531234E+02  0.64582395794E+01  0.68058890495E+01  0.72461531063E+02  0.69999948893E+02 0.  0.
         12    1    1    2    0    0 -0.16206531234E+02 -0.64582395794E+01 -0.68058890495E+01  0.18726468937E+02  0.00000000000E+00 0. -1.
         11    1    3    3    0    0  0.75366933701E+01 -0.35107507025E-01 -0.11084024813E+02  0.13403678070E+02  0.51100000000E-03 0. -1.
        -11    1    3    3    0    0  0.14763356013E+02 -0.17914518551E+02  0.23767677468E+02  0.33223322353E+02  0.51100000000E-03 0.  1.
         12    1    3    3    0    0 -0.60935181486E+01  0.24407865637E+02 -0.58777636061E+01  0.25834530640E+02  0.00000000000E+00 0. -1.
</event>
<event>
 7    1  0.2873608E-013  0.7246154E+02  0.7816164E-02  0.1226708E+00
        -11   -1    0    0    0    0  0.00000000000E+00  0.00000000000E+00  0.45593999997E+02  0.45594000000E+02  0.51100000000E-03 0.  1.
         11   -1    0    0    0    0 -0.00000000000E+00 -0.00000000000E+00 -0.45593999997E+02  0.45594000000E+02  0.51100000000E-03 0. -1.
    9900012    2    1    2    0    0 -0.50532877856E+01  0.15641279335E+02  0.89718959070E+01  0.72461541369E+02  0.69999962320E+02 0.  0.
         12    1    1    2    0    0  0.50532877856E+01 -0.15641279335E+02 -0.89718959070E+01  0.18726458631E+02  0.00000000000E+00 0. -1.
         11    1    3    3    0    0 -0.11016857181E+02 -0.60385292296E+01 -0.14656797134E+02  0.19304317649E+02  0.51100000000E-03 0. -1.
        -11    1    3    3    0    0 -0.13543262273E+02  0.56998441399E+01 -0.45123517403E+01  0.15371060298E+02  0.51100000000E-03 0.  1.
        -12    1    3    3    0    0  0.19506831668E+02  0.15979964425E+02  0.28141044782E+02  0.37786163422E+02  0.00000000000E+00 0.  1.
</event>
<event>
 7    1  0.2873608E-013  0.7246152E+02  0.7816164E-02  0.1226708E+00
        -11   -1    0    0    0    0  0.00000000000E+00  0.00000000000E+00  0.45593999997E+02  0.45594000000E+02  0.51100000000E-03 0. -1.
         11   -1    0    0    0    0 -0.00000000000E+00 -0.00000000000E+00 -0.45593999997E+02  0.45594000000E+02  0.51100000000E-03 0.  1.
    9900012    2    1    2    0    0 -0.36165733190E+01 -0.15634797211E+02 -0.96516559585E+01  0.72461522778E+02  0.69999938101E+02 0.  0.
         12    1    1    2    0    0  0.36165733190E+01  0.15634797211E+02  0.96516559585E+01  0.18726477222E+02  0.00000000000E+00 0. -1.
         11    1    3    3    0    0 -0.30680668377E+01 -0.48655639479E+00  0.88983131627E+01  0.94249535091E+01  0.51100000000E-03 0. -1.
        -11    1    3    3    0    0 -0.16482005433E+02  0.14338805602E+02 -0.19818064044E+02  0.29495991455E+02  0.51100000000E-03 0.  1.
         12    1    3    3    0    0  0.15933498952E+02 -0.29487046419E+02  0.12680949234E+01  0.33540577814E+02  0.00000000000E+00 0. -1.
</event>
<event>
 7    1  0.2873608E-013  0.7246171E+02  0.7816164E-02  0.1226708E+00
        -11   -1    0    0    0    0  0.00000000000E+00  0.00000000000E+00  0.45593999997E+02  0.45594000000E+02  0.51100000000E-03 0. -1.
         11   -1    0    0    0    0 -0.00000000000E+00 -0.00000000000E+00 -0.45593999997E+02  0.45594000000E+02  0.51100000000E-03 0.  1.
    9900012    2    1    2    0    0 -0.63772841016E+01 -0.29907619331E+01 -0.17351066417E+02  0.72461710585E+02  0.70000182754E+02 0.  0.
         12    1    1    2    0    0  0.63772841016E+01  0.29907619331E+01  0.17351066417E+02  0.18726289415E+02  0.00000000000E+00 0. -1.
         11    1    3    3    0    0  0.45064826098E+00 -0.16544379887E+01 -0.13136362182E+02  0.13247802103E+02  0.51100000000E-03 0. -1.
        -11    1    3    3    0    0 -0.42669462891E+01  0.25366104231E+02 -0.15588444839E+02  0.30077328459E+02  0.51100000000E-03 0.  1.
         12    1    3    3    0    0 -0.25609860735E+01 -0.26702428175E+02  0.11373740604E+02  0.29136580023E+02  0.00000000000E+00 0. -1.
</event>
<event>
 7    1  0.2873608E-013  0.7246158E+02  0.7816164E-02  0.1226708E+00
        -11   -1    0    0    0    0  0.00000000000E+00  0.00000000000E+00  0.45593999997E+02  0.45594000000E+02  0.51100000000E-03 0.  1.
         11   -1    0    0    0    0 -0.00000000000E+00 -0.00000000000E+00 -0.45593999997E+02  0.45594000000E+02  0.51100000000E-03 0. -1.
    9900012    2    1    2    0    0 -0.15211774005E+01 -0.17080055404E+02  0.75257124439E+01  0.72461584938E+02  0.70000019076E+02 0.  0.
         12    1    1    2    0    0  0.15211774005E+01  0.17080055404E+02 -0.75257124439E+01  0.18726415062E+02  0.00000000000E+00 0. -1.
         11    1    3    3    0    0  0.54955511559E+01 -0.34009108358E+01 -0.71120330148E+01  0.96098018130E+01  0.51100000000E-03 0. -1.
        -11    1    3    3    0    0 -0.11030446307E+02 -0.69362777701E+01  0.36960447520E+02  0.39190016282E+02  0.51100000000E-03 0.  1.
         12    1    3    3    0    0  0.40137177504E+01 -0.67428667978E+01 -0.22322702061E+02  0.23661766843E+02  0.00000000000E+00 0. -1.
</event>
<event>
 7    1  0.2873608E-013  0.7246159E+02  0.7816164E-02  0.1226708E+00
        -11   -1    0    0    0    0  0.00000000000E+00  0.00000000000E+00  0.45593999997E+02  0.45594000000E+02  0.51100000000E-03 0.  1.
         11   -1    0    0    0    0 -0.00000000000E+00 -0.00000000000E+00 -0.45593999997E+02  0.45594000000E+02  0.51100000000E-03 0. -1.
    9900012    2    1    2    0    0  0.13525483698E+02 -0.82844844028E+00  0.12924916913E+02  0.72461587816E+02  0.70000022825E+02 0.  0.
         12    1    1    2    0    0 -0.13525483698E+02  0.82844844028E+00 -0.12924916913E+02  0.18726412184E+02  0.00000000000E+00 0. -1.
         11    1    3    3    0    0 -0.68201102776E+00 -0.14541055076E+02 -0.56925188070E+01  0.15630489193E+02  0.51100000000E-03 0. -1.
        -11    1    3    3    0    0  0.83324367427E+01  0.39511806254E+01 -0.17052252201E+02  0.19386093877E+02  0.51100000000E-03 0.  1.
        -12    1    3    3    0    0  0.58750579833E+01  0.97614260105E+01  0.35669687921E+02  0.37445004746E+02  0.00000000000E+00 0.  1.
</event>
<event>
 7    1  0.2873608E-013  0.7246156E+02  0.7816164E-02  0.1226708E+00
        -11   -1    0    0    0    0  0.00000000000E+00  0.00000000000E+00  0.45593999997E+02  0.45594000000E+02  0.51100000000E-03 0. -1.
         11   -1    0    0    0    0 -0.00000000000E+00 -0.00000000000E+00 -0.45593999997E+02  0.45594000000E+02  0.51100000000E-03 0.  1.
    9900012    2    1    2    0    0  0.27175671320E+01  0.16398137169E+02 -0.86252866346E+01  0.72461557645E+02  0.69999983523E+02 0.  0.
         12    1    1    2    0    0 -0.27175671320E+01 -0.16398137169E+02  0.86252866346E+01  0.18726442355E+02  0.00000000000E+00 0. -1.
         11    1    3    3    0    0 -0.22700172040E+02 -0.97350156441E+01 -0.14578872937E+02  0.28681211212E+02  0.51100000000E-03 0. -1.
        -11    1    3    3    0    0  0.50987223250E+00 -0.73082729475E+00 -0.53640983257E+01  0.54376124666E+01  0.51100000000E-03 0.  1.
        -12    1    3    3    0    0  0.24907866939E+02  0.26863980108E+02  0.11317684628E+02  0.38342733967E+02  0.00000000000E+00 0.  1.
</event>
<event>
 7    1  0.2873608E-013  0.7246155E+02  0.7816164E-02  0.1226708E+00
        -11   -1    0    0    0    0  0.00000000000E+00  0.00000000000E+00  0.45593999997E+02  0.45594000000E+02  0.51100000000E-03 0. -1.
         11   -1    0    0    0    0 -0.00000000000E+00 -0.00000000000E+00 -0.45593999997E+02  0.45594000000E+02  0.51100000000E-03 0.  1.
    9900012    2    1    2    0    0  0.10897394735E+02  0.11143451833E+02 -0.10380286261E+02  0.72461546155E+02  0.69999968554E+02 0.  0.
         12    1    1    2    0    0 -0.10897394735E+02 -0.11143451833E+02  0.10380286261E+02  0.18726453845E+02  0.00000000000E+00 0. -1.
         11    1    3    3    0    0 -0.30767299831E+01 -0.77260116575E+01 -0.17546065189E+02  0.19417052490E+02  0.51100000000E-03 0. -1.
        -11    1    3    3    0    0 -0.13024007325E+02 -0.68960599293E+01 -0.12423809299E+01  0.14789317766E+02  0.51100000000E-03 0.  1.
         12    1    3    3    0    0  0.26998132043E+02  0.25765523420E+02  0.84081598583E+01  0.38255175899E+02  0.00000000000E+00 0. -1.
</event>
<event>
 7    1  0.2873608E-013  0.7246152E+02  0.7816164E-02  0.1226708E+00
        -11   -1    0    0    0    0  0.00000000000E+00  0.00000000000E+00  0.45593999997E+02  0.45594000000E+02  0.51100000000E-03 0. -1.
         11   -1    0    0    0    0 -0.00000000000E+00 -0.00000000000E+00 -0.45593999997E+02  0.45594000000E+02  0.51100000000E-03 0.  1.
    9900012    2    1    2    0    0  0.79333613737E+01 -0.84600848775E+01 -0.14702712920E+02  0.72461520726E+02  0.69999935427E+02 0.  0.
         12    1    1    2    0    0 -0.79333613737E+01  0.84600848775E+01  0.14702712920E+02  0.18726479274E+02  0.00000000000E+00 0. -1.
         11    1    3    3    0    0  0.73965467013E+00  0.14065136151E+02  0.17520782656E+02  0.22480057142E+02  0.51100000000E-03 0. -1.
        -11    1    3    3    0    0 -0.10037035248E+02 -0.14314874459E+01 -0.13696530852E+02  0.17040721538E+02  0.51100000000E-03 0.  1.
         12    1    3    3    0    0  0.17230741952E+02 -0.21093733582E+02 -0.18526964724E+02  0.32940742046E+02  0.00000000000E+00 0. -1.
</event>
<event>
 7    1  0.2873608E-013  0.7246154E+02  0.7816164E-02  0.1226708E+00
        -11   -1    0    0    0    0  0.00000000000E+00  0.00000000000E+00  0.45593999997E+02  0.45594000000E+02  0.51100000000E-03 0.  1.
         11   -1    0    0    0    0 -0.00000000000E+00 -0.00000000000E+00 -0.45593999997E+02  0.45594000000E+02  0.51100000000E-03 0. -1.
    9900012    2    1    2    0    0  0.12398763517E+02  0.13848288460E+02 -0.22750422062E+01  0.72461541524E+02  0.69999962521E+02 0.  0.
         12    1    1    2    0    0 -0.12398763517E+02 -0.13848288460E+02  0.22750422062E+01  0.18726458476E+02  0.00000000000E+00 0. -1.
         11    1    3    3    0    0  0.12575980382E+02  0.17590929127E+02 -0.85343834389E+01  0.23247188455E+02  0.51100000000E-03 0. -1.
        -11    1    3    3    0    0  0.10162775494E+02  0.58311648097E+01 -0.17812843567E+02  0.21320925988E+02  0.51100000000E-03 0.  1.
        -12    1    3    3    0    0 -0.10339992359E+02 -0.95738054766E+01  0.24072184799E+02  0.27893427081E+02  0.00000000000E+00 0.  1.
</event>
<event>
 7    1  0.2873608E-013  0.7246152E+02  0.7816164E-02  0.1226708E+00
        -11   -1    0    0    0    0  0.00000000000E+00  0.00000000000E+00  0.45593999997E+02  0.45594000000E+02  0.51100000000E-03 0. -1.
         11   -1    0    0    0    0 -0.00000000000E+00 -0.00000000000E+00 -0.45593999997E+02  0.45594000000E+02  0.51100000000E-03 0.  1.
    9900012    2    1    2    0    0 -0.18460643712E+02  0.96679871322E+00  0.29918308901E+01  0.72461518268E+02  0.69999932226E+02 0.  0.
         12    1    1    2    0    0  0.18460643712E+02 -0.96679871322E+00 -0.29918308901E+01  0.18726481732E+02  0.00000000000E+00 0. -1.
         11    1    3    3    0    0 -0.84036883809E-01 -0.19185429128E+01  0.72484545460E+00  0.20526252216E+01  0.51100000000E-03 0. -1.
        -11    1    3    3    0    0  0.24805084819E+02 -0.45241217614E+00 -0.76801706037E+01  0.25970789946E+02  0.51100000000E-03 0.  1.
         12    1    3    3    0    0 -0.43181691646E+02  0.33377538021E+01  0.99471560391E+01  0.44438103100E+02  0.00000000000E+00 0. -1.
</event>
<event>
 7    1  0.2873608E-013  0.7246161E+02  0.7816164E-02  0.1226708E+00
        -11   -1    0    0    0    0  0.00000000000E+00  0.00000000000E+00  0.45593999997E+02  0.45594000000E+02  0.51100000000E-03 0.  1.
         11   -1    0    0    0    0 -0.00000000000E+00 -0.00000000000E+00 -0.45593999997E+02  0.45594000000E+02  0.51100000000E-03 0. -1.
    9900012    2    1    2    0    0 -0.12910584874E+02  0.81766304198E+01  0.10822996475E+02  0.72461608476E+02  0.70000049739E+02 0.  0.
         12    1    1    2    0    0  0.12910584874E+02 -0.81766304198E+01 -0.10822996475E+02  0.18726391524E+02  0.00000000000E+00 0. -1.
         11    1    3    3    0    0  0.49497213792E+01 -0.14386927259E+01  0.59913113879E+00  0.51892713239E+01  0.51100000000E-03 0. -1.
        -11    1    3    3    0    0  0.98081850065E+00 -0.19576500209E+02  0.23031142750E+02  0.30242931439E+02  0.51100000000E-03 0.  1.
         12    1    3    3    0    0 -0.18841124753E+02  0.29191823355E+02 -0.12807277414E+02  0.37029405714E+02  0.00000000000E+00 0. -1.
</event>
<event>
 7    1  0.2873608E-013  0.7246165E+02  0.7816164E-02  0.1226708E+00
        -11   -1    0    0    0    0  0.00000000000E+00  0.00000000000E+00  0.45593999997E+02  0.45594000000E+02  0.51100000000E-03 0.  1.
         11   -1    0    0    0    0 -0.00000000000E+00 -0.00000000000E+00 -0.45593999997E+02  0.45594000000E+02  0.51100000000E-03 0. -1.
    9900012    2    1    2    0    0  0.16938301042E+02 -0.26555499973E+01  0.75311423741E+01  0.72461652427E+02  0.70000106993E+02 0.  0.
         12    1    1    2    0    0 -0.16938301042E+02  0.26555499973E+01 -0.75311423741E+01  0.18726347573E+02  0.00000000000E+00 0. -1.
         11    1    3    3    0    0 -0.84382092075E+01  0.72619466969E+01  0.16357431126E+02  0.19786480176E+02  0.51100000000E-03 0. -1.
        -11    1    3    3    0    0  0.55652336446E+01 -0.25321508375E+02 -0.93890855681E+01  0.27573638497E+02  0.51100000000E-03 0.  1.
         12    1    3    3    0    0  0.19811276605E+02  0.15404011680E+02  0.56279681619E+00  0.25101533754E+02  0.00000000000E+00 0. -1.
</event>
<event>
 7    1  0.2873608E-013  0.7246162E+02  0.7816164E-02  0.1226708E+00
        -11   -1    0    0    0    0  0.00000000000E+00  0.00000000000E+00  0.45593999997E+02  0.45594000000E+02  0.51100000000E-03 0. -1.
         11   -1    0    0    0    0 -0.00000000000E+00 -0.00000000000E+00 -0.45593999997E+02  0.45594000000E+02  0.51100000000E-03 0.  1.
    9900012    2    1    2    0    0 -0.18658850972E+02 -0.96726174015E+00  0.12605805008E+01  0.72461618126E+02  0.70000062310E+02 0.  0.
         12    1    1    2    0    0  0.18658850972E+02  0.96726174015E+00 -0.12605805008E+01  0.18726381874E+02  0.00000000000E+00 0. -1.
         11    1    3    3    0    0  0.96947064648E+00 -0.66183028780E+01  0.88950007639E+01  0.11129368588E+02  0.51100000000E-03 0. -1.
        -11    1    3    3    0    0  0.18965945749E+02  0.95259542671E+01 -0.76011837518E+01  0.22543932611E+02  0.51100000000E-03 0.  1.
         12    1    3    3    0    0 -0.38594267368E+02 -0.38749131292E+01 -0.33236511213E-01  0.38788316928E+02  0.00000000000E+00 0. -1.
</event>
<event>
 7    1  0.2873608E-013  0.7246143E+02  0.7816164E-02  0.1226708E+00
        -11   -1    0    0    0    0  0.00000000000E+00  0.00000000000E+00  0.45593999997E+02  0.45594000000E+02  0.51100000000E-03 0.  1.
         11   -1    0    0    0    0 -0.00000000000E+00 -0.00000000000E+00 -0.45593999997E+02  0.45594000000E+02  0.51100000000E-03 0. -1.
    9900012    2    1    2    0    0  0.14744282100E+02  0.26014534552E+01  0.11248245921E+02  0.72461429278E+02  0.69999816299E+02 0.  0.
         12    1    1    2    0    0 -0.14744282100E+02 -0.26014534552E+01 -0.11248245921E+02  0.18726570722E+02  0.00000000000E+00 0. -1.
         11    1    3    3    0    0 -0.91317848244E+01  0.44106980247E-02  0.79566884135E+01  0.12111911670E+02  0.51100000000E-03 0. -1.
        -11    1    3    3    0    0  0.63822078733E+01 -0.25907767591E+02 -0.52595583138E+00  0.26687480748E+02  0.51100000000E-03 0.  1.
         12    1    3    3    0    0  0.17493859051E+02  0.28504810348E+02  0.38175133390E+01  0.33662036860E+02  0.00000000000E+00 0. -1.
</event>
<event>
 7    1  0.2873608E-013  0.7246161E+02  0.7816164E-02  0.1226708E+00
        -11   -1    0    0    0    0  0.00000000000E+00  0.00000000000E+00  0.45593999997E+02  0.45594000000E+02  0.51100000000E-03 0.  1.
         11   -1    0    0    0    0 -0.00000000000E+00 -0.00000000000E+00 -0.45593999997E+02  0.45594000000E+02  0.51100000000E-03 0. -1.
    9900012    2    1    2    0    0 -0.19257782962E+01  0.71037849369E+01  0.17219332668E+02  0.72461606861E+02  0.70000047635E+02 0.  0.
         12    1    1    2    0    0  0.19257782962E+01 -0.71037849369E+01 -0.17219332668E+02  0.18726393139E+02  0.00000000000E+00 0. -1.
         11    1    3    3    0    0  0.12402937139E+02  0.14296271707E+02 -0.14388646534E+02  0.23774973896E+02  0.51100000000E-03 0. -1.
        -11    1    3    3    0    0  0.14509737245E+01 -0.15670861801E+02  0.48167218534E+01  0.16458494585E+02  0.51100000000E-03 0.  1.
        -12    1    3    3    0    0 -0.15779689160E+02  0.84783750308E+01  0.26791257349E+02  0.32228138380E+02  0.00000000000E+00 0.  1.
</event>
<event>
 7    1  0.2873608E-013  0.7246152E+02  0.7816164E-02  0.1226708E+00
        -11   -1    0    0    0    0  0.00000000000E+00  0.00000000000E+00  0.45593999997E+02  0.45594000000E+02  0.51100000000E-03 0.  1.
         11   -1    0    0    0    0 -0.00000000000E+00 -0.00000000000E+00 -0.45593999997E+02  0.45594000000E+02  0.51100000000E-03 0. -1.
    9900012    2    1    2    0    0  0.65441409300E+01  0.13385330128E+01  0.17494670429E+02  0.72461522901E+02  0.69999938261E+02 0.  0.
         12    1    1    2    0    0 -0.65441409300E+01 -0.13385330128E+01 -0.17494670429E+02  0.18726477099E+02  0.00000000000E+00 0. -1.
         11    1    3    3    0    0  0.63799905702E+01 -0.12170768193E+02 -0.57987672284E+01  0.14915011891E+02  0.51100000000E-03 0. -1.
        -11    1    3    3    0    0  0.24467053572E+02  0.76984102018E+00  0.63207839208E+01  0.25282042547E+02  0.51100000000E-03 0.  1.
        -12    1    3    3    0    0 -0.24302903212E+02  0.12739460185E+02  0.16972653737E+02  0.32264468463E+02  0.00000000000E+00 0.  1.
</event>
<event>
 7    1  0.2873608E-013  0.7246145E+02  0.7816164E-02  0.1226708E+00
        -11   -1    0    0    0    0  0.00000000000E+00  0.00000000000E+00  0.45593999997E+02  0.45594000000E+02  0.51100000000E-03 0. -1.
         11   -1    0    0    0    0 -0.00000000000E+00 -0.00000000000E+00 -0.45593999997E+02  0.45594000000E+02  0.51100000000E-03 0.  1.
    9900012    2    1    2    0    0 -0.18293494245E+01 -0.24944775325E+01 -0.18469294702E+02  0.72461447080E+02  0.69999839491E+02 0.  0.
         12    1    1    2    0    0  0.18293494245E+01  0.24944775325E+01  0.18469294702E+02  0.18726552920E+02  0.00000000000E+00 0. -1.
         11    1    3    3    0    0 -0.20264497331E+02 -0.26232228836E+02 -0.77332844225E+01  0.34037969534E+02  0.51100000000E-03 0. -1.
        -11    1    3    3    0    0  0.25372410451E+01 -0.29010712531E+01  0.26076203542E+01  0.46533311412E+01  0.51100000000E-03 0.  1.
        -12    1    3    3    0    0  0.15897906861E+02  0.26638822557E+02 -0.13343630633E+02  0.33770146405E+02  0.00000000000E+00 0.  1.
</event>
<event>
 7    1  0.2873608E-013  0.7246168E+02  0.7816164E-02  0.1226708E+00
        -11   -1    0    0    0    0  0.00000000000E+00  0.00000000000E+00  0.45593999997E+02  0.45594000000E+02  0.51100000000E-03 0.  1.
         11   -1    0    0    0    0 -0.00000000000E+00 -0.00000000000E+00 -0.45593999997E+02  0.45594000000E+02  0.51100000000E-03 0. -1.
    9900012    2    1    2    0    0 -0.14069324051E+02  0.97681545525E+01  0.75704991116E+01  0.72461676831E+02  0.70000138784E+02 0.  0.
         12    1    1    2    0    0  0.14069324051E+02 -0.97681545525E+01 -0.75704991116E+01  0.18726323169E+02  0.00000000000E+00 0. -1.
         11    1    3    3    0    0  0.82666099862E+01 -0.83690094233E+01  0.26059369072E+02  0.28591395141E+02  0.51100000000E-03 0. -1.
        -11    1    3    3    0    0  0.57544549005E+01  0.44244560142E+01  0.53376654428E+00  0.72783562161E+01  0.51100000000E-03 0.  1.
        -12    1    3    3    0    0 -0.28090388938E+02  0.13712707962E+02 -0.19022636505E+02  0.36591925474E+02  0.00000000000E+00 0.  1.
</event>
<event>
 7    1  0.2873608E-013  0.7246142E+02  0.7816164E-02  0.1226708E+00
        -11   -1    0    0    0    0  0.00000000000E+00  0.00000000000E+00  0.45593999997E+02  0.45594000000E+02  0.51100000000E-03 0.  1.
         11   -1    0    0    0    0 -0.00000000000E+00 -0.00000000000E+00 -0.45593999997E+02  0.45594000000E+02  0.51100000000E-03 0. -1.
    9900012    2    1    2    0    0 -0.97486048941E+01  0.15949889416E+02 -0.11183379359E+01  0.72461415968E+02  0.69999798961E+02 0.  0.
         12    1    1    2    0    0  0.97486048941E+01 -0.15949889416E+02  0.11183379359E+01  0.18726584032E+02  0.00000000000E+00 0. -1.
         11    1    3    3    0    0 -0.10207819369E+02 -0.42313799379E+01  0.16438377115E+02  0.19807180387E+02  0.51100000000E-03 0.  1.
        -11    1    3    3    0    0  0.15886809575E+02 -0.38400367863E+01 -0.17717609483E+02  0.24104984693E+02  0.51100000000E-03 0. -1.
         12    1    3    3    0    0 -0.15427595100E+02  0.24021306140E+02  0.16089443203E+00  0.28549250888E+02  0.00000000000E+00 0. -1.
</event>
<event>
 7    1  0.2873608E-013  0.7246152E+02  0.7816164E-02  0.1226708E+00
        -11   -1    0    0    0    0  0.00000000000E+00  0.00000000000E+00  0.45593999997E+02  0.45594000000E+02  0.51100000000E-03 0. -1.
         11   -1    0    0    0    0 -0.00000000000E+00 -0.00000000000E+00 -0.45593999997E+02  0.45594000000E+02  0.51100000000E-03 0.  1.
    9900012    2    1    2    0    0 -0.12107617068E+02 -0.99478192587E+01 -0.10253169942E+02  0.72461521609E+02  0.69999936578E+02 0.  0.
         12    1    1    2    0    0  0.12107617068E+02  0.99478192587E+01  0.10253169942E+02  0.18726478391E+02  0.00000000000E+00 0. -1.
         11    1    3    3    0    0 -0.17038482215E+01 -0.45806158296E+01 -0.42693215697E+01  0.64893949693E+01  0.51100000000E-03 0. -1.
        -11    1    3    3    0    0 -0.32489662956E+02 -0.12134077685E+02 -0.18910172509E+02  0.39502008365E+02  0.51100000000E-03 0.  1.
         12    1    3    3    0    0  0.22085894109E+02  0.67668742563E+01  0.12926324136E+02  0.26470118275E+02  0.00000000000E+00 0. -1.
</event>
<event>
 7    1  0.2983428E-013  0.7246158E+02  0.7816164E-02  0.1226708E+00
        -11   -1    0    0    0    0  0.00000000000E+00  0.00000000000E+00  0.45593999997E+02  0.45594000000E+02  0.51100000000E-03 0. -1.
         11   -1    0    0    0    0 -0.00000000000E+00 -0.00000000000E+00 -0.45593999997E+02  0.45594000000E+02  0.51100000000E-03 0.  1.
    9900012    2    1    2    0    0 -0.15095539844E+02 -0.53040423405E+00 -0.11068979569E+02  0.72461575874E+02  0.70000007269E+02 0.  0.
         12    1    1    2    0    0  0.15095539844E+02  0.53040423405E+00  0.11068979569E+02  0.18726424126E+02  0.00000000000E+00 0. -1.
         11    1    3    3    0    0  0.95555124619E+01  0.80504213452E+01  0.83350362471E+01  0.15019651519E+02  0.51100000000E-03 0. -1.
        -11    1    3    3    0    0  0.76311203778E+01  0.11556431317E+02 -0.12734886599E+02  0.18813889549E+02  0.51100000000E-03 0.  1.
        -12    1    3    3    0    0 -0.32282172684E+02 -0.20137256896E+02 -0.66691292171E+01  0.38628034807E+02  0.00000000000E+00 0.  1.
</event>
<event>
 7    1  0.2873608E-013  0.7246173E+02  0.7816164E-02  0.1226708E+00
        -11   -1    0    0    0    0  0.00000000000E+00  0.00000000000E+00  0.45593999997E+02  0.45594000000E+02  0.51100000000E-03 0. -1.
         11   -1    0    0    0    0 -0.00000000000E+00 -0.00000000000E+00 -0.45593999997E+02  0.45594000000E+02  0.51100000000E-03 0.  1.
    9900012    2    1    2    0    0 -0.11991280356E+02 -0.78896644976E+01  0.12026456332E+02  0.72461728017E+02  0.70000205463E+02 0.  0.
         12    1    1    2    0    0  0.11991280356E+02  0.78896644976E+01 -0.12026456332E+02  0.18726271983E+02  0.00000000000E+00 0. -1.
         11    1    3    3    0    0 -0.25681462739E+01  0.51979490264E+00  0.21184125664E+01  0.33694560522E+01  0.51100000000E-03 0. -1.
        -11    1    3    3    0    0  0.33152637888E+01  0.22464466381E+02 -0.15185338677E+02  0.27317352265E+02  0.51100000000E-03 0.  1.
         12    1    3    3    0    0 -0.12738397871E+02 -0.30873925782E+02  0.25093382443E+02  0.41774919700E+02  0.00000000000E+00 0. -1.
</event>
<event>
 7    1  0.2873608E-013  0.7246158E+02  0.7816164E-02  0.1226708E+00
        -11   -1    0    0    0    0  0.00000000000E+00  0.00000000000E+00  0.45593999997E+02  0.45594000000E+02  0.51100000000E-03 0. -1.
         11   -1    0    0    0    0 -0.00000000000E+00 -0.00000000000E+00 -0.45593999997E+02  0.45594000000E+02  0.51100000000E-03 0.  1.
    9900012    2    1    2    0    0  0.18457093728E+02  0.45074276507E+00 -0.31323224683E+01  0.72461576904E+02  0.70000008611E+02 0.  0.
         12    1    1    2    0    0 -0.18457093728E+02 -0.45074276507E+00  0.31323224683E+01  0.18726423096E+02  0.00000000000E+00 0. -1.
         11    1    3    3    0    0 -0.11101114310E+02  0.10340286615E+02 -0.27786477255E+01  0.15423266504E+02  0.51100000000E-03 0. -1.
        -11    1    3    3    0    0  0.16896094634E+02 -0.18228075288E+02 -0.20225090974E+02  0.32043642860E+02  0.51100000000E-03 0.  1.
         12    1    3    3    0    0  0.12662113404E+02  0.83385314381E+01  0.19871416231E+02  0.24994667540E+02  0.00000000000E+00 0. -1.
</event>
<event>
 7    1  0.2873608E-013  0.7246158E+02  0.7816164E-02  0.1226708E+00
        -11   -1    0    0    0    0  0.00000000000E+00  0.00000000000E+00  0.45593999997E+02  0.45594000000E+02  0.51100000000E-03 0.  1.
         11   -1    0    0    0    0 -0.00000000000E+00 -0.00000000000E+00 -0.45593999997E+02  0.45594000000E+02  0.51100000000E-03 0. -1.
    9900012    2    1    2    0    0 -0.81051165041E+00  0.20300682204E+01  0.18598403907E+02  0.72461581923E+02  0.70000015148E+02 0.  0.
         12    1    1    2    0    0  0.81051165041E+00 -0.20300682204E+01 -0.18598403907E+02  0.18726418077E+02  0.00000000000E+00 0. -1.
         11    1    3    3    0    0 -0.12652148592E+01  0.27712496201E+02  0.25917584396E+01  0.27862168372E+02  0.51100000000E-03 0. -1.
        -11    1    3    3    0    0 -0.12545549154E+02  0.32578007045E+00  0.50236363445E+01  0.13517908810E+02  0.51100000000E-03 0.  1.
        -12    1    3    3    0    0  0.13000252362E+02 -0.26008208051E+02  0.10983009123E+02  0.31081504740E+02  0.00000000000E+00 0.  1.
</event>
<event>
 7    1  0.2873608E-013  0.7246157E+02  0.7816164E-02  0.1226708E+00
        -11   -1    0    0    0    0  0.00000000000E+00  0.00000000000E+00  0.45593999997E+02  0.45594000000E+02  0.51100000000E-03 0.  1.
         11   -1    0    0    0    0 -0.00000000000E+00 -0.00000000000E+00 -0.45593999997E+02  0.45594000000E+02  0.51100000000E-03 0. -1.
    9900012    2    1    2    0    0 -0.14526496789E+02  0.64122932908E+01  0.99268543319E+01  0.72461573455E+02  0.70000004118E+02 0.  0.
         12    1    1    2    0    0  0.14526496789E+02 -0.64122932908E+01 -0.99268543319E+01  0.18726426545E+02  0.00000000000E+00 0. -1.
         11    1    3    3    0    0  0.59071948694E+01 -0.13326957903E+02 -0.50645078360E+01  0.15432174119E+02  0.51100000000E-03 0. -1.
        -11    1    3    3    0    0 -0.47659347908E+01 -0.11076565510E+02  0.18710769668E+02  0.22259769535E+02  0.51100000000E-03 0.  1.
        -12    1    3    3    0    0 -0.15667756868E+02  0.30815816703E+02 -0.37194075003E+01  0.34769629801E+02  0.00000000000E+00 0.  1.
</event>
<event>
 7    1  0.2873608E-013  0.7246160E+02  0.7816164E-02  0.1226708E+00
        -11   -1    0    0    0    0  0.00000000000E+00  0.00000000000E+00  0.45593999997E+02  0.45594000000E+02  0.51100000000E-03 0.  1.
         11   -1    0    0    0    0 -0.00000000000E+00 -0.00000000000E+00 -0.45593999997E+02  0.45594000000E+02  0.51100000000E-03 0. -1.
    9900012    2    1    2    0    0 -0.42591661891E+00 -0.18625388440E+01  0.18628674997E+02  0.72461601839E+02  0.70000041093E+02 0.  0.
         12    1    1    2    0    0  0.42591661891E+00  0.18625388440E+01 -0.18628674997E+02  0.18726398161E+02  0.00000000000E+00 0. -1.
         11    1    3    3    0    0 -0.72394821994E+01  0.31431402634E+01 -0.11803559668E+02  0.14199065262E+02  0.51100000000E-03 0. -1.
        -11    1    3    3    0    0 -0.19715975567E+02 -0.10841091467E+02  0.14596744515E+02  0.26820028102E+02  0.51100000000E-03 0.  1.
         12    1    3    3    0    0  0.26529541147E+02  0.58354123592E+01  0.15835490150E+02  0.31442508475E+02  0.00000000000E+00 0. -1.
</event>
<event>
 7    1  0.2873608E-013  0.7246152E+02  0.7816164E-02  0.1226708E+00
        -11   -1    0    0    0    0  0.00000000000E+00  0.00000000000E+00  0.45593999997E+02  0.45594000000E+02  0.51100000000E-03 0.  1.
         11   -1    0    0    0    0 -0.00000000000E+00 -0.00000000000E+00 -0.45593999997E+02  0.45594000000E+02  0.51100000000E-03 0. -1.
    9900012    2    1    2    0    0 -0.80500662225E+01  0.14540314293E+02  0.86288274700E+01  0.72461522237E+02  0.69999937396E+02 0.  0.
         12    1    1    2    0    0  0.80500662225E+01 -0.14540314293E+02 -0.86288274700E+01  0.18726477763E+02  0.00000000000E+00 0. -1.
         11    1    3    3    0    0 -0.18657675710E+02 -0.11340872583E+02 -0.15507717321E+01  0.21889018870E+02  0.51100000000E-03 0. -1.
        -11    1    3    3    0    0 -0.10060458065E+02  0.32776900901E+01 -0.94560220288E+01  0.14190575100E+02  0.51100000000E-03 0.  1.
        -12    1    3    3    0    0  0.20668067553E+02  0.22603496785E+02  0.19635621231E+02  0.36381928267E+02  0.00000000000E+00 0.  1.
</event>
<event>
 7    1  0.2873608E-013  0.7246168E+02  0.7816164E-02  0.1226708E+00
        -11   -1    0    0    0    0  0.00000000000E+00  0.00000000000E+00  0.45593999997E+02  0.45594000000E+02  0.51100000000E-03 0.  1.
         11   -1    0    0    0    0 -0.00000000000E+00 -0.00000000000E+00 -0.45593999997E+02  0.45594000000E+02  0.51100000000E-03 0. -1.
    9900012    2    1    2    0    0 -0.41394097263E+01 -0.17996329858E+02  0.31100376686E+01  0.72461683343E+02  0.70000147267E+02 0.  0.
         12    1    1    2    0    0  0.41394097263E+01  0.17996329858E+02 -0.31100376686E+01  0.18726316657E+02  0.00000000000E+00 0. -1.
         11    1    3    3    0    0  0.15795702341E+02 -0.11778028033E+01 -0.46088857359E+01  0.16496462042E+02  0.51100000000E-03 0. -1.
        -11    1    3    3    0    0  0.10627108318E+02  0.82845644634E+01  0.93180064211E+01  0.16382755674E+02  0.51100000000E-03 0.  1.
         12    1    3    3    0    0 -0.30562220386E+02 -0.25103091518E+02 -0.15990830166E+01  0.39582465628E+02  0.00000000000E+00 0. -1.
</event>
<event>
 7    1  0.2873608E-013  0.7246156E+02  0.7816164E-02  0.1226708E+00
        -11   -1    0    0    0    0  0.00000000000E+00  0.00000000000E+00  0.45593999997E+02  0.45594000000E+02  0.51100000000E-03 0. -1.
         11   -1    0    0    0    0 -0.00000000000E+00 -0.00000000000E+00 -0.45593999997E+02  0.45594000000E+02  0.51100000000E-03 0.  1.
    9900012    2    1    2    0    0  0.18604680983E+02  0.20065750867E+01  0.72044606923E+00  0.72461560386E+02  0.69999987093E+02 0.  0.
         12    1    1    2    0    0 -0.18604680983E+02 -0.20065750867E+01 -0.72044606923E+00  0.18726439614E+02  0.00000000000E+00 0. -1.
         11    1    3    3    0    0 -0.14489694366E+02  0.20239218936E+02 -0.73093399815E+01  0.25942314414E+02  0.51100000000E-03 0. -1.
        -11    1    3    3    0    0  0.13048310977E+02 -0.17723828397E+02 -0.50462606360E+01  0.22580019023E+02  0.51100000000E-03 0.  1.
        -12    1    3    3    0    0  0.20046064372E+02 -0.50881545209E+00  0.13076046687E+02  0.23939226950E+02  0.00000000000E+00 0.  1.
</event>
<event>
 7    1  0.2873608E-013  0.7246160E+02  0.7816164E-02  0.1226708E+00
        -11   -1    0    0    0    0  0.00000000000E+00  0.00000000000E+00  0.45593999997E+02  0.45594000000E+02  0.51100000000E-03 0. -1.
         11   -1    0    0    0    0 -0.00000000000E+00 -0.00000000000E+00 -0.45593999997E+02  0.45594000000E+02  0.51100000000E-03 0.  1.
    9900012    2    1    2    0    0  0.57183487480E+01 -0.95189055519E+01 -0.15078765139E+02  0.72461595288E+02  0.70000032559E+02 0.  0.
         12    1    1    2    0    0 -0.57183487480E+01  0.95189055519E+01  0.15078765139E+02  0.18726404712E+02  0.00000000000E+00 0. -1.
         11    1    3    3    0    0 -0.65364468141E+00 -0.33844889134E+01  0.11068790490E+02  0.11593107424E+02  0.51100000000E-03 0. -1.
        -11    1    3    3    0    0  0.88960002178E+01 -0.20538687826E+02  0.79618528157E+01  0.23756422668E+02  0.51100000000E-03 0.  1.
        -12    1    3    3    0    0 -0.25240067883E+01  0.14404271187E+02 -0.34109408444E+02  0.37112065196E+02  0.00000000000E+00 0.  1.
</event>
<event>
 7    1  0.2873608E-013  0.7246157E+02  0.7816164E-02  0.1226708E+00
        -11   -1    0    0    0    0  0.00000000000E+00  0.00000000000E+00  0.45593999997E+02  0.45594000000E+02  0.51100000000E-03 0.  1.
         11   -1    0    0    0    0 -0.00000000000E+00 -0.00000000000E+00 -0.45593999997E+02  0.45594000000E+02  0.51100000000E-03 0. -1.
    9900012    2    1    2    0    0  0.13152479487E+02  0.36595197618E+01  0.12817925831E+02  0.72461574176E+02  0.70000005057E+02 0.  0.
         12    1    1    2    0    0 -0.13152479487E+02 -0.36595197618E+01 -0.12817925831E+02  0.18726425824E+02  0.00000000000E+00 0. -1.
         11    1    3    3    0    0 -0.18932909921E+01  0.94461288266E+01  0.70771497692E+01  0.11954076698E+02  0.51100000000E-03 0. -1.
        -11    1    3    3    0    0 -0.17156722476E+01  0.79396577704E+01  0.28173566509E+02  0.29321179152E+02  0.51100000000E-03 0.  1.
         12    1    3    3    0    0  0.16761442726E+02 -0.13726266835E+02 -0.22432790447E+02  0.31186318326E+02  0.00000000000E+00 0. -1.
</event>
<event>
 7    1  0.2873608E-013  0.7246153E+02  0.7816164E-02  0.1226708E+00
        -11   -1    0    0    0    0  0.00000000000E+00  0.00000000000E+00  0.45593999997E+02  0.45594000000E+02  0.51100000000E-03 0.  1.
         11   -1    0    0    0    0 -0.00000000000E+00 -0.00000000000E+00 -0.45593999997E+02  0.45594000000E+02  0.51100000000E-03 0. -1.
    9900012    2    1    2    0    0  0.73798474708E-01  0.12935552040E+02 -0.13540552543E+02  0.72461534344E+02  0.69999953168E+02 0.  0.
         12    1    1    2    0    0 -0.73798474708E-01 -0.12935552040E+02  0.13540552543E+02  0.18726465656E+02  0.00000000000E+00 0. -1.
         11    1    3    3    0    0 -0.18411977527E+02 -0.49888325663E+01 -0.66617346019E+01  0.20205644633E+02  0.51100000000E-03 0. -1.
        -11    1    3    3    0    0 -0.48706896627E+00  0.20059408031E+02  0.13613554078E+02  0.24247596615E+02  0.51100000000E-03 0.  1.
         12    1    3    3    0    0  0.18972844968E+02 -0.21350234249E+01 -0.20492372019E+02  0.28008293096E+02  0.00000000000E+00 0. -1.
</event>
<event>
 7    1  0.2873608E-013  0.7246159E+02  0.7816164E-02  0.1226708E+00
        -11   -1    0    0    0    0  0.00000000000E+00  0.00000000000E+00  0.45593999997E+02  0.45594000000E+02  0.51100000000E-03 0.  1.
         11   -1    0    0    0    0 -0.00000000000E+00 -0.00000000000E+00 -0.45593999997E+02  0.45594000000E+02  0.51100000000E-03 0. -1.
    9900012    2    1    2    0    0  0.11523249173E+02  0.24910196022E+01  0.14549499954E+02  0.72461590866E+02  0.70000026798E+02 0.  0.
         12    1    1    2    0    0 -0.11523249173E+02 -0.24910196022E+01 -0.14549499954E+02  0.18726409134E+02  0.00000000000E+00 0. -1.
         11    1    3    3    0    0  0.60120322623E+01 -0.72156902045E+01  0.64599698797E+01  0.11399207348E+02  0.51100000000E-03 0. -1.
        -11    1    3    3    0    0 -0.53734615357E+01 -0.22802615547E+02 -0.56988263734E+01  0.24110370942E+02  0.51100000000E-03 0.  1.
         12    1    3    3    0    0  0.10884678447E+02  0.32509325354E+02  0.13788356447E+02  0.36952012576E+02  0.00000000000E+00 0. -1.
</event>
<event>
 7    1  0.2873608E-013  0.7246177E+02  0.7816164E-02  0.1226707E+00
        -11   -1    0    0    0    0  0.00000000000E+00  0.00000000000E+00  0.45593999997E+02  0.45594000000E+02  0.51100000000E-03 0. -1.
         11   -1    0    0    0    0 -0.00000000000E+00 -0.00000000000E+00 -0.45593999997E+02  0.45594000000E+02  0.51100000000E-03 0.  1.
    9900012    2    1    2    0    0  0.93192200718E+01  0.48199213419E+01 -0.15511028681E+02  0.72461774667E+02  0.70000266233E+02 0.  0.
         12    1    1    2    0    0 -0.93192200718E+01 -0.48199213419E+01  0.15511028681E+02  0.18726225333E+02  0.00000000000E+00 0. -1.
         11    1    3    3    0    0  0.11625348306E+02 -0.12579418266E+02 -0.58537801648E+01  0.18101304639E+02  0.51100000000E-03 0. -1.
        -11    1    3    3    0    0  0.90099184332E+01  0.53354373831E+01  0.18757371377E+02  0.21482190379E+02  0.51100000000E-03 0.  1.
         12    1    3    3    0    0 -0.11316046667E+02  0.12063902225E+02 -0.28414619893E+02  0.32878279650E+02  0.00000000000E+00 0. -1.
</event>
<event>
 7    1  0.2873608E-013  0.7246153E+02  0.7816164E-02  0.1226708E+00
        -11   -1    0    0    0    0  0.00000000000E+00  0.00000000000E+00  0.45593999997E+02  0.45594000000E+02  0.51100000000E-03 0.  1.
         11   -1    0    0    0    0 -0.00000000000E+00 -0.00000000000E+00 -0.45593999997E+02  0.45594000000E+02  0.51100000000E-03 0. -1.
    9900012    2    1    2    0    0 -0.14874125184E+02  0.44605849867E+01  0.10466339523E+02  0.72461529926E+02  0.69999947413E+02 0.  0.
         12    1    1    2    0    0  0.14874125184E+02 -0.44605849867E+01 -0.10466339523E+02  0.18726470074E+02  0.00000000000E+00 0. -1.
         11    1    3    3    0    0 -0.16388550545E+02  0.77283966993E+01  0.96481330442E+01  0.20528009548E+02  0.51100000000E-03 0. -1.
        -11    1    3    3    0    0 -0.13542740342E+01 -0.73007345500E+01  0.25603739701E+02  0.26658699707E+02  0.51100000000E-03 0.  1.
        -12    1    3    3    0    0  0.28686993952E+01  0.40329228374E+01 -0.24785533222E+02  0.25274820671E+02  0.00000000000E+00 0.  1.
</event>
<event>
 7    1  0.2873608E-013  0.7246156E+02  0.7816164E-02  0.1226708E+00
        -11   -1    0    0    0    0  0.00000000000E+00  0.00000000000E+00  0.45593999997E+02  0.45594000000E+02  0.51100000000E-03 0.  1.
         11   -1    0    0    0    0 -0.00000000000E+00 -0.00000000000E+00 -0.45593999997E+02  0.45594000000E+02  0.51100000000E-03 0. -1.
    9900012    2    1    2    0    0 -0.39346237923E-01  0.74348237847E+01  0.17187239947E+02  0.72461564946E+02  0.69999993033E+02 0.  0.
         12    1    1    2    0    0  0.39346237923E-01 -0.74348237847E+01 -0.17187239947E+02  0.18726435054E+02  0.00000000000E+00 0. -1.
         11    1    3    3    0    0  0.96268719082E+00 -0.78626312831E+01  0.11903100235E+02  0.14297955545E+02  0.51100000000E-03 0. -1.
        -11    1    3    3    0    0 -0.15570622753E+02  0.22924046166E+02  0.21495943271E+02  0.35071808663E+02  0.51100000000E-03 0.  1.
         12    1    3    3    0    0  0.14568589324E+02 -0.76265910981E+01 -0.16211803559E+02  0.23091800738E+02  0.00000000000E+00 0. -1.
</event>
<event>
 7    1  0.2873608E-013  0.7246161E+02  0.7816164E-02  0.1226708E+00
        -11   -1    0    0    0    0  0.00000000000E+00  0.00000000000E+00  0.45593999997E+02  0.45594000000E+02  0.51100000000E-03 0. -1.
         11   -1    0    0    0    0 -0.00000000000E+00 -0.00000000000E+00 -0.45593999997E+02  0.45594000000E+02  0.51100000000E-03 0.  1.
    9900012    2    1    2    0    0  0.47572362801E+01 -0.94175019204E+01 -0.15471172124E+02  0.72461606692E+02  0.70000047414E+02 0.  0.
         12    1    1    2    0    0 -0.47572362801E+01  0.94175019204E+01  0.15471172124E+02  0.18726393308E+02  0.00000000000E+00 0. -1.
         11    1    3    3    0    0  0.15527724700E+02 -0.41110198751E+01  0.16501484548E+02  0.23028454384E+02  0.51100000000E-03 0. -1.
        -11    1    3    3    0    0 -0.13068351775E+02 -0.10849766426E+02 -0.84673461751E-01  0.16985476722E+02  0.51100000000E-03 0.  1.
        -12    1    3    3    0    0  0.22978633552E+01  0.55432843811E+01 -0.31887983210E+02  0.32447675586E+02  0.00000000000E+00 0.  1.
</event>
<event>
 7    1  0.2873608E-013  0.7246155E+02  0.7816164E-02  0.1226708E+00
        -11   -1    0    0    0    0  0.00000000000E+00  0.00000000000E+00  0.45593999997E+02  0.45594000000E+02  0.51100000000E-03 0.  1.
         11   -1    0    0    0    0 -0.00000000000E+00 -0.00000000000E+00 -0.45593999997E+02  0.45594000000E+02  0.51100000000E-03 0. -1.
    9900012    2    1    2    0    0  0.29482844043E+01 -0.13204404483E+02  0.12947245476E+02  0.72461552283E+02  0.69999976537E+02 0.  0.
         12    1    1    2    0    0 -0.29482844043E+01  0.13204404483E+02 -0.12947245476E+02  0.18726447717E+02  0.00000000000E+00 0. -1.
         11    1    3    3    0    0 -0.20402291617E+02 -0.17507963700E+02 -0.90933066362E+01  0.28380812567E+02  0.51100000000E-03 0. -1.
        -11    1    3    3    0    0 -0.56041806137E+01  0.68442068613E+01  0.74141392658E+01  0.11542073870E+02  0.51100000000E-03 0.  1.
        -12    1    3    3    0    0  0.28954756635E+02 -0.25406476442E+01  0.14626412847E+02  0.32538665845E+02  0.00000000000E+00 0.  1.
</event>
<event>
 7    1  0.2873608E-013  0.7246214E+02  0.7816164E-02  0.1226707E+00
        -11   -1    0    0    0    0  0.00000000000E+00  0.00000000000E+00  0.45593999997E+02  0.45594000000E+02  0.51100000000E-03 0.  1.
         11   -1    0    0    0    0 -0.00000000000E+00 -0.00000000000E+00 -0.45593999997E+02  0.45594000000E+02  0.51100000000E-03 0. -1.
    9900012    2    1    2    0    0  0.17989488018E+02  0.18509695724E+01  0.48590377098E+01  0.72462135134E+02  0.70000735805E+02 0.  0.
         12    1    1    2    0    0 -0.17989488018E+02 -0.18509695724E+01 -0.48590377098E+01  0.18725864866E+02  0.00000000000E+00 0. -1.
         11    1    3    3    0    0  0.30905985654E+02 -0.44929766890E+01 -0.18464131158E+02  0.36280723924E+02  0.51100000000E-03 0. -1.
        -11    1    3    3    0    0 -0.58711063865E+01  0.43846142318E+01 -0.36840627322E+01  0.82016492633E+01  0.51100000000E-03 0.  1.
        -12    1    3    3    0    0 -0.70453912493E+01  0.19593320296E+01  0.27007231600E+02  0.27979761946E+02  0.00000000000E+00 0.  1.
</event>
<event>
 7    1  0.2873608E-013  0.7246149E+02  0.7816164E-02  0.1226708E+00
        -11   -1    0    0    0    0  0.00000000000E+00  0.00000000000E+00  0.45593999997E+02  0.45594000000E+02  0.51100000000E-03 0.  1.
         11   -1    0    0    0    0 -0.00000000000E+00 -0.00000000000E+00 -0.45593999997E+02  0.45594000000E+02  0.51100000000E-03 0. -1.
    9900012    2    1    2    0    0  0.51892447826E+01 -0.16700025232E+02 -0.66979804522E+01  0.72461493484E+02  0.69999899940E+02 0.  0.
         12    1    1    2    0    0 -0.51892447826E+01  0.16700025232E+02  0.66979804522E+01  0.18726506516E+02  0.00000000000E+00 0. -1.
         11    1    3    3    0    0 -0.19684483685E+02 -0.14545326346E+02 -0.85298714233E+01  0.25919184462E+02  0.51100000000E-03 0. -1.
        -11    1    3    3    0    0 -0.82851463891E+01  0.33927529207E+01  0.84119049028E+01  0.12284729033E+02  0.51100000000E-03 0.  1.
        -12    1    3    3    0    0  0.33158874856E+02 -0.55474518068E+01 -0.65800139317E+01  0.34257579988E+02  0.00000000000E+00 0.  1.
</event>
<event>
 7    1  0.2873608E-013  0.7246150E+02  0.7816164E-02  0.1226708E+00
        -11   -1    0    0    0    0  0.00000000000E+00  0.00000000000E+00  0.45593999997E+02  0.45594000000E+02  0.51100000000E-03 0. -1.
         11   -1    0    0    0    0 -0.00000000000E+00 -0.00000000000E+00 -0.45593999997E+02  0.45594000000E+02  0.51100000000E-03 0.  1.
    9900012    2    1    2    0    0  0.71989921161E+01 -0.44005190742E+01 -0.16718008320E+02  0.72461498517E+02  0.69999906496E+02 0.  0.
         12    1    1    2    0    0 -0.71989921161E+01  0.44005190742E+01  0.16718008320E+02  0.18726501483E+02  0.00000000000E+00 0. -1.
         11    1    3    3    0    0  0.13699929343E+01 -0.14396514296E+02  0.34659469022E+01  0.14871089156E+02  0.51100000000E-03 0. -1.
        -11    1    3    3    0    0  0.26812677776E+02  0.14992494383E+02 -0.18712005749E+02  0.35969900428E+02  0.51100000000E-03 0.  1.
         12    1    3    3    0    0 -0.20983678595E+02 -0.49964991615E+01 -0.14719494734E+01  0.21620508932E+02  0.00000000000E+00 0. -1.
</event>
<event>
 7    1  0.2873608E-013  0.7246158E+02  0.7816164E-02  0.1226708E+00
        -11   -1    0    0    0    0  0.00000000000E+00  0.00000000000E+00  0.45593999997E+02  0.45594000000E+02  0.51100000000E-03 0. -1.
         11   -1    0    0    0    0 -0.00000000000E+00 -0.00000000000E+00 -0.45593999997E+02  0.45594000000E+02  0.51100000000E-03 0.  1.
    9900012    2    1    2    0    0 -0.14783828978E+01  0.45039704399E+01 -0.18116501302E+02  0.72461575217E+02  0.70000006413E+02 0.  0.
         12    1    1    2    0    0  0.14783828978E+01 -0.45039704399E+01  0.18116501302E+02  0.18726424783E+02  0.00000000000E+00 0. -1.
         11    1    3    3    0    0 -0.56485743230E+01  0.15698697993E+02  0.10323723816E+02  0.19619754949E+02  0.51100000000E-03 0. -1.
        -11    1    3    3    0    0 -0.59713186435E+01  0.15161714041E+02 -0.10377000091E+02  0.19318808197E+02  0.51100000000E-03 0.  1.
        -12    1    3    3    0    0  0.10141510069E+02 -0.26356441594E+02 -0.18063225028E+02  0.33523012072E+02  0.00000000000E+00 0.  1.
</event>
<event>
 7    1  0.2873608E-013  0.7246163E+02  0.7816164E-02  0.1226708E+00
        -11   -1    0    0    0    0  0.00000000000E+00  0.00000000000E+00  0.45593999997E+02  0.45594000000E+02  0.51100000000E-03 0. -1.
         11   -1    0    0    0    0 -0.00000000000E+00 -0.00000000000E+00 -0.45593999997E+02  0.45594000000E+02  0.51100000000E-03 0.  1.
    9900012    2    1    2    0    0 -0.11931823331E+02  0.13743957064E+02  0.44059196081E+01  0.72461631121E+02  0.70000079238E+02 0.  0.
         12    1    1    2    0    0  0.11931823331E+02 -0.13743957064E+02 -0.44059196081E+01  0.18726368879E+02  0.00000000000E+00 0. -1.
         11    1    3    3    0    0 -0.14130238165E+02 -0.18327768584E+02  0.98127390798E+01  0.25136837120E+02  0.51100000000E-03 0. -1.
        -11    1    3    3    0    0  0.50897010602E+00 -0.58718246620E+01 -0.71959160760E+01  0.93015366399E+01  0.51100000000E-03 0.  1.
        -12    1    3    3    0    0  0.16894447279E+01  0.37943550311E+02  0.17890966043E+01  0.38023257361E+02  0.00000000000E+00 0.  1.
</event>
<event>
 7    1  0.2873608E-013  0.7246160E+02  0.7816164E-02  0.1226708E+00
        -11   -1    0    0    0    0  0.00000000000E+00  0.00000000000E+00  0.45593999997E+02  0.45594000000E+02  0.51100000000E-03 0. -1.
         11   -1    0    0    0    0 -0.00000000000E+00 -0.00000000000E+00 -0.45593999997E+02  0.45594000000E+02  0.51100000000E-03 0.  1.
    9900012    2    1    2    0    0  0.42765887940E+01  0.17604235817E+01 -0.18146338702E+02  0.72461603892E+02  0.70000043768E+02 0.  0.
         12    1    1    2    0    0 -0.42765887940E+01 -0.17604235817E+01  0.18146338702E+02  0.18726396108E+02  0.00000000000E+00 0. -1.
         11    1    3    3    0    0  0.22527869955E+02 -0.16391028595E+02 -0.74729514585E+01  0.28844683164E+02  0.51100000000E-03 0. -1.
        -11    1    3    3    0    0 -0.11147492864E+00  0.12443712352E+02 -0.19116660533E+02  0.22810197587E+02  0.51100000000E-03 0.  1.
        -12    1    3    3    0    0 -0.18139806232E+02  0.57077398239E+01  0.84432732891E+01  0.20806723141E+02  0.00000000000E+00 0.  1.
</event>
<event>
 7    1  0.2873608E-013  0.7246158E+02  0.7816164E-02  0.1226708E+00
        -11   -1    0    0    0    0  0.00000000000E+00  0.00000000000E+00  0.45593999997E+02  0.45594000000E+02  0.51100000000E-03 0.  1.
         11   -1    0    0    0    0 -0.00000000000E+00 -0.00000000000E+00 -0.45593999997E+02  0.45594000000E+02  0.51100000000E-03 0. -1.
    9900012    2    1    2    0    0  0.69580820326E+01  0.17265791652E+02 -0.20386721747E+01  0.72461584134E+02  0.70000018029E+02 0.  0.
         12    1    1    2    0    0 -0.69580820326E+01 -0.17265791652E+02  0.20386721747E+01  0.18726415866E+02  0.00000000000E+00 0. -1.
         11    1    3    3    0    0 -0.71717019156E-01 -0.10045859729E+02  0.96987284056E+00  0.10092823917E+02  0.51100000000E-03 0. -1.
        -11    1    3    3    0    0  0.24450719221E+02  0.44291306748E+01  0.14430767618E+02  0.28735029551E+02  0.51100000000E-03 0.  1.
        -12    1    3    3    0    0 -0.17420920169E+02  0.22882520707E+02 -0.17439312633E+02  0.33633730667E+02  0.00000000000E+00 0.  1.
</event>
<event>
 7    1  0.2873608E-013  0.7246158E+02  0.7816164E-02  0.1226708E+00
        -11   -1    0    0    0    0  0.00000000000E+00  0.00000000000E+00  0.45593999997E+02  0.45594000000E+02  0.51100000000E-03 0.  1.
         11   -1    0    0    0    0 -0.00000000000E+00 -0.00000000000E+00 -0.45593999997E+02  0.45594000000E+02  0.51100000000E-03 0. -1.
    9900012    2    1    2    0    0 -0.50497496555E+01  0.17724676450E+01  0.17945397531E+02  0.72461577339E+02  0.70000009176E+02 0.  0.
         12    1    1    2    0    0  0.50497496555E+01 -0.17724676450E+01 -0.17945397531E+02  0.18726422661E+02  0.00000000000E+00 0. -1.
         11    1    3    3    0    0 -0.11634567005E+02 -0.18229003292E+01 -0.13152271173E+02  0.17654131309E+02  0.51100000000E-03 0. -1.
        -11    1    3    3    0    0  0.33660647356E+00 -0.14746666609E+02  0.32180631809E+02  0.35400148925E+02  0.51100000000E-03 0.  1.
         12    1    3    3    0    0  0.62482108759E+01  0.18342034583E+02 -0.10829631047E+01  0.19407297104E+02  0.00000000000E+00 0. -1.
</event>
<event>
 7    1  0.2873608E-013  0.7246156E+02  0.7816164E-02  0.1226708E+00
        -11   -1    0    0    0    0  0.00000000000E+00  0.00000000000E+00  0.45593999997E+02  0.45594000000E+02  0.51100000000E-03 0.  1.
         11   -1    0    0    0    0 -0.00000000000E+00 -0.00000000000E+00 -0.45593999997E+02  0.45594000000E+02  0.51100000000E-03 0. -1.
    9900012    2    1    2    0    0 -0.61767062363E+01 -0.47072616660E+01  0.17040236301E+02  0.72461557051E+02  0.69999982748E+02 0.  0.
         12    1    1    2    0    0  0.61767062363E+01  0.47072616660E+01 -0.17040236301E+02  0.18726442949E+02  0.00000000000E+00 0. -1.
         11    1    3    3    0    0 -0.30162402306E+01 -0.12229442718E+02 -0.11700169104E+02  0.17191594797E+02  0.51100000000E-03 0. -1.
        -11    1    3    3    0    0 -0.19025252309E+02 -0.11434742894E+02  0.10537393324E+02  0.24571329406E+02  0.51100000000E-03 0.  1.
        -12    1    3    3    0    0  0.15864786303E+02  0.18956923946E+02  0.18203012081E+02  0.30698632848E+02  0.00000000000E+00 0.  1.
</event>
<event>
 7    1  0.2873608E-013  0.7246158E+02  0.7816164E-02  0.1226708E+00
        -11   -1    0    0    0    0  0.00000000000E+00  0.00000000000E+00  0.45593999997E+02  0.45594000000E+02  0.51100000000E-03 0.  1.
         11   -1    0    0    0    0 -0.00000000000E+00 -0.00000000000E+00 -0.45593999997E+02  0.45594000000E+02  0.51100000000E-03 0. -1.
    9900012    2    1    2    0    0 -0.18352605274E+02  0.12738074312E+00  0.37208201781E+01  0.72461578853E+02  0.70000011149E+02 0.  0.
         12    1    1    2    0    0  0.18352605274E+02 -0.12738074312E+00 -0.37208201781E+01  0.18726421147E+02  0.00000000000E+00 0. -1.
         11    1    3    3    0    0 -0.18950176057E+01  0.18191263699E+01  0.47321894357E+00  0.26691288664E+01  0.51100000000E-03 0. -1.
        -11    1    3    3    0    0 -0.23494897597E+02  0.28479769020E+02  0.96409816977E+01  0.38158301651E+02  0.51100000000E-03 0.  1.
         12    1    3    3    0    0  0.70373099285E+01 -0.30171514647E+02 -0.63933804631E+01  0.31634148335E+02  0.00000000000E+00 0. -1.
</event>
<event>
 7    1  0.2873608E-013  0.7246175E+02  0.7816164E-02  0.1226708E+00
        -11   -1    0    0    0    0  0.00000000000E+00  0.00000000000E+00  0.45593999997E+02  0.45594000000E+02  0.51100000000E-03 0.  1.
         11   -1    0    0    0    0 -0.00000000000E+00 -0.00000000000E+00 -0.45593999997E+02  0.45594000000E+02  0.51100000000E-03 0. -1.
    9900012    2    1    2    0    0  0.15805207229E+02 -0.98823006206E+01  0.17910510864E+01  0.72461753577E+02  0.70000238759E+02 0.  0.
         12    1    1    2    0    0 -0.15805207229E+02  0.98823006206E+01 -0.17910510864E+01  0.18726246423E+02  0.00000000000E+00 0. -1.
         11    1    3    3    0    0 -0.23046284856E+01 -0.66330937838E+01 -0.11996077191E+02  0.13900183950E+02  0.51100000000E-03 0. -1.
        -11    1    3    3    0    0 -0.93468899432E+01 -0.12625024774E+02  0.23236634020E+02  0.28048115142E+02  0.51100000000E-03 0.  1.
        -12    1    3    3    0    0  0.27456725658E+02  0.93758179372E+01 -0.94495057426E+01  0.30513454485E+02  0.00000000000E+00 0.  1.
</event>
<event>
 7    1  0.2873608E-013  0.7246150E+02  0.7816164E-02  0.1226708E+00
        -11   -1    0    0    0    0  0.00000000000E+00  0.00000000000E+00  0.45593999997E+02  0.45594000000E+02  0.51100000000E-03 0.  1.
         11   -1    0    0    0    0 -0.00000000000E+00 -0.00000000000E+00 -0.45593999997E+02  0.45594000000E+02  0.51100000000E-03 0. -1.
    9900012    2    1    2    0    0 -0.34821274591E+01 -0.50378045053E+01  0.17696806536E+02  0.72461504134E+02  0.69999913813E+02 0.  0.
         12    1    1    2    0    0  0.34821274591E+01  0.50378045053E+01 -0.17696806536E+02  0.18726495866E+02  0.00000000000E+00 0. -1.
         11    1    3    3    0    0 -0.16422803465E+02  0.83335976903E+01  0.21726905312E+02  0.28481849287E+02  0.51100000000E-03 0. -1.
        -11    1    3    3    0    0 -0.72430610269E+01 -0.16485705358E+02  0.86127081657E+01  0.19960439785E+02  0.51100000000E-03 0.  1.
        -12    1    3    3    0    0  0.20183737033E+02  0.31143031623E+01 -0.12642806942E+02  0.24019215062E+02  0.00000000000E+00 0.  1.
</event>
<event>
 7    1  0.2873608E-013  0.7246161E+02  0.7816164E-02  0.1226708E+00
        -11   -1    0    0    0    0  0.00000000000E+00  0.00000000000E+00  0.45593999997E+02  0.45594000000E+02  0.51100000000E-03 0. -1.
         11   -1    0    0    0    0 -0.00000000000E+00 -0.00000000000E+00 -0.45593999997E+02  0.45594000000E+02  0.51100000000E-03 0.  1.
    9900012    2    1    2    0    0  0.40649578888E+01  0.13140849846E+02 -0.12707153076E+02  0.72461613360E+02  0.70000056101E+02 0.  0.
         12    1    1    2    0    0 -0.40649578888E+01 -0.13140849846E+02  0.12707153076E+02  0.18726386640E+02  0.00000000000E+00 0. -1.
         11    1    3    3    0    0  0.12177308081E+02  0.23375907124E+01  0.22926566164E+01  0.12609815108E+02  0.51100000000E-03 0. -1.
        -11    1    3    3    0    0 -0.10697873437E+02  0.24042820946E+02  0.12566440349E+02  0.29161912805E+02  0.51100000000E-03 0.  1.
         12    1    3    3    0    0  0.25855232452E+01 -0.13239561813E+02 -0.27566250041E+02  0.30689885448E+02  0.00000000000E+00 0. -1.
</event>
<event>
 7    1  0.2873608E-013  0.7246157E+02  0.7816164E-02  0.1226708E+00
        -11   -1    0    0    0    0  0.00000000000E+00  0.00000000000E+00  0.45593999997E+02  0.45594000000E+02  0.51100000000E-03 0.  1.
         11   -1    0    0    0    0 -0.00000000000E+00 -0.00000000000E+00 -0.45593999997E+02  0.45594000000E+02  0.51100000000E-03 0. -1.
    9900012    2    1    2    0    0 -0.78608703851E+00 -0.32949302120E+01  0.18417508851E+02  0.72461571344E+02  0.70000001367E+02 0.  0.
         12    1    1    2    0    0  0.78608703851E+00  0.32949302120E+01 -0.18417508851E+02  0.18726428656E+02  0.00000000000E+00 0. -1.
         11    1    3    3    0    0  0.11629484845E+02 -0.18022491594E+01  0.32369846883E+01  0.12205371356E+02  0.51100000000E-03 0. -1.
        -11    1    3    3    0    0  0.19995569614E+02 -0.77474266440E+01  0.16748977905E+02  0.27209808616E+02  0.51100000000E-03 0.  1.
         12    1    3    3    0    0 -0.32411141497E+02  0.62547455913E+01 -0.15684537425E+01  0.33046391372E+02  0.00000000000E+00 0. -1.
</event>
<event>
 7    1  0.2873608E-013  0.7246164E+02  0.7816164E-02  0.1226708E+00
        -11   -1    0    0    0    0  0.00000000000E+00  0.00000000000E+00  0.45593999997E+02  0.45594000000E+02  0.51100000000E-03 0.  1.
         11   -1    0    0    0    0 -0.00000000000E+00 -0.00000000000E+00 -0.45593999997E+02  0.45594000000E+02  0.51100000000E-03 0. -1.
    9900012    2    1    2    0    0  0.10855359712E+02 -0.13631757497E+02  0.68565858994E+01  0.72461643784E+02  0.70000095734E+02 0.  0.
         12    1    1    2    0    0 -0.10855359712E+02  0.13631757497E+02 -0.68565858994E+01  0.18726356216E+02  0.00000000000E+00 0. -1.
         11    1    3    3    0    0  0.10505099220E+02 -0.24762482267E+02 -0.93984832223E+01  0.28493317195E+02  0.51100000000E-03 0. -1.
        -11    1    3    3    0    0 -0.19828780867E+01 -0.84560309118E+01 -0.86097558599E+01  0.12229642698E+02  0.51100000000E-03 0.  1.
        -12    1    3    3    0    0  0.23331385786E+01  0.19586755681E+02  0.24864824982E+02  0.31738683891E+02  0.00000000000E+00 0.  1.
</event>
<event>
 7    1  0.2873608E-013  0.7246157E+02  0.7816164E-02  0.1226708E+00
        -11   -1    0    0    0    0  0.00000000000E+00  0.00000000000E+00  0.45593999997E+02  0.45594000000E+02  0.51100000000E-03 0.  1.
         11   -1    0    0    0    0 -0.00000000000E+00 -0.00000000000E+00 -0.45593999997E+02  0.45594000000E+02  0.51100000000E-03 0. -1.
    9900012    2    1    2    0    0  0.64911634731E+01  0.15969937566E+02  0.73147050952E+01  0.72461574294E+02  0.70000005210E+02 0.  0.
         12    1    1    2    0    0 -0.64911634731E+01 -0.15969937566E+02 -0.73147050952E+01  0.18726425706E+02  0.00000000000E+00 0. -1.
         11    1    3    3    0    0  0.14105286051E+02  0.22709676246E+02 -0.14305753650E+01  0.26771907588E+02  0.51100000000E-03 0. -1.
        -11    1    3    3    0    0 -0.14935814816E+02  0.82650558597E+01  0.19433268741E+02  0.25865839379E+02  0.51100000000E-03 0.  1.
         12    1    3    3    0    0  0.73216922378E+01 -0.15004794539E+02 -0.10687988281E+02  0.19823827326E+02  0.00000000000E+00 0. -1.
</event>
<event>
 7    1  0.2873608E-013  0.7246158E+02  0.7816164E-02  0.1226708E+00
        -11   -1    0    0    0    0  0.00000000000E+00  0.00000000000E+00  0.45593999997E+02  0.45594000000E+02  0.51100000000E-03 0.  1.
         11   -1    0    0    0    0 -0.00000000000E+00 -0.00000000000E+00 -0.45593999997E+02  0.45594000000E+02  0.51100000000E-03 0. -1.
    9900012    2    1    2    0    0  0.65591688274E+01  0.52920409802E+01  0.16722749875E+02  0.72461581313E+02  0.70000014354E+02 0.  0.
         12    1    1    2    0    0 -0.65591688274E+01 -0.52920409802E+01 -0.16722749875E+02  0.18726418687E+02  0.00000000000E+00 0. -1.
         11    1    3    3    0    0 -0.27777330685E+02 -0.37176970976E+01  0.15360898116E+02  0.31958700895E+02  0.51100000000E-03 0. -1.
        -11    1    3    3    0    0  0.76779478053E+01 -0.59803368051E+01 -0.12283821793E+01  0.98093951823E+01  0.51100000000E-03 0.  1.
        -12    1    3    3    0    0  0.26658551707E+02  0.14990074883E+02  0.25902339384E+01  0.30693485236E+02  0.00000000000E+00 0.  1.
</event>
<event>
 7    1  0.2873608E-013  0.7246108E+02  0.7816164E-02  0.1226709E+00
        -11   -1    0    0    0    0  0.00000000000E+00  0.00000000000E+00  0.45593999997E+02  0.45594000000E+02  0.51100000000E-03 0.  1.
         11   -1    0    0    0    0 -0.00000000000E+00 -0.00000000000E+00 -0.45593999997E+02  0.45594000000E+02  0.51100000000E-03 0. -1.
    9900012    2    1    2    0    0  0.11235308513E+02  0.85643615317E+01  0.12292976202E+02  0.72461075273E+02  0.69999355140E+02 0.  0.
         12    1    1    2    0    0 -0.11235308513E+02 -0.85643615317E+01 -0.12292976202E+02  0.18726924727E+02  0.00000000000E+00 0. -1.
         11    1    3    3    0    0 -0.16921302982E+01  0.88934551843E+01 -0.15652260832E+02  0.18081762068E+02  0.51100000000E-03 0. -1.
        -11    1    3    3    0    0 -0.11512010749E+02  0.13592526149E+02  0.15540935360E+02  0.23639031933E+02  0.51100000000E-03 0.  1.
        -12    1    3    3    0    0  0.24439449560E+02 -0.13921619801E+02  0.12404301674E+02  0.30740281273E+02  0.00000000000E+00 0.  1.
</event>
<event>
 7    1  0.2873608E-013  0.7246144E+02  0.7816164E-02  0.1226708E+00
        -11   -1    0    0    0    0  0.00000000000E+00  0.00000000000E+00  0.45593999997E+02  0.45594000000E+02  0.51100000000E-03 0.  1.
         11   -1    0    0    0    0 -0.00000000000E+00 -0.00000000000E+00 -0.45593999997E+02  0.45594000000E+02  0.51100000000E-03 0. -1.
    9900012    2    1    2    0    0 -0.11081407604E+02  0.88347378348E+01  0.12240666213E+02  0.72461438745E+02  0.69999828632E+02 0.  0.
         12    1    1    2    0    0  0.11081407604E+02 -0.88347378348E+01 -0.12240666213E+02  0.18726561255E+02  0.00000000000E+00 0. -1.
         11    1    3    3    0    0 -0.11679113419E+01  0.24299311268E+01 -0.17749378921E+01  0.32278455609E+01  0.51100000000E-03 0. -1.
        -11    1    3    3    0    0 -0.22568328255E+02  0.73317818627E+01  0.36430054988E+02  0.43476814191E+02  0.51100000000E-03 0.  1.
         12    1    3    3    0    0  0.12654831992E+02 -0.92697515467E+00 -0.22414450883E+02  0.25756778993E+02  0.00000000000E+00 0. -1.
</event>
<event>
 7    1  0.2873608E-013  0.7246159E+02  0.7816164E-02  0.1226708E+00
        -11   -1    0    0    0    0  0.00000000000E+00  0.00000000000E+00  0.45593999997E+02  0.45594000000E+02  0.51100000000E-03 0. -1.
         11   -1    0    0    0    0 -0.00000000000E+00 -0.00000000000E+00 -0.45593999997E+02  0.45594000000E+02  0.51100000000E-03 0.  1.
    9900012    2    1    2    0    0 -0.15317141239E+02  0.10176303288E+02 -0.35364399192E+01  0.72461591597E+02  0.70000027751E+02 0.  0.
         12    1    1    2    0    0  0.15317141239E+02 -0.10176303288E+02  0.35364399192E+01  0.18726408403E+02  0.00000000000E+00 0. -1.
         11    1    3    3    0    0  0.11886732833E+02  0.56529436847E+01 -0.14575700080E+02  0.19639277553E+02  0.51100000000E-03 0. -1.
        -11    1    3    3    0    0  0.62211501186E+01 -0.74747751926E+01  0.14153801219E+02  0.17172800068E+02  0.51100000000E-03 0.  1.
         12    1    3    3    0    0 -0.33425024191E+02  0.11998134796E+02 -0.31145410582E+01  0.35649513976E+02  0.00000000000E+00 0. -1.
</event>
<event>
 7    1  0.2873608E-013  0.7246155E+02  0.7816164E-02  0.1226708E+00
        -11   -1    0    0    0    0  0.00000000000E+00  0.00000000000E+00  0.45593999997E+02  0.45594000000E+02  0.51100000000E-03 0. -1.
         11   -1    0    0    0    0 -0.00000000000E+00 -0.00000000000E+00 -0.45593999997E+02  0.45594000000E+02  0.51100000000E-03 0.  1.
    9900012    2    1    2    0    0 -0.86068460733E+01  0.58608670147E+01 -0.15564459989E+02  0.72461548755E+02  0.69999971941E+02 0.  0.
         12    1    1    2    0    0  0.86068460733E+01 -0.58608670147E+01  0.15564459989E+02  0.18726451245E+02  0.00000000000E+00 0. -1.
         11    1    3    3    0    0  0.89043034080E+01 -0.10502705277E+02 -0.11111026947E+02  0.17693172621E+02  0.51100000000E-03 0. -1.
        -11    1    3    3    0    0 -0.28128420799E+02 -0.65852760257E+01 -0.57239306525E+01  0.29450590815E+02  0.51100000000E-03 0.  1.
        -12    1    3    3    0    0  0.10617271317E+02  0.22948848317E+02  0.12704976105E+01  0.25317785320E+02  0.00000000000E+00 0.  1.
</event>
<event>
 7    1  0.2873608E-013  0.7246157E+02  0.7816164E-02  0.1226708E+00
        -11   -1    0    0    0    0  0.00000000000E+00  0.00000000000E+00  0.45593999997E+02  0.45594000000E+02  0.51100000000E-03 0. -1.
         11   -1    0    0    0    0 -0.00000000000E+00 -0.00000000000E+00 -0.45593999997E+02  0.45594000000E+02  0.51100000000E-03 0.  1.
    9900012    2    1    2    0    0  0.16718301592E+02  0.51733982603E+00 -0.84208028990E+01  0.72461570279E+02  0.69999999980E+02 0.  0.
         12    1    1    2    0    0 -0.16718301592E+02 -0.51733982603E+00  0.84208028990E+01  0.18726429721E+02  0.00000000000E+00 0. -1.
         11    1    3    3    0    0  0.16971095503E+02 -0.12993791423E+02 -0.46808032132E+01  0.21880736210E+02  0.51100000000E-03 0.  1.
        -11    1    3    3    0    0  0.48157484893E+01  0.30710084259E+02  0.34218799609E+01  0.31273150967E+02  0.51100000000E-03 0. -1.
         12    1    3    3    0    0 -0.50685424002E+01 -0.17198953009E+02 -0.71618796467E+01  0.19307683102E+02  0.00000000000E+00 0. -1.
</event>
<event>
 7    1  0.2873608E-013  0.7246148E+02  0.7816164E-02  0.1226708E+00
        -11   -1    0    0    0    0  0.00000000000E+00  0.00000000000E+00  0.45593999997E+02  0.45594000000E+02  0.51100000000E-03 0. -1.
         11   -1    0    0    0    0 -0.00000000000E+00 -0.00000000000E+00 -0.45593999997E+02  0.45594000000E+02  0.51100000000E-03 0.  1.
    9900012    2    1    2    0    0 -0.17195093234E+01  0.18529180681E+02 -0.20965398697E+01  0.72461475270E+02  0.69999876213E+02 0.  0.
         12    1    1    2    0    0  0.17195093234E+01 -0.18529180681E+02  0.20965398697E+01  0.18726524730E+02  0.00000000000E+00 0. -1.
         11    1    3    3    0    0  0.20763001907E+01  0.21161875391E+00  0.29865285790E+00  0.21083165724E+01  0.51100000000E-03 0. -1.
        -11    1    3    3    0    0 -0.14564439196E+02  0.36182787649E+02 -0.19286618616E+02  0.43511960069E+02  0.51100000000E-03 0.  1.
         12    1    3    3    0    0  0.10768629681E+02 -0.17865225722E+02  0.16891425888E+02  0.26841198629E+02  0.00000000000E+00 0. -1.
</event>
<event>
 7    1  0.2873608E-013  0.7246192E+02  0.7816164E-02  0.1226707E+00
        -11   -1    0    0    0    0  0.00000000000E+00  0.00000000000E+00  0.45593999997E+02  0.45594000000E+02  0.51100000000E-03 0.  1.
         11   -1    0    0    0    0 -0.00000000000E+00 -0.00000000000E+00 -0.45593999997E+02  0.45594000000E+02  0.51100000000E-03 0. -1.
    9900012    2    1    2    0    0 -0.15836444218E+02  0.54576194398E+01  0.83718167324E+01  0.72461924842E+02  0.70000461863E+02 0.  0.
         12    1    1    2    0    0  0.15836444218E+02 -0.54576194398E+01 -0.83718167324E+01  0.18726075158E+02  0.00000000000E+00 0. -1.
         11    1    3    3    0    0  0.25981085077E+01 -0.10808703547E+02 -0.90420701820E+01  0.14329594329E+02  0.51100000000E-03 0. -1.
        -11    1    3    3    0    0 -0.34580174353E+02  0.88803865481E+01  0.40932766544E+01  0.35936118844E+02  0.51100000000E-03 0.  1.
         12    1    3    3    0    0  0.16145621627E+02  0.73859364387E+01  0.13320610260E+02  0.22196211670E+02  0.00000000000E+00 0. -1.
</event>
<event>
 7    1  0.2873608E-013  0.7246152E+02  0.7816164E-02  0.1226708E+00
        -11   -1    0    0    0    0  0.00000000000E+00  0.00000000000E+00  0.45593999997E+02  0.45594000000E+02  0.51100000000E-03 0.  1.
         11   -1    0    0    0    0 -0.00000000000E+00 -0.00000000000E+00 -0.45593999997E+02  0.45594000000E+02  0.51100000000E-03 0. -1.
    9900012    2    1    2    0    0  0.18819516145E+01 -0.65158579944E+01  0.17455165715E+02  0.72461522557E+02  0.69999937813E+02 0.  0.
         12    1    1    2    0    0 -0.18819516145E+01  0.65158579944E+01 -0.17455165715E+02  0.18726477443E+02  0.00000000000E+00 0. -1.
         11    1    3    3    0    0 -0.47988240018E+01  0.21835405708E+01  0.16674917111E+02  0.17488551174E+02  0.51100000000E-03 0.  1.
        -11    1    3    3    0    0  0.29708122429E+02 -0.11134126542E+02 -0.10646107730E+01  0.31743892459E+02  0.51100000000E-03 0. -1.
         12    1    3    3    0    0 -0.23027346812E+02  0.24347279768E+01  0.18448593771E+01  0.23229078924E+02  0.00000000000E+00 0. -1.
</event>
<event>
 7    1  0.2873608E-013  0.7246091E+02  0.7816164E-02  0.1226710E+00
        -11   -1    0    0    0    0  0.00000000000E+00  0.00000000000E+00  0.45593999997E+02  0.45594000000E+02  0.51100000000E-03 0. -1.
         11   -1    0    0    0    0 -0.00000000000E+00 -0.00000000000E+00 -0.45593999997E+02  0.45594000000E+02  0.51100000000E-03 0.  1.
    9900012    2    1    2    0    0 -0.10285039054E+02  0.18047394529E+01 -0.15545577284E+02  0.72460905032E+02  0.69999133367E+02 0.  0.
         12    1    1    2    0    0  0.10285039054E+02 -0.18047394529E+01  0.15545577284E+02  0.18727094968E+02  0.00000000000E+00 0. -1.
         11    1    3    3    0    0 -0.48382755998E+01  0.14832245722E+01 -0.13726326860E+01  0.52433755028E+01  0.51100000000E-03 0. -1.
        -11    1    3    3    0    0  0.69729777869E+01 -0.26278808546E+02 -0.23993729922E+02  0.36261512291E+02  0.51100000000E-03 0.  1.
         12    1    3    3    0    0 -0.12419741241E+02  0.26600323427E+02  0.98207853232E+01  0.30956017238E+02  0.00000000000E+00 0. -1.
</event>
<event>
 7    1  0.2873608E-013  0.7246157E+02  0.7816164E-02  0.1226708E+00
        -11   -1    0    0    0    0  0.00000000000E+00  0.00000000000E+00  0.45593999997E+02  0.45594000000E+02  0.51100000000E-03 0.  1.
         11   -1    0    0    0    0 -0.00000000000E+00 -0.00000000000E+00 -0.45593999997E+02  0.45594000000E+02  0.51100000000E-03 0. -1.
    9900012    2    1    2    0    0 -0.10695144569E+02  0.54374870569E+01  0.14378000000E+02  0.72461567696E+02  0.69999996615E+02 0.  0.
         12    1    1    2    0    0  0.10695144569E+02 -0.54374870569E+01 -0.14378000000E+02  0.18726432304E+02  0.00000000000E+00 0. -1.
         11    1    3    3    0    0 -0.20660543474E+02 -0.48361999558E+01 -0.17379136314E+02  0.27427746279E+02  0.51100000000E-03 0. -1.
        -11    1    3    3    0    0 -0.91723489973E+01  0.47869438335E+01  0.18239510698E+02  0.20969658274E+02  0.51100000000E-03 0.  1.
        -12    1    3    3    0    0  0.19137747902E+02  0.54867431792E+01  0.13517625616E+02  0.24064163143E+02  0.00000000000E+00 0.  1.
</event>
<event>
 7    1  0.2873608E-013  0.7246163E+02  0.7816164E-02  0.1226708E+00
        -11   -1    0    0    0    0  0.00000000000E+00  0.00000000000E+00  0.45593999997E+02  0.45594000000E+02  0.51100000000E-03 0. -1.
         11   -1    0    0    0    0 -0.00000000000E+00 -0.00000000000E+00 -0.45593999997E+02  0.45594000000E+02  0.51100000000E-03 0.  1.
    9900012    2    1    2    0    0  0.14028315014E+02  0.12403675384E+02 -0.17919569353E+00  0.72461630991E+02  0.70000079068E+02 0.  0.
         12    1    1    2    0    0 -0.14028315014E+02 -0.12403675384E+02  0.17919569353E+00  0.18726369009E+02  0.00000000000E+00 0. -1.
         11    1    3    3    0    0 -0.29901006096E+00  0.10149702440E+02  0.21481803966E+01  0.10378850896E+02  0.51100000000E-03 0. -1.
        -11    1    3    3    0    0 -0.23361220726E+01  0.92634988131E+01 -0.28621465444E+02  0.30173799247E+02  0.51100000000E-03 0.  1.
        -12    1    3    3    0    0  0.16663447148E+02 -0.70095258689E+01  0.26294089354E+02  0.31908980847E+02  0.00000000000E+00 0.  1.
</event>
<event>
 7    1  0.2873608E-013  0.7246146E+02  0.7816164E-02  0.1226708E+00
        -11   -1    0    0    0    0  0.00000000000E+00  0.00000000000E+00  0.45593999997E+02  0.45594000000E+02  0.51100000000E-03 0.  1.
         11   -1    0    0    0    0 -0.00000000000E+00 -0.00000000000E+00 -0.45593999997E+02  0.45594000000E+02  0.51100000000E-03 0. -1.
    9900012    2    1    2    0    0 -0.64545074868E+01 -0.10596697360E+02  0.14026140365E+02  0.72461460667E+02  0.69999857190E+02 0.  0.
         12    1    1    2    0    0  0.64545074868E+01  0.10596697360E+02 -0.14026140365E+02  0.18726539333E+02  0.00000000000E+00 0. -1.
         11    1    3    3    0    0  0.14924660603E+02 -0.80515878350E+00  0.58575729289E+00  0.14957836964E+02  0.51100000000E-03 0. -1.
        -11    1    3    3    0    0 -0.54213100630E+01 -0.55950826371E+01  0.31845703383E+02  0.32784819303E+02  0.51100000000E-03 0.  1.
         12    1    3    3    0    0 -0.15957858026E+02 -0.41964559394E+01 -0.18405320311E+02  0.24718804400E+02  0.00000000000E+00 0. -1.
</event>
<event>
 7    1  0.2873608E-013  0.7246157E+02  0.7816164E-02  0.1226708E+00
        -11   -1    0    0    0    0  0.00000000000E+00  0.00000000000E+00  0.45593999997E+02  0.45594000000E+02  0.51100000000E-03 0. -1.
         11   -1    0    0    0    0 -0.00000000000E+00 -0.00000000000E+00 -0.45593999997E+02  0.45594000000E+02  0.51100000000E-03 0.  1.
    9900012    2    1    2    0    0  0.47972559827E+00 -0.65544736029E+01 -0.17535335000E+02  0.72461568561E+02  0.69999997743E+02 0.  0.
         12    1    1    2    0    0 -0.47972559827E+00  0.65544736029E+01  0.17535335000E+02  0.18726431439E+02  0.00000000000E+00 0. -1.
         11    1    3    3    0    0 -0.52652098435E+01 -0.93750119846E+01  0.65780928108E+01  0.12604943066E+02  0.51100000000E-03 0. -1.
        -11    1    3    3    0    0 -0.23602894160E+02 -0.45953628197E+01 -0.68191914836E+01  0.24994306251E+02  0.51100000000E-03 0.  1.
         12    1    3    3    0    0  0.29347829602E+02  0.74159012014E+01 -0.17294236327E+02  0.34862319245E+02  0.00000000000E+00 0. -1.
</event>
<event>
 7    1  0.2873608E-013  0.7246159E+02  0.7816164E-02  0.1226708E+00
        -11   -1    0    0    0    0  0.00000000000E+00  0.00000000000E+00  0.45593999997E+02  0.45594000000E+02  0.51100000000E-03 0. -1.
         11   -1    0    0    0    0 -0.00000000000E+00 -0.00000000000E+00 -0.45593999997E+02  0.45594000000E+02  0.51100000000E-03 0.  1.
    9900012    2    1    2    0    0  0.12256557168E+02  0.81561838069E+01  0.11572900912E+02  0.72461586478E+02  0.70000021082E+02 0.  0.
         12    1    1    2    0    0 -0.12256557168E+02 -0.81561838069E+01 -0.11572900912E+02  0.18726413522E+02  0.00000000000E+00 0. -1.
         11    1    3    3    0    0 -0.18157709335E+02 -0.90409810978E+01 -0.12452916250E+02  0.23801614880E+02  0.51100000000E-03 0. -1.
        -11    1    3    3    0    0 -0.15411592073E+01 -0.36912313481E+01  0.11843631242E+01  0.41716995145E+01  0.51100000000E-03 0.  1.
         12    1    3    3    0    0  0.31955425710E+02  0.20888396253E+02  0.22841454038E+02  0.44488272083E+02  0.00000000000E+00 0. -1.
</event>
<event>
 7    1  0.2873608E-013  0.7246158E+02  0.7816164E-02  0.1226708E+00
        -11   -1    0    0    0    0  0.00000000000E+00  0.00000000000E+00  0.45593999997E+02  0.45594000000E+02  0.51100000000E-03 0. -1.
         11   -1    0    0    0    0 -0.00000000000E+00 -0.00000000000E+00 -0.45593999997E+02  0.45594000000E+02  0.51100000000E-03 0.  1.
    9900012    2    1    2    0    0  0.79531037549E+00 -0.11940526899E+01 -0.18671387516E+02  0.72461575029E+02  0.70000006168E+02 0.  0.
         12    1    1    2    0    0 -0.79531037549E+00  0.11940526899E+01  0.18671387516E+02  0.18726424971E+02  0.00000000000E+00 0. -1.
         11    1    3    3    0    0 -0.45085095646E+01 -0.24973274713E+02 -0.28678381045E+02  0.38294133337E+02  0.51100000000E-03 0. -1.
        -11    1    3    3    0    0 -0.44495706614E+01 -0.54954782554E+00 -0.24913487152E+01  0.51290837939E+01  0.51100000000E-03 0.  1.
         12    1    3    3    0    0  0.97533906015E+01  0.24328769849E+02  0.12498342244E+02  0.29038357899E+02  0.00000000000E+00 0. -1.
</event>
<event>
 7    1  0.2873608E-013  0.7246156E+02  0.7816164E-02  0.1226708E+00
        -11   -1    0    0    0    0  0.00000000000E+00  0.00000000000E+00  0.45593999997E+02  0.45594000000E+02  0.51100000000E-03 0.  1.
         11   -1    0    0    0    0 -0.00000000000E+00 -0.00000000000E+00 -0.45593999997E+02  0.45594000000E+02  0.51100000000E-03 0. -1.
    9900012    2    1    2    0    0  0.27531669696E+01  0.18256850363E+02 -0.31284156190E+01  0.72461561529E+02  0.69999988581E+02 0.  0.
         12    1    1    2    0    0 -0.27531669696E+01 -0.18256850363E+02  0.31284156190E+01  0.18726438471E+02  0.00000000000E+00 0. -1.
         11    1    3    3    0    0  0.67847617266E+01  0.34408153568E+01 -0.24794004222E+02  0.25934819213E+02  0.51100000000E-03 0. -1.
        -11    1    3    3    0    0  0.28682142825E+01 -0.12552080633E+02  0.80991464019E+01  0.15211099700E+02  0.51100000000E-03 0.  1.
         12    1    3    3    0    0 -0.68998090395E+01  0.27368115639E+02  0.13566442201E+02  0.31315642615E+02  0.00000000000E+00 0. -1.
</event>
<event>
 7    1  0.2873608E-013  0.7246162E+02  0.7816164E-02  0.1226708E+00
        -11   -1    0    0    0    0  0.00000000000E+00  0.00000000000E+00  0.45593999997E+02  0.45594000000E+02  0.51100000000E-03 0. -1.
         11   -1    0    0    0    0 -0.00000000000E+00 -0.00000000000E+00 -0.45593999997E+02  0.45594000000E+02  0.51100000000E-03 0.  1.
    9900012    2    1    2    0    0 -0.72225736622E+01 -0.62773835004E+00 -0.17266080512E+02  0.72461623896E+02  0.70000069826E+02 0.  0.
         12    1    1    2    0    0  0.72225736622E+01  0.62773835004E+00  0.17266080512E+02  0.18726376104E+02  0.00000000000E+00 0. -1.
         11    1    3    3    0    0  0.11824304935E+02 -0.13930670771E+01  0.10956060259E+02  0.16179928298E+02  0.51100000000E-03 0. -1.
        -11    1    3    3    0    0 -0.26945303465E+01  0.20288935304E+02 -0.22034791928E+02  0.30073799978E+02  0.51100000000E-03 0.  1.
         12    1    3    3    0    0 -0.16352348251E+02 -0.19523606577E+02 -0.61873488428E+01  0.26207895619E+02  0.00000000000E+00 0. -1.
</event>
<event>
 7    1  0.2873608E-013  0.7246154E+02  0.7816164E-02  0.1226708E+00
        -11   -1    0    0    0    0  0.00000000000E+00  0.00000000000E+00  0.45593999997E+02  0.45594000000E+02  0.51100000000E-03 0. -1.
         11   -1    0    0    0    0 -0.00000000000E+00 -0.00000000000E+00 -0.45593999997E+02  0.45594000000E+02  0.51100000000E-03 0.  1.
    9900012    2    1    2    0    0 -0.61707248123E+01 -0.15026491472E+02  0.93170255228E+01  0.72461541305E+02  0.69999962236E+02 0.  0.
         12    1    1    2    0    0  0.61707248123E+01  0.15026491472E+02 -0.93170255228E+01  0.18726458695E+02  0.00000000000E+00 0. -1.
         11    1    3    3    0    0 -0.16942915676E+02 -0.23467558427E+01  0.72775643956E+01  0.18588507159E+02  0.51100000000E-03 0. -1.
        -11    1    3    3    0    0  0.24909433275E+00  0.13348730348E+02 -0.15741472419E+02  0.20640847949E+02  0.51100000000E-03 0.  1.
         12    1    3    3    0    0  0.10523096531E+02 -0.26028465977E+02  0.17780933546E+02  0.33232186197E+02  0.00000000000E+00 0. -1.
</event>
<event>
 7    1  0.2873608E-013  0.7246155E+02  0.7816164E-02  0.1226708E+00
        -11   -1    0    0    0    0  0.00000000000E+00  0.00000000000E+00  0.45593999997E+02  0.45594000000E+02  0.51100000000E-03 0.  1.
         11   -1    0    0    0    0 -0.00000000000E+00 -0.00000000000E+00 -0.45593999997E+02  0.45594000000E+02  0.51100000000E-03 0. -1.
    9900012    2    1    2    0    0  0.99970755340E+01 -0.42728261361E+00  0.15828952619E+02  0.72461552641E+02  0.69999977004E+02 0.  0.
         12    1    1    2    0    0 -0.99970755340E+01  0.42728261361E+00 -0.15828952619E+02  0.18726447359E+02  0.00000000000E+00 0. -1.
         11    1    3    3    0    0 -0.90782300072E+01  0.29567417029E+01 -0.86765507152E+01  0.12901128406E+02  0.51100000000E-03 0. -1.
        -11    1    3    3    0    0 -0.15695922104E+02 -0.75274143398E+01  0.11021067339E+01  0.17442436093E+02  0.51100000000E-03 0.  1.
         12    1    3    3    0    0  0.34771227645E+02  0.41433900233E+01  0.23403396600E+02  0.42117988143E+02  0.00000000000E+00 0. -1.
</event>
<event>
 7    1  0.2873608E-013  0.7246159E+02  0.7816164E-02  0.1226708E+00
        -11   -1    0    0    0    0  0.00000000000E+00  0.00000000000E+00  0.45593999997E+02  0.45594000000E+02  0.51100000000E-03 0. -1.
         11   -1    0    0    0    0 -0.00000000000E+00 -0.00000000000E+00 -0.45593999997E+02  0.45594000000E+02  0.51100000000E-03 0.  1.
    9900012    2    1    2    0    0  0.15302206805E+02  0.90057649904E+01 -0.59512232374E+01  0.72461590996E+02  0.70000026968E+02 0.  0.
         12    1    1    2    0    0 -0.15302206805E+02 -0.90057649904E+01  0.59512232374E+01  0.18726409004E+02  0.00000000000E+00 0. -1.
         11    1    3    3    0    0 -0.43252358265E+01  0.20186903585E+02  0.19576171070E+02  0.28450750699E+02  0.51100000000E-03 0.  1.
        -11    1    3    3    0    0  0.17520762591E+02 -0.28736973226E+01 -0.72523175894E+00  0.17769671337E+02  0.51100000000E-03 0. -1.
        -12    1    3    3    0    0  0.21066800407E+01 -0.83074412725E+01 -0.24802162548E+02  0.26241168960E+02  0.00000000000E+00 0.  1.
</event>
<event>
 7    1  0.2873608E-013  0.7246162E+02  0.7816164E-02  0.1226708E+00
        -11   -1    0    0    0    0  0.00000000000E+00  0.00000000000E+00  0.45593999997E+02  0.45594000000E+02  0.51100000000E-03 0. -1.
         11   -1    0    0    0    0 -0.00000000000E+00 -0.00000000000E+00 -0.45593999997E+02  0.45594000000E+02  0.51100000000E-03 0.  1.
    9900012    2    1    2    0    0  0.12487754652E+02 -0.10294653263E+02 -0.94208991984E+01  0.72461621713E+02  0.70000066982E+02 0.  0.
         12    1    1    2    0    0 -0.12487754652E+02  0.10294653263E+02  0.94208991984E+01  0.18726378287E+02  0.00000000000E+00 0. -1.
         11    1    3    3    0    0 -0.32112092790E+00  0.45888321218E+01 -0.22811003217E+01  0.51345805896E+01  0.51100000000E-03 0. -1.
        -11    1    3    3    0    0 -0.99104581027E+01  0.47826650201E+01 -0.28439997145E+02  0.30494663506E+02  0.51100000000E-03 0.  1.
         12    1    3    3    0    0  0.22719333682E+02 -0.19666150405E+02  0.21300198268E+02  0.36832377617E+02  0.00000000000E+00 0. -1.
</event>
<event>
 7    1  0.2873608E-013  0.7246169E+02  0.7816164E-02  0.1226708E+00
        -11   -1    0    0    0    0  0.00000000000E+00  0.00000000000E+00  0.45593999997E+02  0.45594000000E+02  0.51100000000E-03 0. -1.
         11   -1    0    0    0    0 -0.00000000000E+00 -0.00000000000E+00 -0.45593999997E+02  0.45594000000E+02  0.51100000000E-03 0.  1.
    9900012    2    1    2    0    0 -0.26386960869E+01 -0.49506509459E+00 -0.18532858095E+02  0.72461691350E+02  0.70000157698E+02 0.  0.
         12    1    1    2    0    0  0.26386960869E+01  0.49506509459E+00  0.18532858095E+02  0.18726308650E+02  0.00000000000E+00 0. -1.
         11    1    3    3    0    0 -0.36084879959E+01 -0.16091303482E+02  0.94740297359E+01  0.19018634889E+02  0.51100000000E-03 0. -1.
        -11    1    3    3    0    0 -0.19808665386E+02  0.16540266868E+01 -0.16797257231E+02  0.26024351662E+02  0.51100000000E-03 0.  1.
         12    1    3    3    0    0  0.20778457295E+02  0.13942211700E+02 -0.11209630599E+02  0.27418704799E+02  0.00000000000E+00 0. -1.
</event>
<event>
 7    1  0.2873608E-013  0.7246155E+02  0.7816164E-02  0.1226708E+00
        -11   -1    0    0    0    0  0.00000000000E+00  0.00000000000E+00  0.45593999997E+02  0.45594000000E+02  0.51100000000E-03 0. -1.
         11   -1    0    0    0    0 -0.00000000000E+00 -0.00000000000E+00 -0.45593999997E+02  0.45594000000E+02  0.51100000000E-03 0.  1.
    9900012    2    1    2    0    0 -0.17198589626E+02 -0.35524124713E+01 -0.65014440496E+01  0.72461550944E+02  0.69999974793E+02 0.  0.
         12    1    1    2    0    0  0.17198589626E+02  0.35524124713E+01  0.65014440496E+01  0.18726449056E+02  0.00000000000E+00 0. -1.
         11    1    3    3    0    0  0.16261174351E+01 -0.56581059201E+01 -0.21910714650E+02  0.22687834565E+02  0.51100000000E-03 0. -1.
        -11    1    3    3    0    0  0.58154859213E+01  0.28582956047E+01 -0.11549520305E+02  0.13243154828E+02  0.51100000000E-03 0.  1.
        -12    1    3    3    0    0 -0.24640192983E+02 -0.75260215593E+00  0.26958790905E+02  0.36530561552E+02  0.00000000000E+00 0.  1.
</event>
<event>
 7    1  0.2873608E-013  0.7246156E+02  0.7816164E-02  0.1226708E+00
        -11   -1    0    0    0    0  0.00000000000E+00  0.00000000000E+00  0.45593999997E+02  0.45594000000E+02  0.51100000000E-03 0. -1.
         11   -1    0    0    0    0 -0.00000000000E+00 -0.00000000000E+00 -0.45593999997E+02  0.45594000000E+02  0.51100000000E-03 0.  1.
    9900012    2    1    2    0    0 -0.14102708956E+02 -0.22778450269E+01 -0.12108044072E+02  0.72461555887E+02  0.69999981232E+02 0.  0.
         12    1    1    2    0    0  0.14102708956E+02  0.22778450269E+01  0.12108044072E+02  0.18726444113E+02  0.00000000000E+00 0. -1.
         11    1    3    3    0    0  0.84429491063E+01  0.10591076974E+01  0.44150611695E+01  0.95863373672E+01  0.51100000000E-03 0. -1.
        -11    1    3    3    0    0 -0.76246622568E+01 -0.78407106481E+01 -0.36175525654E+02  0.37792603438E+02  0.51100000000E-03 0.  1.
         12    1    3    3    0    0 -0.14920995806E+02  0.45037579238E+01  0.19652420413E+02  0.25082615082E+02  0.00000000000E+00 0. -1.
</event>
<event>
 7    1  0.2873608E-013  0.7246150E+02  0.7816164E-02  0.1226708E+00
        -11   -1    0    0    0    0  0.00000000000E+00  0.00000000000E+00  0.45593999997E+02  0.45594000000E+02  0.51100000000E-03 0.  1.
         11   -1    0    0    0    0 -0.00000000000E+00 -0.00000000000E+00 -0.45593999997E+02  0.45594000000E+02  0.51100000000E-03 0. -1.
    9900012    2    1    2    0    0 -0.16921558545E+01  0.18566536410E+02  0.17612960455E+01  0.72461499274E+02  0.69999907482E+02 0.  0.
         12    1    1    2    0    0  0.16921558545E+01 -0.18566536410E+02 -0.17612960455E+01  0.18726500726E+02  0.00000000000E+00 0. -1.
         11    1    3    3    0    0 -0.29069887802E+01 -0.81071508929E+01  0.17575292788E+02  0.19572107608E+02  0.51100000000E-03 0. -1.
        -11    1    3    3    0    0 -0.16375029217E+02  0.16905011662E+02  0.48694333952E+01  0.24033983919E+02  0.51100000000E-03 0.  1.
         12    1    3    3    0    0  0.17589862143E+02  0.97686756404E+01 -0.20683430138E+02  0.28855407747E+02  0.00000000000E+00 0. -1.
</event>
<event>
 7    1  0.2873608E-013  0.7246155E+02  0.7816164E-02  0.1226708E+00
        -11   -1    0    0    0    0  0.00000000000E+00  0.00000000000E+00  0.45593999997E+02  0.45594000000E+02  0.51100000000E-03 0. -1.
         11   -1    0    0    0    0 -0.00000000000E+00 -0.00000000000E+00 -0.45593999997E+02  0.45594000000E+02  0.51100000000E-03 0.  1.
    9900012    2    1    2    0    0  0.85120273241E+01 -0.14425635082E+02 -0.83741500016E+01  0.72461549591E+02  0.69999973030E+02 0.  0.
         12    1    1    2    0    0 -0.85120273241E+01  0.14425635082E+02  0.83741500016E+01  0.18726450409E+02  0.00000000000E+00 0. -1.
         11    1    3    3    0    0 -0.30947707151E+01 -0.19940315767E+02  0.80582203395E+01  0.21728523051E+02  0.51100000000E-03 0. -1.
        -11    1    3    3    0    0 -0.21952767243E+01 -0.17888642481E+02 -0.15130142754E+02  0.23531765546E+02  0.51100000000E-03 0.  1.
         12    1    3    3    0    0  0.13802074764E+02  0.23403323166E+02 -0.13022275872E+01  0.27201260994E+02  0.00000000000E+00 0. -1.
</event>
<event>
 7    1  0.2873608E-013  0.7246156E+02  0.7816164E-02  0.1226708E+00
        -11   -1    0    0    0    0  0.00000000000E+00  0.00000000000E+00  0.45593999997E+02  0.45594000000E+02  0.51100000000E-03 0. -1.
         11   -1    0    0    0    0 -0.00000000000E+00 -0.00000000000E+00 -0.45593999997E+02  0.45594000000E+02  0.51100000000E-03 0.  1.
    9900012    2    1    2    0    0 -0.39263941129E+01 -0.97816855332E+01 -0.15478430096E+02  0.72461555040E+02  0.69999980128E+02 0.  0.
         12    1    1    2    0    0  0.39263941129E+01  0.97816855332E+01  0.15478430096E+02  0.18726444960E+02  0.00000000000E+00 0. -1.
         11    1    3    3    0    0 -0.11488100024E+02  0.16354488217E+02 -0.11838588512E+02  0.23229246764E+02  0.51100000000E-03 0. -1.
        -11    1    3    3    0    0 -0.16254925799E+02 -0.98304960817E+01  0.39167564069E+01  0.19395933774E+02  0.51100000000E-03 0.  1.
         12    1    3    3    0    0  0.23816631710E+02 -0.16305677668E+02 -0.75565979906E+01  0.29836374502E+02  0.00000000000E+00 0. -1.
</event>
<event>
 7    1  0.2873608E-013  0.7246157E+02  0.7816164E-02  0.1226708E+00
        -11   -1    0    0    0    0  0.00000000000E+00  0.00000000000E+00  0.45593999997E+02  0.45594000000E+02  0.51100000000E-03 0.  1.
         11   -1    0    0    0    0 -0.00000000000E+00 -0.00000000000E+00 -0.45593999997E+02  0.45594000000E+02  0.51100000000E-03 0. -1.
    9900012    2    1    2    0    0 -0.10639392690E+02  0.30474759260E+01  0.15106136926E+02  0.72461570571E+02  0.70000000360E+02 0.  0.
         12    1    1    2    0    0  0.10639392690E+02 -0.30474759260E+01 -0.15106136926E+02  0.18726429429E+02  0.00000000000E+00 0. -1.
         11    1    3    3    0    0 -0.13427284672E+02  0.38771530219E+01  0.11896055588E+02  0.18353213016E+02  0.51100000000E-03 0. -1.
        -11    1    3    3    0    0  0.97481885030E+01 -0.64856937005E+01  0.26597312258E+02  0.29060427070E+02  0.51100000000E-03 0.  1.
        -12    1    3    3    0    0 -0.69602965210E+01  0.56560166047E+01 -0.23387230919E+02  0.25047930485E+02  0.00000000000E+00 0.  1.
</event>
<event>
 7    1  0.2873608E-013  0.7246163E+02  0.7816164E-02  0.1226708E+00
        -11   -1    0    0    0    0  0.00000000000E+00  0.00000000000E+00  0.45593999997E+02  0.45594000000E+02  0.51100000000E-03 0. -1.
         11   -1    0    0    0    0 -0.00000000000E+00 -0.00000000000E+00 -0.45593999997E+02  0.45594000000E+02  0.51100000000E-03 0.  1.
    9900012    2    1    2    0    0 -0.26425658745E+01  0.18537715236E+02 -0.21639139312E+00  0.72461631804E+02  0.70000080127E+02 0.  0.
         12    1    1    2    0    0  0.26425658745E+01 -0.18537715236E+02  0.21639139312E+00  0.18726368196E+02  0.00000000000E+00 0. -1.
         11    1    3    3    0    0  0.29447346911E+01  0.31877446201E+01 -0.37366652952E+01  0.57267657498E+01  0.51100000000E-03 0. -1.
        -11    1    3    3    0    0  0.12214697541E+02 -0.25364191934E+01 -0.25432756652E+02  0.28327678506E+02  0.51100000000E-03 0.  1.
        -12    1    3    3    0    0 -0.17801998107E+02  0.17886389810E+02  0.28953030555E+02  0.38407187548E+02  0.00000000000E+00 0.  1.
</event>
<event>
 7    1  0.2873608E-013  0.7246158E+02  0.7816164E-02  0.1226708E+00
        -11   -1    0    0    0    0  0.00000000000E+00  0.00000000000E+00  0.45593999997E+02  0.45594000000E+02  0.51100000000E-03 0. -1.
         11   -1    0    0    0    0 -0.00000000000E+00 -0.00000000000E+00 -0.45593999997E+02  0.45594000000E+02  0.51100000000E-03 0.  1.
    9900012    2    1    2    0    0 -0.16536895657E+02  0.69804384993E+01 -0.53369860172E+01  0.72461578576E+02  0.70000010788E+02 0.  0.
         12    1    1    2    0    0  0.16536895657E+02 -0.69804384993E+01  0.53369860172E+01  0.18726421424E+02  0.00000000000E+00 0. -1.
         11    1    3    3    0    0  0.13162235991E+01  0.17345118579E+02 -0.11305079965E+02  0.20745852992E+02  0.51100000000E-03 0. -1.
        -11    1    3    3    0    0 -0.15410141411E+02 -0.46877294980E+01 -0.19623999185E+02  0.25387961919E+02  0.51100000000E-03 0.  1.
         12    1    3    3    0    0 -0.24429778454E+01 -0.56769505816E+01  0.25592093133E+02  0.26327763665E+02  0.00000000000E+00 0. -1.
</event>
<event>
 7    1  0.2873608E-013  0.7246161E+02  0.7816164E-02  0.1226708E+00
        -11   -1    0    0    0    0  0.00000000000E+00  0.00000000000E+00  0.45593999997E+02  0.45594000000E+02  0.51100000000E-03 0.  1.
         11   -1    0    0    0    0 -0.00000000000E+00 -0.00000000000E+00 -0.45593999997E+02  0.45594000000E+02  0.51100000000E-03 0. -1.
    9900012    2    1    2    0    0  0.21563709898E+01  0.15473740840E+02  0.10324299580E+02  0.72461608109E+02  0.70000049261E+02 0.  0.
         12    1    1    2    0    0 -0.21563709898E+01 -0.15473740840E+02 -0.10324299580E+02  0.18726391891E+02  0.00000000000E+00 0. -1.
         11    1    3    3    0    0 -0.17277057374E+02 -0.12511486935E+02 -0.43646324059E+00  0.21335991124E+02  0.51100000000E-03 0.  1.
        -11    1    3    3    0    0  0.58364758247E+01 -0.11403618716E+01 -0.10864162788E+02  0.12385269823E+02  0.51100000000E-03 0. -1.
        -12    1    3    3    0    0  0.13596952539E+02  0.29125589647E+02  0.21624925609E+02  0.38740347162E+02  0.00000000000E+00 0.  1.
</event>
<event>
 7    1  0.2873608E-013  0.7246162E+02  0.7816164E-02  0.1226708E+00
        -11   -1    0    0    0    0  0.00000000000E+00  0.00000000000E+00  0.45593999997E+02  0.45594000000E+02  0.51100000000E-03 0.  1.
         11   -1    0    0    0    0 -0.00000000000E+00 -0.00000000000E+00 -0.45593999997E+02  0.45594000000E+02  0.51100000000E-03 0. -1.
    9900012    2    1    2    0    0  0.17928942227E+02  0.34117083412E+01 -0.41941285222E+01  0.72461616546E+02  0.70000060252E+02 0.  0.
         12    1    1    2    0    0 -0.17928942227E+02 -0.34117083412E+01  0.41941285222E+01  0.18726383454E+02  0.00000000000E+00 0. -1.
         11    1    3    3    0    0  0.73892589834E+01  0.30969712575E+01  0.10845185748E+02  0.13483709929E+02  0.51100000000E-03 0.  1.
        -11    1    3    3    0    0  0.33469761283E+02  0.41982293006E+01 -0.99790548929E+01  0.35177145797E+02  0.51100000000E-03 0. -1.
         12    1    3    3    0    0 -0.22930078039E+02 -0.38834922168E+01 -0.50602593771E+01  0.23800760820E+02  0.00000000000E+00 0. -1.
</event>
<event>
 7    1  0.2873608E-013  0.7246156E+02  0.7816164E-02  0.1226708E+00
        -11   -1    0    0    0    0  0.00000000000E+00  0.00000000000E+00  0.45593999997E+02  0.45594000000E+02  0.51100000000E-03 0.  1.
         11   -1    0    0    0    0 -0.00000000000E+00 -0.00000000000E+00 -0.45593999997E+02  0.45594000000E+02  0.51100000000E-03 0. -1.
    9900012    2    1    2    0    0 -0.28498613899E+01 -0.77935949576E+01  0.16787423697E+02  0.72461563428E+02  0.69999991055E+02 0.  0.
         12    1    1    2    0    0  0.28498613899E+01  0.77935949576E+01 -0.16787423697E+02  0.18726436572E+02  0.00000000000E+00 0. -1.
         11    1    3    3    0    0  0.82727144850E+01  0.14588898448E+02  0.20540926575E+01  0.16896539876E+02  0.51100000000E-03 0. -1.
        -11    1    3    3    0    0 -0.14772605052E+01 -0.36436147214E+02  0.87598421353E+01  0.37503465932E+02  0.51100000000E-03 0.  1.
         12    1    3    3    0    0 -0.96453153697E+01  0.14053653808E+02  0.59734889046E+01  0.18061557619E+02  0.00000000000E+00 0. -1.
</event>
<event>
 7    1  0.2873608E-013  0.7246126E+02  0.7816164E-02  0.1226709E+00
        -11   -1    0    0    0    0  0.00000000000E+00  0.00000000000E+00  0.45593999997E+02  0.45594000000E+02  0.51100000000E-03 0.  1.
         11   -1    0    0    0    0 -0.00000000000E+00 -0.00000000000E+00 -0.45593999997E+02  0.45594000000E+02  0.51100000000E-03 0. -1.
    9900012    2    1    2    0    0  0.11541022082E+02  0.46861307268E+01  0.13983408039E+02  0.72461262103E+02  0.69999598522E+02 0.  0.
         12    1    1    2    0    0 -0.11541022082E+02 -0.46861307268E+01 -0.13983408039E+02  0.18726737897E+02  0.00000000000E+00 0. -1.
         11    1    3    3    0    0 -0.64770021565E+01  0.37407916056E+01 -0.36900465192E+01  0.83403550492E+01  0.51100000000E-03 0. -1.
        -11    1    3    3    0    0 -0.61720538512E+01  0.13581936741E+02  0.30509174169E+02  0.33961345131E+02  0.51100000000E-03 0.  1.
         12    1    3    3    0    0  0.24190078090E+02 -0.12636597620E+02 -0.12835719611E+02  0.30159561922E+02  0.00000000000E+00 0. -1.
</event>
<event>
 7    1  0.2873608E-013  0.7246157E+02  0.7816164E-02  0.1226708E+00
        -11   -1    0    0    0    0  0.00000000000E+00  0.00000000000E+00  0.45593999997E+02  0.45594000000E+02  0.51100000000E-03 0.  1.
         11   -1    0    0    0    0 -0.00000000000E+00 -0.00000000000E+00 -0.45593999997E+02  0.45594000000E+02  0.51100000000E-03 0. -1.
    9900012    2    1    2    0    0  0.55263732473E+01 -0.17650711961E+02 -0.29309829547E+01  0.72461572282E+02  0.70000002589E+02 0.  0.
         12    1    1    2    0    0 -0.55263732473E+01  0.17650711961E+02  0.29309829547E+01  0.18726427718E+02  0.00000000000E+00 0. -1.
         11    1    3    3    0    0 -0.12348464265E+02 -0.24956516116E+02 -0.27400192159E+02  0.39065109714E+02  0.51100000000E-03 0. -1.
        -11    1    3    3    0    0  0.11203116724E+01  0.56953795347E+01  0.50091676751E+01  0.76670859748E+01  0.51100000000E-03 0.  1.
        -12    1    3    3    0    0  0.16754525840E+02  0.16104246203E+01  0.19460041529E+02  0.25729376593E+02  0.00000000000E+00 0.  1.
</event>
<event>
 7    1  0.2873608E-013  0.7246146E+02  0.7816164E-02  0.1226708E+00
        -11   -1    0    0    0    0  0.00000000000E+00  0.00000000000E+00  0.45593999997E+02  0.45594000000E+02  0.51100000000E-03 0. -1.
         11   -1    0    0    0    0 -0.00000000000E+00 -0.00000000000E+00 -0.45593999997E+02  0.45594000000E+02  0.51100000000E-03 0.  1.
    9900012    2    1    2    0    0 -0.17690412445E+02 -0.40450246705E+01 -0.46227945202E+01  0.72461464115E+02  0.69999861682E+02 0.  0.
         12    1    1    2    0    0  0.17690412445E+02  0.40450246705E+01  0.46227945202E+01  0.18726535885E+02  0.00000000000E+00 0. -1.
         11    1    3    3    0    0 -0.67936718103E+01  0.20790097417E+02 -0.79789982636E+00  0.21886497474E+02  0.51100000000E-03 0. -1.
        -11    1    3    3    0    0 -0.18208088981E+02 -0.23039404555E+01 -0.15631578747E+02  0.24107859721E+02  0.51100000000E-03 0.  1.
         12    1    3    3    0    0  0.73113483461E+01 -0.22531181632E+02  0.11806684053E+02  0.26467106920E+02  0.00000000000E+00 0. -1.
</event>
<event>
 7    1  0.2873608E-013  0.7246158E+02  0.7816164E-02  0.1226708E+00
        -11   -1    0    0    0    0  0.00000000000E+00  0.00000000000E+00  0.45593999997E+02  0.45594000000E+02  0.51100000000E-03 0.  1.
         11   -1    0    0    0    0 -0.00000000000E+00 -0.00000000000E+00 -0.45593999997E+02  0.45594000000E+02  0.51100000000E-03 0. -1.
    9900012    2    1    2    0    0  0.84366243189E+01  0.53933661245E+01  0.15824469536E+02  0.72461578448E+02  0.70000010621E+02 0.  0.
         12    1    1    2    0    0 -0.84366243189E+01 -0.53933661245E+01 -0.15824469536E+02  0.18726421552E+02  0.00000000000E+00 0. -1.
         11    1    3    3    0    0 -0.95452344318E+01  0.10147539098E+02  0.97260935781E+01  0.16990613487E+02  0.51100000000E-03 0. -1.
        -11    1    3    3    0    0 -0.12840394302E+02  0.10421608189E+02 -0.79560230108E+01  0.18351674188E+02  0.51100000000E-03 0.  1.
        -12    1    3    3    0    0  0.30822253053E+02 -0.15175781162E+02  0.14054398969E+02  0.37119290773E+02  0.00000000000E+00 0.  1.
</event>
<event>
 7    1  0.2873608E-013  0.7246102E+02  0.7816164E-02  0.1226709E+00
        -11   -1    0    0    0    0  0.00000000000E+00  0.00000000000E+00  0.45593999997E+02  0.45594000000E+02  0.51100000000E-03 0.  1.
         11   -1    0    0    0    0 -0.00000000000E+00 -0.00000000000E+00 -0.45593999997E+02  0.45594000000E+02  0.51100000000E-03 0. -1.
    9900012    2    1    2    0    0 -0.24531880966E+01 -0.18110026389E+02  0.40876225388E+01  0.72461018245E+02  0.69999280849E+02 0.  0.
         12    1    1    2    0    0  0.24531880966E+01  0.18110026389E+02 -0.40876225388E+01  0.18726981755E+02  0.00000000000E+00 0. -1.
         11    1    3    3    0    0 -0.98358961862E+00 -0.15738151048E+02 -0.20469448601E+02  0.25839024232E+02  0.51100000000E-03 0. -1.
        -11    1    3    3    0    0 -0.15111720345E+02  0.10557058944E+02  0.41833448862E+01  0.18902802967E+02  0.51100000000E-03 0.  1.
        -12    1    3    3    0    0  0.13642121867E+02 -0.12928934285E+02  0.20373726254E+02  0.27719191046E+02  0.00000000000E+00 0.  1.
</event>
<event>
 7    1  0.2873608E-013  0.7246157E+02  0.7816164E-02  0.1226708E+00
        -11   -1    0    0    0    0  0.00000000000E+00  0.00000000000E+00  0.45593999997E+02  0.45594000000E+02  0.51100000000E-03 0. -1.
         11   -1    0    0    0    0 -0.00000000000E+00 -0.00000000000E+00 -0.45593999997E+02  0.45594000000E+02  0.51100000000E-03 0.  1.
    9900012    2    1    2    0    0  0.63397156982E+01  0.41394575542E+01 -0.17127529328E+02  0.72461565078E+02  0.69999993205E+02 0.  0.
         12    1    1    2    0    0 -0.63397156982E+01 -0.41394575542E+01  0.17127529328E+02  0.18726434922E+02  0.00000000000E+00 0. -1.
         11    1    3    3    0    0 -0.23418840865E+02  0.96319004344E+01 -0.36744077294E+01  0.25587436094E+02  0.51100000000E-03 0. -1.
        -11    1    3    3    0    0 -0.65731432336E+01  0.34753962577E+01 -0.30163023009E+01  0.80238812896E+01  0.51100000000E-03 0.  1.
        -12    1    3    3    0    0  0.36331699797E+02 -0.89678391380E+01 -0.10436819298E+02  0.38850247695E+02  0.00000000000E+00 0.  1.
</event>
<event>
 7    1  0.2873608E-013  0.7246156E+02  0.7816164E-02  0.1226708E+00
        -11   -1    0    0    0    0  0.00000000000E+00  0.00000000000E+00  0.45593999997E+02  0.45594000000E+02  0.51100000000E-03 0. -1.
         11   -1    0    0    0    0 -0.00000000000E+00 -0.00000000000E+00 -0.45593999997E+02  0.45594000000E+02  0.51100000000E-03 0.  1.
    9900012    2    1    2    0    0 -0.15615171220E+02 -0.98336284741E+01 -0.31852523521E+01  0.72461557366E+02  0.69999983158E+02 0.  0.
         12    1    1    2    0    0  0.15615171220E+02  0.98336284741E+01  0.31852523521E+01  0.18726442634E+02  0.00000000000E+00 0. -1.
         11    1    3    3    0    0  0.12410033470E+02  0.88849833133E+01 -0.39151466367E+01  0.15756910632E+02  0.51100000000E-03 0. -1.
        -11    1    3    3    0    0 -0.22622348627E+00 -0.19100435737E+02 -0.15423250467E+02  0.24551058585E+02  0.51100000000E-03 0.  1.
         12    1    3    3    0    0 -0.27798981204E+02  0.38182394919E+00  0.16153144752E+02  0.32153588149E+02  0.00000000000E+00 0. -1.
</event>
<event>
 7    1  0.2873608E-013  0.7246159E+02  0.7816164E-02  0.1226708E+00
        -11   -1    0    0    0    0  0.00000000000E+00  0.00000000000E+00  0.45593999997E+02  0.45594000000E+02  0.51100000000E-03 0.  1.
         11   -1    0    0    0    0 -0.00000000000E+00 -0.00000000000E+00 -0.45593999997E+02  0.45594000000E+02  0.51100000000E-03 0. -1.
    9900012    2    1    2    0    0  0.12545548624E+02 -0.12854023044E+02  0.52973203990E+01  0.72461593455E+02  0.70000030171E+02 0.  0.
         12    1    1    2    0    0 -0.12545548624E+02  0.12854023044E+02 -0.52973203990E+01  0.18726406545E+02  0.00000000000E+00 0. -1.
         11    1    3    3    0    0  0.75295365095E+01 -0.20874113811E+02 -0.10212540647E+02  0.24427822951E+02  0.51100000000E-03 0.  1.
        -11    1    3    3    0    0 -0.17732659723E+02 -0.53715308777E+01  0.10045875267E+02  0.21076531379E+02  0.51100000000E-03 0. -1.
        -12    1    3    3    0    0  0.22748671837E+02  0.13391621645E+02  0.54639857789E+01  0.26957239125E+02  0.00000000000E+00 0.  1.
</event>
<event>
 7    1  0.2873608E-013  0.7246160E+02  0.7816164E-02  0.1226708E+00
        -11   -1    0    0    0    0  0.00000000000E+00  0.00000000000E+00  0.45593999997E+02  0.45594000000E+02  0.51100000000E-03 0. -1.
         11   -1    0    0    0    0 -0.00000000000E+00 -0.00000000000E+00 -0.45593999997E+02  0.45594000000E+02  0.51100000000E-03 0.  1.
    9900012    2    1    2    0    0  0.10186157075E+02 -0.52944528896E+01  0.14794893738E+02  0.72461603975E+02  0.70000043876E+02 0.  0.
         12    1    1    2    0    0 -0.10186157075E+02  0.52944528896E+01 -0.14794893738E+02  0.18726396025E+02  0.00000000000E+00 0. -1.
         11    1    3    3    0    0  0.77544984977E+01 -0.20162568943E+01  0.11477538022E+02  0.13997550433E+02  0.51100000000E-03 0. -1.
        -11    1    3    3    0    0  0.67711688467E+01  0.14914616612E+02  0.24963160293E+02  0.29857225061E+02  0.51100000000E-03 0.  1.
        -12    1    3    3    0    0 -0.43395102691E+01 -0.18192812607E+02 -0.21645804578E+02  0.28606828481E+02  0.00000000000E+00 0.  1.
</event>
<event>
 7    1  0.2873608E-013  0.7246156E+02  0.7816164E-02  0.1226708E+00
        -11   -1    0    0    0    0  0.00000000000E+00  0.00000000000E+00  0.45593999997E+02  0.45594000000E+02  0.51100000000E-03 0.  1.
         11   -1    0    0    0    0 -0.00000000000E+00 -0.00000000000E+00 -0.45593999997E+02  0.45594000000E+02  0.51100000000E-03 0. -1.
    9900012    2    1    2    0    0  0.11097558685E+01 -0.18599399806E+02  0.18735830831E+01  0.72461560274E+02  0.69999986947E+02 0.  0.
         12    1    1    2    0    0 -0.11097558685E+01  0.18599399806E+02 -0.18735830831E+01  0.18726439726E+02  0.00000000000E+00 0. -1.
         11    1    3    3    0    0 -0.13823050764E+01  0.50324538436E+01 -0.54189165850E+01  0.75233646880E+01  0.51100000000E-03 0. -1.
        -11    1    3    3    0    0  0.25544028993E+01  0.20283292296E+02  0.13762110647E+00  0.20443968802E+02  0.51100000000E-03 0.  1.
         12    1    3    3    0    0 -0.62341954449E-01 -0.43915145945E+02  0.71548785616E+01  0.44494226785E+02  0.00000000000E+00 0. -1.
</event>
<event>
 7    1  0.2873608E-013  0.7246157E+02  0.7816164E-02  0.1226708E+00
        -11   -1    0    0    0    0  0.00000000000E+00  0.00000000000E+00  0.45593999997E+02  0.45594000000E+02  0.51100000000E-03 0. -1.
         11   -1    0    0    0    0 -0.00000000000E+00 -0.00000000000E+00 -0.45593999997E+02  0.45594000000E+02  0.51100000000E-03 0.  1.
    9900012    2    1    2    0    0  0.13348254564E+02 -0.13124117157E+02 -0.51079986795E+00  0.72461567677E+02  0.69999996590E+02 0.  0.
         12    1    1    2    0    0 -0.13348254564E+02  0.13124117157E+02  0.51079986795E+00  0.18726432323E+02  0.00000000000E+00 0. -1.
         11    1    3    3    0    0 -0.19072732201E+01 -0.18016446955E+01 -0.13535121122E+00  0.26271533941E+01  0.51100000000E-03 0. -1.
        -11    1    3    3    0    0  0.10695517722E+02 -0.36384954399E+02 -0.14624081946E+02  0.40646313227E+02  0.51100000000E-03 0.  1.
         12    1    3    3    0    0  0.45600100622E+01  0.25062481937E+02  0.14248633289E+02  0.29188101055E+02  0.00000000000E+00 0. -1.
</event>
<event>
 7    1  0.2873608E-013  0.7246155E+02  0.7816164E-02  0.1226708E+00
        -11   -1    0    0    0    0  0.00000000000E+00  0.00000000000E+00  0.45593999997E+02  0.45594000000E+02  0.51100000000E-03 0. -1.
         11   -1    0    0    0    0 -0.00000000000E+00 -0.00000000000E+00 -0.45593999997E+02  0.45594000000E+02  0.51100000000E-03 0.  1.
    9900012    2    1    2    0    0  0.20569685081E+01 -0.11011489629E+02  0.15006525156E+02  0.72461552912E+02  0.69999977356E+02 0.  0.
         12    1    1    2    0    0 -0.20569685081E+01  0.11011489629E+02 -0.15006525156E+02  0.18726447088E+02  0.00000000000E+00 0. -1.
         11    1    3    3    0    0  0.13819813569E+02  0.19252660291E+02  0.24658228790E+02  0.34200590970E+02  0.51100000000E-03 0. -1.
        -11    1    3    3    0    0 -0.65934122947E+01 -0.12543657836E+02 -0.13311497436E+02  0.19442541034E+02  0.51100000000E-03 0.  1.
        -12    1    3    3    0    0 -0.51694327662E+01 -0.17720492083E+02  0.36597938016E+01  0.18818420908E+02  0.00000000000E+00 0.  1.
</event>
<event>
 7    1  0.2873608E-013  0.7246158E+02  0.7816164E-02  0.1226708E+00
        -11   -1    0    0    0    0  0.00000000000E+00  0.00000000000E+00  0.45593999997E+02  0.45594000000E+02  0.51100000000E-03 0. -1.
         11   -1    0    0    0    0 -0.00000000000E+00 -0.00000000000E+00 -0.45593999997E+02  0.45594000000E+02  0.51100000000E-03 0.  1.
    9900012    2    1    2    0    0  0.17992937620E+02  0.34892582994E+01 -0.38416054234E+01  0.72461583901E+02  0.70000017725E+02 0.  0.
         12    1    1    2    0    0 -0.17992937620E+02 -0.34892582994E+01  0.38416054234E+01  0.18726416099E+02  0.00000000000E+00 0. -1.
         11    1    3    3    0    0 -0.16722409687E+02  0.92968665695E+01 -0.12269729559E+02  0.22729209785E+02  0.51100000000E-03 0. -1.
        -11    1    3    3    0    0  0.89858532537E+01  0.38221811468E+01  0.18133754337E+02  0.20595816906E+02  0.51100000000E-03 0.  1.
        -12    1    3    3    0    0  0.25729494053E+02 -0.96297894168E+01 -0.97056302009E+01  0.29136557210E+02  0.00000000000E+00 0.  1.
</event>
<event>
 7    1  0.2873608E-013  0.7246161E+02  0.7816164E-02  0.1226708E+00
        -11   -1    0    0    0    0  0.00000000000E+00  0.00000000000E+00  0.45593999997E+02  0.45594000000E+02  0.51100000000E-03 0.  1.
         11   -1    0    0    0    0 -0.00000000000E+00 -0.00000000000E+00 -0.45593999997E+02  0.45594000000E+02  0.51100000000E-03 0. -1.
    9900012    2    1    2    0    0 -0.35282309319E+01  0.11866672767E+02  0.14050308565E+02  0.72461614689E+02  0.70000057832E+02 0.  0.
         12    1    1    2    0    0  0.35282309319E+01 -0.11866672767E+02 -0.14050308565E+02  0.18726385311E+02  0.00000000000E+00 0. -1.
         11    1    3    3    0    0 -0.12024962732E+02 -0.17215222081E+02  0.24650443224E+02  0.32382216592E+02  0.51100000000E-03 0. -1.
        -11    1    3    3    0    0  0.91291525013E+01  0.49371996312E+00  0.10489409475E+01  0.92024704382E+01  0.51100000000E-03 0.  1.
        -12    1    3    3    0    0 -0.63242070147E+00  0.28588174884E+02 -0.11649075607E+02  0.30876927659E+02  0.00000000000E+00 0.  1.
</event>
<event>
 7    1  0.2873608E-013  0.7246155E+02  0.7816164E-02  0.1226708E+00
        -11   -1    0    0    0    0  0.00000000000E+00  0.00000000000E+00  0.45593999997E+02  0.45594000000E+02  0.51100000000E-03 0.  1.
         11   -1    0    0    0    0 -0.00000000000E+00 -0.00000000000E+00 -0.45593999997E+02  0.45594000000E+02  0.51100000000E-03 0. -1.
    9900012    2    1    2    0    0  0.15593704360E+02  0.26398151719E+01  0.10027354998E+02  0.72461545769E+02  0.69999968051E+02 0.  0.
         12    1    1    2    0    0 -0.15593704360E+02 -0.26398151719E+01 -0.10027354998E+02  0.18726454231E+02  0.00000000000E+00 0. -1.
         11    1    3    3    0    0  0.98697588208E+01 -0.90447443588E+00  0.90208996735E+01  0.13401747810E+02  0.51100000000E-03 0. -1.
        -11    1    3    3    0    0  0.12679893055E+02  0.17372693921E+02  0.23434719673E+02  0.31808430775E+02  0.51100000000E-03 0.  1.
         12    1    3    3    0    0 -0.69559475156E+01 -0.13828404313E+02 -0.22428264349E+02  0.27251367184E+02  0.00000000000E+00 0. -1.
</event>
<event>
 7    1  0.2873608E-013  0.7246162E+02  0.7816164E-02  0.1226708E+00
        -11   -1    0    0    0    0  0.00000000000E+00  0.00000000000E+00  0.45593999997E+02  0.45594000000E+02  0.51100000000E-03 0. -1.
         11   -1    0    0    0    0 -0.00000000000E+00 -0.00000000000E+00 -0.45593999997E+02  0.45594000000E+02  0.51100000000E-03 0.  1.
    9900012    2    1    2    0    0 -0.16330052486E+02  0.59054124509E+01 -0.70094738115E+01  0.72461621986E+02  0.70000067337E+02 0.  0.
         12    1    1    2    0    0  0.16330052486E+02 -0.59054124509E+01  0.70094738115E+01  0.18726378014E+02  0.00000000000E+00 0. -1.
         11    1    3    3    0    0 -0.13951908129E+02  0.64010056948E+01 -0.15362323824E+02  0.21717034970E+02  0.51100000000E-03 0. -1.
        -11    1    3    3    0    0 -0.25721219474E+01 -0.23588703459E+02 -0.47401433855E+01  0.24197349065E+02  0.51100000000E-03 0.  1.
         12    1    3    3    0    0  0.19397758957E+00  0.23093110215E+02  0.13092993398E+02  0.26547237951E+02  0.00000000000E+00 0. -1.
</event>
<event>
 7    1  0.2873608E-013  0.7246155E+02  0.7816164E-02  0.1226708E+00
        -11   -1    0    0    0    0  0.00000000000E+00  0.00000000000E+00  0.45593999997E+02  0.45594000000E+02  0.51100000000E-03 0.  1.
         11   -1    0    0    0    0 -0.00000000000E+00 -0.00000000000E+00 -0.45593999997E+02  0.45594000000E+02  0.51100000000E-03 0. -1.
    9900012    2    1    2    0    0  0.45759644545E+01 -0.17188427820E+02  0.58564700583E+01  0.72461554978E+02  0.69999980048E+02 0.  0.
         12    1    1    2    0    0 -0.45759644545E+01  0.17188427820E+02 -0.58564700583E+01  0.18726445022E+02  0.00000000000E+00 0. -1.
         11    1    3    3    0    0 -0.29721181986E+02 -0.17448790288E+02  0.55934569995E+01  0.34915551014E+02  0.51100000000E-03 0. -1.
        -11    1    3    3    0    0  0.47136990824E-02  0.17003370563E+01 -0.25973005749E+01  0.31043741497E+01  0.51100000000E-03 0.  1.
        -12    1    3    3    0    0  0.34292432742E+02 -0.14399745887E+01  0.28603136337E+01  0.34441629814E+02  0.00000000000E+00 0.  1.
</event>
<event>
 7    1  0.2873608E-013  0.7246155E+02  0.7816164E-02  0.1226708E+00
        -11   -1    0    0    0    0  0.00000000000E+00  0.00000000000E+00  0.45593999997E+02  0.45594000000E+02  0.51100000000E-03 0. -1.
         11   -1    0    0    0    0 -0.00000000000E+00 -0.00000000000E+00 -0.45593999997E+02  0.45594000000E+02  0.51100000000E-03 0.  1.
    9900012    2    1    2    0    0 -0.70985652805E+01 -0.12793684630E+02 -0.11688106393E+02  0.72461552752E+02  0.69999977148E+02 0.  0.
         12    1    1    2    0    0  0.70985652805E+01  0.12793684630E+02  0.11688106393E+02  0.18726447248E+02  0.00000000000E+00 0. -1.
         11    1    3    3    0    0  0.11283009853E+02 -0.40236042043E+01  0.10171023117E+02  0.15714496926E+02  0.51100000000E-03 0. -1.
        -11    1    3    3    0    0 -0.82803560348E+01  0.38020225012E+01 -0.34860549397E+02  0.36031619110E+02  0.51100000000E-03 0.  1.
         12    1    3    3    0    0 -0.10101219099E+02 -0.12572102927E+02  0.13001419886E+02  0.20715436716E+02  0.00000000000E+00 0. -1.
</event>
<event>
 7    1  0.2873608E-013  0.7246169E+02  0.7816164E-02  0.1226708E+00
        -11   -1    0    0    0    0  0.00000000000E+00  0.00000000000E+00  0.45593999997E+02  0.45594000000E+02  0.51100000000E-03 0.  1.
         11   -1    0    0    0    0 -0.00000000000E+00 -0.00000000000E+00 -0.45593999997E+02  0.45594000000E+02  0.51100000000E-03 0. -1.
    9900012    2    1    2    0    0  0.33526106112E+01  0.15979133017E+02 -0.91707187037E+01  0.72461687724E+02  0.70000152974E+02 0.  0.
         12    1    1    2    0    0 -0.33526106112E+01 -0.15979133017E+02  0.91707187037E+01  0.18726312276E+02  0.00000000000E+00 0. -1.
         11    1    3    3    0    0 -0.10556385239E+02 -0.15652431116E+02 -0.12520778248E+02  0.22654045055E+02  0.51100000000E-03 0. -1.
        -11    1    3    3    0    0 -0.20097200671E+00 -0.30922088497E+01 -0.96505937504E+01  0.10135882069E+02  0.51100000000E-03 0.  1.
        -12    1    3    3    0    0  0.14109967857E+02  0.34723772983E+02  0.13000653294E+02  0.39671760601E+02  0.00000000000E+00 0.  1.
</event>
<event>
 7    1  0.2873608E-013  0.7246149E+02  0.7816164E-02  0.1226708E+00
        -11   -1    0    0    0    0  0.00000000000E+00  0.00000000000E+00  0.45593999997E+02  0.45594000000E+02  0.51100000000E-03 0.  1.
         11   -1    0    0    0    0 -0.00000000000E+00 -0.00000000000E+00 -0.45593999997E+02  0.45594000000E+02  0.51100000000E-03 0. -1.
    9900012    2    1    2    0    0 -0.65299632720E+01  0.10070362744E+02  0.14374609398E+02  0.72461494147E+02  0.69999900803E+02 0.  0.
         12    1    1    2    0    0  0.65299632720E+01 -0.10070362744E+02 -0.14374609398E+02  0.18726505853E+02  0.00000000000E+00 0. -1.
         11    1    3    3    0    0 -0.23037960099E+01  0.51780047175E+01  0.99681938077E+01  0.11466651515E+02  0.51100000000E-03 0. -1.
        -11    1    3    3    0    0 -0.79848457969E+01 -0.67562375773E+01  0.30461876680E+02  0.32207614623E+02  0.51100000000E-03 0.  1.
         12    1    3    3    0    0  0.37586785348E+01  0.11648595604E+02 -0.26055461089E+02  0.28787228009E+02  0.00000000000E+00 0. -1.
</event>
<event>
 7    1  0.2873608E-013  0.7246176E+02  0.7816164E-02  0.1226708E+00
        -11   -1    0    0    0    0  0.00000000000E+00  0.00000000000E+00  0.45593999997E+02  0.45594000000E+02  0.51100000000E-03 0.  1.
         11   -1    0    0    0    0 -0.00000000000E+00 -0.00000000000E+00 -0.45593999997E+02  0.45594000000E+02  0.51100000000E-03 0. -1.
    9900012    2    1    2    0    0  0.53394366060E+01  0.65453266608E+01  0.16712909567E+02  0.72461755567E+02  0.70000241351E+02 0.  0.
         12    1    1    2    0    0 -0.53394366060E+01 -0.65453266608E+01 -0.16712909567E+02  0.18726244433E+02  0.00000000000E+00 0. -1.
         11    1    3    3    0    0  0.90658519501E+00 -0.68293942784E+01 -0.50301404206E+01  0.85302307025E+01  0.51100000000E-03 0. -1.
        -11    1    3    3    0    0 -0.35737944280E+00 -0.23008103130E+02  0.12055230159E+02  0.25977473013E+02  0.51100000000E-03 0.  1.
         12    1    3    3    0    0  0.47902308538E+01  0.36382824069E+02  0.96878198284E+01  0.37954051851E+02  0.00000000000E+00 0. -1.
</event>
<event>
 7    1  0.2873608E-013  0.7246174E+02  0.7816164E-02  0.1226708E+00
        -11   -1    0    0    0    0  0.00000000000E+00  0.00000000000E+00  0.45593999997E+02  0.45594000000E+02  0.51100000000E-03 0. -1.
         11   -1    0    0    0    0 -0.00000000000E+00 -0.00000000000E+00 -0.45593999997E+02  0.45594000000E+02  0.51100000000E-03 0.  1.
    9900012    2    1    2    0    0  0.11758758193E+02 -0.13806100615E+02 -0.46686302325E+01  0.72461737247E+02  0.70000217487E+02 0.  0.
         12    1    1    2    0    0 -0.11758758193E+02  0.13806100615E+02  0.46686302325E+01  0.18726262753E+02  0.00000000000E+00 0. -1.
         11    1    3    3    0    0 -0.75393488461E+00 -0.97229312272E+01 -0.90187657089E+01  0.13283145133E+02  0.51100000000E-03 0. -1.
        -11    1    3    3    0    0  0.17869726912E+02 -0.16836943092E+02 -0.19670099847E+02  0.31459857292E+02  0.51100000000E-03 0.  1.
         12    1    3    3    0    0 -0.53570338343E+01  0.12753773704E+02  0.24020235323E+02  0.27718734823E+02  0.00000000000E+00 0. -1.
</event>
<event>
 7    1  0.2873608E-013  0.7246153E+02  0.7816164E-02  0.1226708E+00
        -11   -1    0    0    0    0  0.00000000000E+00  0.00000000000E+00  0.45593999997E+02  0.45594000000E+02  0.51100000000E-03 0.  1.
         11   -1    0    0    0    0 -0.00000000000E+00 -0.00000000000E+00 -0.45593999997E+02  0.45594000000E+02  0.51100000000E-03 0. -1.
    9900012    2    1    2    0    0 -0.10102917951E+02 -0.12812033132E+02  0.91904104459E+01  0.72461527074E+02  0.69999943697E+02 0.  0.
         12    1    1    2    0    0  0.10102917951E+02  0.12812033132E+02 -0.91904104459E+01  0.18726472926E+02  0.00000000000E+00 0. -1.
         11    1    3    3    0    0 -0.35503546660E+01  0.10267873768E+02 -0.25360047732E+02  0.27589241947E+02  0.51100000000E-03 0. -1.
        -11    1    3    3    0    0  0.20242777086E+01 -0.21956909173E+01 -0.64759189760E+00  0.30558361168E+01  0.51100000000E-03 0.  1.
        -12    1    3    3    0    0 -0.85768409935E+01 -0.20884215983E+02  0.35198050076E+02  0.41816449010E+02  0.00000000000E+00 0.  1.
</event>
<event>
 7    1  0.2873608E-013  0.7246156E+02  0.7816164E-02  0.1226708E+00
        -11   -1    0    0    0    0  0.00000000000E+00  0.00000000000E+00  0.45593999997E+02  0.45594000000E+02  0.51100000000E-03 0. -1.
         11   -1    0    0    0    0 -0.00000000000E+00 -0.00000000000E+00 -0.45593999997E+02  0.45594000000E+02  0.51100000000E-03 0.  1.
    9900012    2    1    2    0    0  0.28725726927E+01  0.16288543016E+02 -0.87812985153E+01  0.72461561175E+02  0.69999988121E+02 0.  0.
         12    1    1    2    0    0 -0.28725726927E+01 -0.16288543016E+02  0.87812985153E+01  0.18726438825E+02  0.00000000000E+00 0. -1.
         11    1    3    3    0    0  0.82735994032E+01  0.33925588027E+02  0.10181907543E+02  0.36374018358E+02  0.51100000000E-03 0. -1.
        -11    1    3    3    0    0 -0.37417839566E+01  0.59000260735E+01 -0.57219243841E+01  0.90305965342E+01  0.51100000000E-03 0.  1.
        -12    1    3    3    0    0 -0.16592427540E+01 -0.23537071085E+02 -0.13241281675E+02  0.27056946283E+02  0.00000000000E+00 0.  1.
</event>
<event>
 7    1  0.2873608E-013  0.7246155E+02  0.7816164E-02  0.1226708E+00
        -11   -1    0    0    0    0  0.00000000000E+00  0.00000000000E+00  0.45593999997E+02  0.45594000000E+02  0.51100000000E-03 0. -1.
         11   -1    0    0    0    0 -0.00000000000E+00 -0.00000000000E+00 -0.45593999997E+02  0.45594000000E+02  0.51100000000E-03 0.  1.
    9900012    2    1    2    0    0  0.14735659763E+02  0.11544631820E+02  0.51143827028E+00  0.72461554486E+02  0.69999979406E+02 0.  0.
         12    1    1    2    0    0 -0.14735659763E+02 -0.11544631820E+02 -0.51143827028E+00  0.18726445514E+02  0.00000000000E+00 0. -1.
         11    1    3    3    0    0 -0.64947549628E+00 -0.30639783909E+01  0.12988252181E+02  0.13360556761E+02  0.51100000000E-03 0. -1.
        -11    1    3    3    0    0  0.95515176578E+01 -0.17443017170E+02 -0.17060272805E+02  0.26201970270E+02  0.51100000000E-03 0.  1.
        -12    1    3    3    0    0  0.58336176013E+01  0.32051627380E+02  0.45834588948E+01  0.32899027455E+02  0.00000000000E+00 0.  1.
</event>
<event>
 7    1  0.2873608E-013  0.7246154E+02  0.7816164E-02  0.1226708E+00
        -11   -1    0    0    0    0  0.00000000000E+00  0.00000000000E+00  0.45593999997E+02  0.45594000000E+02  0.51100000000E-03 0. -1.
         11   -1    0    0    0    0 -0.00000000000E+00 -0.00000000000E+00 -0.45593999997E+02  0.45594000000E+02  0.51100000000E-03 0.  1.
    9900012    2    1    2    0    0  0.23445777555E+00 -0.14155397049E+02 -0.12257658253E+02  0.72461536855E+02  0.69999956439E+02 0.  0.
         12    1    1    2    0    0 -0.23445777555E+00  0.14155397049E+02  0.12257658253E+02  0.18726463145E+02  0.00000000000E+00 0. -1.
         11    1    3    3    0    0  0.90896856688E+01  0.91057983011E+01 -0.17212879524E+02  0.21490024896E+02  0.51100000000E-03 0. -1.
        -11    1    3    3    0    0 -0.19513025518E+02 -0.28158554033E+01 -0.11334499732E+02  0.22741110152E+02  0.51100000000E-03 0.  1.
        -12    1    3    3    0    0  0.10657797625E+02 -0.20445339947E+02  0.16289721003E+02  0.28230401806E+02  0.00000000000E+00 0.  1.
</event>
<event>
 7    1  0.2873608E-013  0.7246158E+02  0.7816164E-02  0.1226708E+00
        -11   -1    0    0    0    0  0.00000000000E+00  0.00000000000E+00  0.45593999997E+02  0.45594000000E+02  0.51100000000E-03 0.  1.
         11   -1    0    0    0    0 -0.00000000000E+00 -0.00000000000E+00 -0.45593999997E+02  0.45594000000E+02  0.51100000000E-03 0. -1.
    9900012    2    1    2    0    0  0.17181954954E+02 -0.54993158108E+01  0.50216313230E+01  0.72461579318E+02  0.70000011755E+02 0.  0.
         12    1    1    2    0    0 -0.17181954954E+02  0.54993158108E+01 -0.50216313230E+01  0.18726420682E+02  0.00000000000E+00 0. -1.
         11    1    3    3    0    0  0.29520457630E+01  0.23417202503E+02  0.18933259322E+02  0.30258027961E+02  0.51100000000E-03 0. -1.
        -11    1    3    3    0    0  0.14965071209E+01 -0.17402199910E+01  0.58405211957E+01  0.62753157115E+01  0.51100000000E-03 0.  1.
         12    1    3    3    0    0  0.12733402070E+02 -0.27176298323E+02 -0.19752149195E+02  0.35928235646E+02  0.00000000000E+00 0. -1.
</event>
<event>
 7    1  0.2873608E-013  0.7246161E+02  0.7816164E-02  0.1226708E+00
        -11   -1    0    0    0    0  0.00000000000E+00  0.00000000000E+00  0.45593999997E+02  0.45594000000E+02  0.51100000000E-03 0.  1.
         11   -1    0    0    0    0 -0.00000000000E+00 -0.00000000000E+00 -0.45593999997E+02  0.45594000000E+02  0.51100000000E-03 0. -1.
    9900012    2    1    2    0    0 -0.13350315672E+02 -0.11453777070E+02  0.64232092292E+01  0.72461613415E+02  0.70000056172E+02 0.  0.
         12    1    1    2    0    0  0.13350315672E+02  0.11453777070E+02 -0.64232092292E+01  0.18726386585E+02  0.00000000000E+00 0. -1.
         11    1    3    3    0    0 -0.92388003626E+01  0.19812888714E+02 -0.51691535262E+01  0.22463885233E+02  0.51100000000E-03 0. -1.
        -11    1    3    3    0    0 -0.15268186732E+02 -0.11550651814E+00  0.61675446793E+01  0.16467224279E+02  0.51100000000E-03 0.  1.
        -12    1    3    3    0    0  0.11156671422E+02 -0.31151159266E+02  0.54248180761E+01  0.33530503903E+02  0.00000000000E+00 0.  1.
</event>
<event>
 7    1  0.2873608E-013  0.7246154E+02  0.7816164E-02  0.1226708E+00
        -11   -1    0    0    0    0  0.00000000000E+00  0.00000000000E+00  0.45593999997E+02  0.45594000000E+02  0.51100000000E-03 0. -1.
         11   -1    0    0    0    0 -0.00000000000E+00 -0.00000000000E+00 -0.45593999997E+02  0.45594000000E+02  0.51100000000E-03 0.  1.
    9900012    2    1    2    0    0  0.32979493272E+01 -0.64069800389E+01 -0.17284516417E+02  0.72461538221E+02  0.69999958219E+02 0.  0.
         12    1    1    2    0    0 -0.32979493272E+01  0.64069800389E+01  0.17284516417E+02  0.18726461779E+02  0.00000000000E+00 0. -1.
         11    1    3    3    0    0 -0.10282428151E+02  0.23245893875E+01 -0.25513797045E+02  0.27605903072E+02  0.51100000000E-03 0. -1.
        -11    1    3    3    0    0 -0.12738269003E+02  0.41163135332E+01 -0.25878042589E+01  0.13634671446E+02  0.51100000000E-03 0.  1.
         12    1    3    3    0    0  0.26318646481E+02 -0.12847882960E+02  0.10817084887E+02  0.31220963704E+02  0.00000000000E+00 0. -1.
</event>
<event>
 7    1  0.2873608E-013  0.7246155E+02  0.7816164E-02  0.1226708E+00
        -11   -1    0    0    0    0  0.00000000000E+00  0.00000000000E+00  0.45593999997E+02  0.45594000000E+02  0.51100000000E-03 0.  1.
         11   -1    0    0    0    0 -0.00000000000E+00 -0.00000000000E+00 -0.45593999997E+02  0.45594000000E+02  0.51100000000E-03 0. -1.
    9900012    2    1    2    0    0 -0.13313655984E+02 -0.72619969008E-01  0.13168953897E+02  0.72461546623E+02  0.69999969164E+02 0.  0.
         12    1    1    2    0    0  0.13313655984E+02  0.72619969008E-01 -0.13168953897E+02  0.18726453377E+02  0.00000000000E+00 0. -1.
         11    1    3    3    0    0 -0.92176492741E+01 -0.41579044172E+01  0.12466332086E+02  0.16051874134E+02  0.51100000000E-03 0.  1.
        -11    1    3    3    0    0  0.97331147683E+00  0.14588554577E+02  0.25281089589E+02  0.29204567295E+02  0.51100000000E-03 0. -1.
         12    1    3    3    0    0 -0.50693181871E+01 -0.10503270128E+02 -0.24578467778E+02  0.27205105193E+02  0.00000000000E+00 0. -1.
</event>
<event>
 7    1  0.2873608E-013  0.7246168E+02  0.7816164E-02  0.1226708E+00
        -11   -1    0    0    0    0  0.00000000000E+00  0.00000000000E+00  0.45593999997E+02  0.45594000000E+02  0.51100000000E-03 0. -1.
         11   -1    0    0    0    0 -0.00000000000E+00 -0.00000000000E+00 -0.45593999997E+02  0.45594000000E+02  0.51100000000E-03 0.  1.
    9900012    2    1    2    0    0 -0.20918400598E+01  0.26088325512E+01 -0.18425339161E+02  0.72461683616E+02  0.70000147622E+02 0.  0.
         12    1    1    2    0    0  0.20918400598E+01 -0.26088325512E+01  0.18425339161E+02  0.18726316384E+02  0.00000000000E+00 0. -1.
         11    1    3    3    0    0 -0.75476141062E+01 -0.19926945374E+01 -0.23862721932E+01  0.81628184750E+01  0.51100000000E-03 0. -1.
        -11    1    3    3    0    0  0.26364932933E+02 -0.15322092739E+01 -0.28777018239E+02  0.39058598706E+02  0.51100000000E-03 0.  1.
         12    1    3    3    0    0 -0.20909158887E+02  0.61337363624E+01  0.12737951271E+02  0.25240266435E+02  0.00000000000E+00 0. -1.
</event>
<event>
 7    1  0.2873608E-013  0.7246160E+02  0.7816164E-02  0.1226708E+00
        -11   -1    0    0    0    0  0.00000000000E+00  0.00000000000E+00  0.45593999997E+02  0.45594000000E+02  0.51100000000E-03 0.  1.
         11   -1    0    0    0    0 -0.00000000000E+00 -0.00000000000E+00 -0.45593999997E+02  0.45594000000E+02  0.51100000000E-03 0. -1.
    9900012    2    1    2    0    0 -0.15337710979E+02 -0.80174471668E+01  0.71521398467E+01  0.72461603082E+02  0.70000042712E+02 0.  0.
         12    1    1    2    0    0  0.15337710979E+02  0.80174471668E+01 -0.71521398467E+01  0.18726396918E+02  0.00000000000E+00 0. -1.
         11    1    3    3    0    0  0.46464122302E+01 -0.25484929332E+02 -0.17875898100E+02  0.31474092565E+02  0.51100000000E-03 0. -1.
        -11    1    3    3    0    0 -0.25247049242E+01 -0.38368102132E+01  0.57867158448E+01  0.73879177105E+01  0.51100000000E-03 0.  1.
        -12    1    3    3    0    0 -0.17459418285E+02  0.21304292378E+02  0.19241322102E+02  0.33599592807E+02  0.00000000000E+00 0.  1.
</event>
<event>
 7    1  0.2873608E-013  0.7246154E+02  0.7816164E-02  0.1226708E+00
        -11   -1    0    0    0    0  0.00000000000E+00  0.00000000000E+00  0.45593999997E+02  0.45594000000E+02  0.51100000000E-03 0. -1.
         11   -1    0    0    0    0 -0.00000000000E+00 -0.00000000000E+00 -0.45593999997E+02  0.45594000000E+02  0.51100000000E-03 0.  1.
    9900012    2    1    2    0    0  0.14471473405E+02 -0.52171246031E+01 -0.10678878611E+02  0.72461537974E+02  0.69999957896E+02 0.  0.
         12    1    1    2    0    0 -0.14471473405E+02  0.52171246031E+01  0.10678878611E+02  0.18726462026E+02  0.00000000000E+00 0. -1.
         11    1    3    3    0    0 -0.85442510866E+01  0.29631671985E+01  0.10479322777E+02  0.13841993809E+02  0.51100000000E-03 0. -1.
        -11    1    3    3    0    0  0.14503757086E+02 -0.23282254040E+02  0.43551444673E+01  0.27773901533E+02  0.51100000000E-03 0.  1.
        -12    1    3    3    0    0  0.85119674055E+01  0.15101962238E+02 -0.25513345856E+02  0.30845642631E+02  0.00000000000E+00 0.  1.
</event>
<event>
 7    1  0.2873608E-013  0.7246171E+02  0.7816164E-02  0.1226708E+00
        -11   -1    0    0    0    0  0.00000000000E+00  0.00000000000E+00  0.45593999997E+02  0.45594000000E+02  0.51100000000E-03 0.  1.
         11   -1    0    0    0    0 -0.00000000000E+00 -0.00000000000E+00 -0.45593999997E+02  0.45594000000E+02  0.51100000000E-03 0. -1.
    9900012    2    1    2    0    0  0.10006789359E+02 -0.96062299030E+01  0.12580081747E+02  0.72461709844E+02  0.70000181790E+02 0.  0.
         12    1    1    2    0    0 -0.10006789359E+02  0.96062299030E+01 -0.12580081747E+02  0.18726290156E+02  0.00000000000E+00 0. -1.
         11    1    3    3    0    0  0.25023584554E+02 -0.76363376246E+01 -0.21243808621E+01  0.26248931988E+02  0.51100000000E-03 0. -1.
        -11    1    3    3    0    0  0.58837207544E+01 -0.77499433110E+01  0.21407727015E+02  0.23515326225E+02  0.51100000000E-03 0.  1.
         12    1    3    3    0    0 -0.20900515949E+02  0.57800510327E+01 -0.67032644055E+01  0.22697451631E+02  0.00000000000E+00 0. -1.
</event>
<event>
 7    1  0.2873608E-013  0.7246155E+02  0.7816164E-02  0.1226708E+00
        -11   -1    0    0    0    0  0.00000000000E+00  0.00000000000E+00  0.45593999997E+02  0.45594000000E+02  0.51100000000E-03 0.  1.
         11   -1    0    0    0    0 -0.00000000000E+00 -0.00000000000E+00 -0.45593999997E+02  0.45594000000E+02  0.51100000000E-03 0. -1.
    9900012    2    1    2    0    0 -0.11805361916E+02 -0.32188142252E+01  0.14175780836E+02  0.72461545522E+02  0.69999967730E+02 0.  0.
         12    1    1    2    0    0  0.11805361916E+02  0.32188142252E+01 -0.14175780836E+02  0.18726454478E+02  0.00000000000E+00 0. -1.
         11    1    3    3    0    0 -0.36520625526E+01 -0.69439069655E+00  0.75794712999E+01  0.84420450588E+01  0.51100000000E-03 0. -1.
        -11    1    3    3    0    0 -0.34554158681E+02 -0.10344412083E+02  0.52764271699E+01  0.36453222456E+02  0.51100000000E-03 0.  1.
         12    1    3    3    0    0  0.26400859318E+02  0.78199885548E+01  0.13198823666E+01  0.27566278007E+02  0.00000000000E+00 0. -1.
</event>
<event>
 7    1  0.2873608E-013  0.7246159E+02  0.7816164E-02  0.1226708E+00
        -11   -1    0    0    0    0  0.00000000000E+00  0.00000000000E+00  0.45593999997E+02  0.45594000000E+02  0.51100000000E-03 0. -1.
         11   -1    0    0    0    0 -0.00000000000E+00 -0.00000000000E+00 -0.45593999997E+02  0.45594000000E+02  0.51100000000E-03 0.  1.
    9900012    2    1    2    0    0 -0.18676624674E+02  0.47156272218E-03  0.13646540428E+01  0.72461585765E+02  0.70000020154E+02 0.  0.
         12    1    1    2    0    0  0.18676624674E+02 -0.47156272218E-03 -0.13646540428E+01  0.18726414235E+02  0.00000000000E+00 0. -1.
         11    1    3    3    0    0 -0.16463789264E+02  0.20203431250E+02  0.27877331286E+01  0.26210807837E+02  0.51100000000E-03 0. -1.
        -11    1    3    3    0    0  0.40536721615E+01 -0.11857564796E+02  0.19321237607E+02  0.23029205887E+02  0.51100000000E-03 0.  1.
        -12    1    3    3    0    0 -0.62665075714E+01 -0.83453948915E+01 -0.20744316693E+02  0.23221572042E+02  0.00000000000E+00 0.  1.
</event>
<event>
 7    1  0.2873608E-013  0.7246156E+02  0.7816164E-02  0.1226708E+00
        -11   -1    0    0    0    0  0.00000000000E+00  0.00000000000E+00  0.45593999997E+02  0.45594000000E+02  0.51100000000E-03 0.  1.
         11   -1    0    0    0    0 -0.00000000000E+00 -0.00000000000E+00 -0.45593999997E+02  0.45594000000E+02  0.51100000000E-03 0. -1.
    9900012    2    1    2    0    0  0.47315380249E+01 -0.15277955193E+02  0.97404464440E+01  0.72461557094E+02  0.69999982805E+02 0.  0.
         12    1    1    2    0    0 -0.47315380249E+01  0.15277955193E+02 -0.97404464440E+01  0.18726442906E+02  0.00000000000E+00 0. -1.
         11    1    3    3    0    0 -0.12978408719E+02 -0.66718385265E+01  0.34044275989E+01  0.14984747236E+02  0.51100000000E-03 0. -1.
        -11    1    3    3    0    0  0.33607370663E+02 -0.18438517707E+02  0.26516153907E+01  0.38424801399E+02  0.51100000000E-03 0.  1.
         12    1    3    3    0    0 -0.15897423920E+02  0.98324010401E+01  0.36844034544E+01  0.19052008459E+02  0.00000000000E+00 0. -1.
</event>
<event>
 7    1  0.2873608E-013  0.7246128E+02  0.7816164E-02  0.1226709E+00
        -11   -1    0    0    0    0  0.00000000000E+00  0.00000000000E+00  0.45593999997E+02  0.45594000000E+02  0.51100000000E-03 0.  1.
         11   -1    0    0    0    0 -0.00000000000E+00 -0.00000000000E+00 -0.45593999997E+02  0.45594000000E+02  0.51100000000E-03 0. -1.
    9900012    2    1    2    0    0 -0.57419271443E+01 -0.15664455940E+02  0.85055926472E+01  0.72461280760E+02  0.69999622826E+02 0.  0.
         12    1    1    2    0    0  0.57419271443E+01  0.15664455940E+02 -0.85055926472E+01  0.18726719240E+02  0.00000000000E+00 0. -1.
         11    1    3    3    0    0  0.17831040531E+01  0.86104751579E+01  0.13952213387E+02  0.16491937459E+02  0.51100000000E-03 0. -1.
        -11    1    3    3    0    0 -0.20573158045E+02 -0.75500745497E+01  0.14960367108E+02  0.26534337036E+02  0.51100000000E-03 0.  1.
         12    1    3    3    0    0  0.13048126848E+02 -0.16724856548E+02 -0.20406987847E+02  0.29435006265E+02  0.00000000000E+00 0. -1.
</event>
<event>
 7    1  0.2873608E-013  0.7246156E+02  0.7816164E-02  0.1226708E+00
        -11   -1    0    0    0    0  0.00000000000E+00  0.00000000000E+00  0.45593999997E+02  0.45594000000E+02  0.51100000000E-03 0.  1.
         11   -1    0    0    0    0 -0.00000000000E+00 -0.00000000000E+00 -0.45593999997E+02  0.45594000000E+02  0.51100000000E-03 0. -1.
    9900012    2    1    2    0    0 -0.19439372040E+01  0.11793458211E+02  0.14415788207E+02  0.72461561522E+02  0.69999988573E+02 0.  0.
         12    1    1    2    0    0  0.19439372040E+01 -0.11793458211E+02 -0.14415788207E+02  0.18726438478E+02  0.00000000000E+00 0. -1.
         11    1    3    3    0    0  0.13897582274E+02  0.22433323149E+01  0.58956629234E+01  0.15262181184E+02  0.51100000000E-03 0. -1.
        -11    1    3    3    0    0  0.97557633027E+01 -0.73502305247E+01 -0.14419020172E+02  0.18897326514E+02  0.51100000000E-03 0.  1.
         12    1    3    3    0    0 -0.25597282780E+02  0.16900356421E+02  0.22939145456E+02  0.38302053824E+02  0.00000000000E+00 0. -1.
</event>
<event>
 7    1  0.2873608E-013  0.7246150E+02  0.7816164E-02  0.1226708E+00
        -11   -1    0    0    0    0  0.00000000000E+00  0.00000000000E+00  0.45593999997E+02  0.45594000000E+02  0.51100000000E-03 0.  1.
         11   -1    0    0    0    0 -0.00000000000E+00 -0.00000000000E+00 -0.45593999997E+02  0.45594000000E+02  0.51100000000E-03 0. -1.
    9900012    2    1    2    0    0 -0.18117358258E+02  0.19126667698E+00 -0.47335489504E+01  0.72461501693E+02  0.69999910634E+02 0.  0.
         12    1    1    2    0    0  0.18117358258E+02 -0.19126667698E+00  0.47335489504E+01  0.18726498307E+02  0.00000000000E+00 0. -1.
         11    1    3    3    0    0 -0.97887199537E+00  0.24384559839E+02 -0.15139024713E+02  0.28718548334E+02  0.51100000000E-03 0. -1.
        -11    1    3    3    0    0 -0.11584264374E+02  0.49442389485E+01  0.10434659328E+01  0.12638413717E+02  0.51100000000E-03 0.  1.
        -12    1    3    3    0    0 -0.55542218887E+01 -0.29137532110E+02  0.93620098299E+01  0.31104539642E+02  0.00000000000E+00 0.  1.
</event>
<event>
 7    1  0.2873608E-013  0.7246156E+02  0.7816164E-02  0.1226708E+00
        -11   -1    0    0    0    0  0.00000000000E+00  0.00000000000E+00  0.45593999997E+02  0.45594000000E+02  0.51100000000E-03 0.  1.
         11   -1    0    0    0    0 -0.00000000000E+00 -0.00000000000E+00 -0.45593999997E+02  0.45594000000E+02  0.51100000000E-03 0. -1.
    9900012    2    1    2    0    0  0.11718401779E+02  0.98714731973E+01  0.10766268389E+02  0.72461562582E+02  0.69999989954E+02 0.  0.
         12    1    1    2    0    0 -0.11718401779E+02 -0.98714731973E+01 -0.10766268389E+02  0.18726437418E+02  0.00000000000E+00 0. -1.
         11    1    3    3    0    0 -0.67263063572E+01  0.26896655982E+02  0.10660300986E+02  0.29703792984E+02  0.51100000000E-03 0. -1.
        -11    1    3    3    0    0  0.23260642800E+02 -0.17057785447E+01  0.82664130557E+01  0.24744711940E+02  0.51100000000E-03 0.  1.
        -12    1    3    3    0    0 -0.48159346643E+01 -0.15319404240E+02 -0.81604456524E+01  0.18013057659E+02  0.00000000000E+00 0.  1.
</event>
<event>
 7    1  0.2873608E-013  0.7246155E+02  0.7816164E-02  0.1226708E+00
        -11   -1    0    0    0    0  0.00000000000E+00  0.00000000000E+00  0.45593999997E+02  0.45594000000E+02  0.51100000000E-03 0.  1.
         11   -1    0    0    0    0 -0.00000000000E+00 -0.00000000000E+00 -0.45593999997E+02  0.45594000000E+02  0.51100000000E-03 0. -1.
    9900012    2    1    2    0    0  0.14890051434E+02  0.10722086755E+02  0.37420548512E+01  0.72461554779E+02  0.69999979789E+02 0.  0.
         12    1    1    2    0    0 -0.14890051434E+02 -0.10722086755E+02 -0.37420548512E+01  0.18726445221E+02  0.00000000000E+00 0. -1.
         11    1    3    3    0    0  0.11285041848E+02 -0.57744480675E+01 -0.70785651929E+01  0.14519039412E+02  0.51100000000E-03 0. -1.
        -11    1    3    3    0    0  0.27254340345E+02  0.11768102728E+02  0.15324000313E+02  0.33408266871E+02  0.51100000000E-03 0.  1.
         12    1    3    3    0    0 -0.23649330759E+02  0.47284320947E+01 -0.45033802685E+01  0.24534248496E+02  0.00000000000E+00 0. -1.
</event>
<event>
 7    1  0.2873608E-013  0.7246157E+02  0.7816164E-02  0.1226708E+00
        -11   -1    0    0    0    0  0.00000000000E+00  0.00000000000E+00  0.45593999997E+02  0.45594000000E+02  0.51100000000E-03 0.  1.
         11   -1    0    0    0    0 -0.00000000000E+00 -0.00000000000E+00 -0.45593999997E+02  0.45594000000E+02  0.51100000000E-03 0. -1.
    9900012    2    1    2    0    0 -0.14195589391E+01  0.18183765215E+02  0.42443941688E+01  0.72461565560E+02  0.69999993832E+02 0.  0.
         12    1    1    2    0    0  0.14195589391E+01 -0.18183765215E+02 -0.42443941688E+01  0.18726434440E+02  0.00000000000E+00 0. -1.
         11    1    3    3    0    0  0.13505108334E+02 -0.11573479026E+02  0.13571180443E+02  0.22372087671E+02  0.51100000000E-03 0. -1.
        -11    1    3    3    0    0  0.86652451958E+01  0.20510706710E+02 -0.10723288991E+02  0.24713649894E+02  0.51100000000E-03 0.  1.
         12    1    3    3    0    0 -0.23589912468E+02  0.92465375317E+01  0.13965027171E+01  0.25375827995E+02  0.00000000000E+00 0. -1.
</event>
<event>
 7    1  0.2873608E-013  0.7246158E+02  0.7816164E-02  0.1226708E+00
        -11   -1    0    0    0    0  0.00000000000E+00  0.00000000000E+00  0.45593999997E+02  0.45594000000E+02  0.51100000000E-03 0.  1.
         11   -1    0    0    0    0 -0.00000000000E+00 -0.00000000000E+00 -0.45593999997E+02  0.45594000000E+02  0.51100000000E-03 0. -1.
    9900012    2    1    2    0    0  0.43073224628E+01  0.14400407915E+01  0.18167337216E+02  0.72461577870E+02  0.70000009868E+02 0.  0.
         12    1    1    2    0    0 -0.43073224628E+01 -0.14400407915E+01 -0.18167337216E+02  0.18726422130E+02  0.00000000000E+00 0. -1.
         11    1    3    3    0    0 -0.51796037678E+01 -0.20382817312E+02 -0.48733850319E+01  0.21587899822E+02  0.51100000000E-03 0. -1.
        -11    1    3    3    0    0  0.11128150846E+02 -0.82819093800E+01  0.13227194948E+02  0.19167275516E+02  0.51100000000E-03 0.  1.
        -12    1    3    3    0    0 -0.16412246152E+01  0.30104767484E+02  0.98135272997E+01  0.31706402533E+02  0.00000000000E+00 0.  1.
</event>
<event>
 7    1  0.2873608E-013  0.7246165E+02  0.7816164E-02  0.1226708E+00
        -11   -1    0    0    0    0  0.00000000000E+00  0.00000000000E+00  0.45593999997E+02  0.45594000000E+02  0.51100000000E-03 0.  1.
         11   -1    0    0    0    0 -0.00000000000E+00 -0.00000000000E+00 -0.45593999997E+02  0.45594000000E+02  0.51100000000E-03 0. -1.
    9900012    2    1    2    0    0  0.29680727911E+01  0.14609581661E+02  0.11332564486E+02  0.72461645570E+02  0.70000098061E+02 0.  0.
         12    1    1    2    0    0 -0.29680727911E+01 -0.14609581661E+02 -0.11332564486E+02  0.18726354430E+02  0.00000000000E+00 0. -1.
         11    1    3    3    0    0  0.10673940196E+02  0.20866511119E+02 -0.12688093124E+02  0.26652054198E+02  0.51100000000E-03 0. -1.
        -11    1    3    3    0    0  0.52161183956E+01  0.13850185029E+02  0.12012287818E+02  0.19061232262E+02  0.51100000000E-03 0.  1.
        -12    1    3    3    0    0 -0.12921985801E+02 -0.20107114487E+02  0.12008369792E+02  0.26748359110E+02  0.00000000000E+00 0.  1.
</event>
<event>
 7    1  0.2873608E-013  0.7246157E+02  0.7816164E-02  0.1226708E+00
        -11   -1    0    0    0    0  0.00000000000E+00  0.00000000000E+00  0.45593999997E+02  0.45594000000E+02  0.51100000000E-03 0.  1.
         11   -1    0    0    0    0 -0.00000000000E+00 -0.00000000000E+00 -0.45593999997E+02  0.45594000000E+02  0.51100000000E-03 0. -1.
    9900012    2    1    2    0    0  0.75975489771E+01 -0.59193893541E+01  0.16059799697E+02  0.72461572495E+02  0.70000002867E+02 0.  0.
         12    1    1    2    0    0 -0.75975489771E+01  0.59193893541E+01 -0.16059799697E+02  0.18726427505E+02  0.00000000000E+00 0. -1.
         11    1    3    3    0    0 -0.63787711817E+01  0.19492146292E+02  0.30334692937E+01  0.20732448603E+02  0.51100000000E-03 0. -1.
        -11    1    3    3    0    0 -0.11295415033E+02  0.32202787594E+01  0.46453940023E+01  0.12630767267E+02  0.51100000000E-03 0.  1.
        -12    1    3    3    0    0  0.25271735192E+02 -0.28631814406E+02  0.83809364009E+01  0.39098356625E+02  0.00000000000E+00 0.  1.
</event>
<event>
 7    1  0.2873608E-013  0.7246156E+02  0.7816164E-02  0.1226708E+00
        -11   -1    0    0    0    0  0.00000000000E+00  0.00000000000E+00  0.45593999997E+02  0.45594000000E+02  0.51100000000E-03 0.  1.
         11   -1    0    0    0    0 -0.00000000000E+00 -0.00000000000E+00 -0.45593999997E+02  0.45594000000E+02  0.51100000000E-03 0. -1.
    9900012    2    1    2    0    0 -0.16734003160E+02  0.62663702412E+01  0.56022445925E+01  0.72461564081E+02  0.69999991906E+02 0.  0.
         12    1    1    2    0    0  0.16734003160E+02 -0.62663702412E+01 -0.56022445925E+01  0.18726435919E+02  0.00000000000E+00 0. -1.
         11    1    3    3    0    0  0.13093515091E+02 -0.24012199828E+01 -0.40004323675E+01  0.13899980368E+02  0.51100000000E-03 0. -1.
        -11    1    3    3    0    0 -0.16645468108E+02 -0.16062461374E+02  0.17996206998E+02  0.29307639627E+02  0.51100000000E-03 0.  1.
         12    1    3    3    0    0 -0.13182050144E+02  0.24730051598E+02 -0.83935300382E+01  0.29253944085E+02  0.00000000000E+00 0. -1.
</event>
<event>
 7    1  0.2873608E-013  0.7246160E+02  0.7816164E-02  0.1226708E+00
        -11   -1    0    0    0    0  0.00000000000E+00  0.00000000000E+00  0.45593999997E+02  0.45594000000E+02  0.51100000000E-03 0.  1.
         11   -1    0    0    0    0 -0.00000000000E+00 -0.00000000000E+00 -0.45593999997E+02  0.45594000000E+02  0.51100000000E-03 0. -1.
    9900012    2    1    2    0    0  0.37115811176E+01  0.18010440594E+02 -0.35392466482E+01  0.72461599608E+02  0.70000038187E+02 0.  0.
         12    1    1    2    0    0 -0.37115811176E+01 -0.18010440594E+02  0.35392466482E+01  0.18726400392E+02  0.00000000000E+00 0. -1.
         11    1    3    3    0    0  0.23761177941E+01 -0.17602184801E+02 -0.17981654292E+01  0.17852625709E+02  0.51100000000E-03 0. -1.
        -11    1    3    3    0    0  0.94118411370E+01  0.76721292068E+00 -0.13922219034E+02  0.16822590536E+02  0.51100000000E-03 0.  1.
        -12    1    3    3    0    0 -0.80763778134E+01  0.34845412475E+02  0.12181137816E+02  0.37786383362E+02  0.00000000000E+00 0.  1.
</event>
<event>
 7    1  0.2873608E-013  0.7246158E+02  0.7816164E-02  0.1226708E+00
        -11   -1    0    0    0    0  0.00000000000E+00  0.00000000000E+00  0.45593999997E+02  0.45594000000E+02  0.51100000000E-03 0.  1.
         11   -1    0    0    0    0 -0.00000000000E+00 -0.00000000000E+00 -0.45593999997E+02  0.45594000000E+02  0.51100000000E-03 0. -1.
    9900012    2    1    2    0    0 -0.58804476955E+01 -0.10765373830E+02  0.14149413601E+02  0.72461578984E+02  0.70000011320E+02 0.  0.
         12    1    1    2    0    0  0.58804476955E+01  0.10765373830E+02 -0.14149413601E+02  0.18726421016E+02  0.00000000000E+00 0. -1.
         11    1    3    3    0    0  0.17523547076E+01 -0.20456914992E+02  0.75736653305E+01  0.21884161506E+02  0.51100000000E-03 0. -1.
        -11    1    3    3    0    0  0.46148244073E+01  0.14502931645E+02  0.24196799146E+02  0.28585253537E+02  0.51100000000E-03 0.  1.
         12    1    3    3    0    0 -0.12247626810E+02 -0.48113904831E+01 -0.17621050876E+02  0.21992163941E+02  0.00000000000E+00 0. -1.
</event>
<event>
 7    1  0.2873608E-013  0.7246159E+02  0.7816164E-02  0.1226708E+00
        -11   -1    0    0    0    0  0.00000000000E+00  0.00000000000E+00  0.45593999997E+02  0.45594000000E+02  0.51100000000E-03 0.  1.
         11   -1    0    0    0    0 -0.00000000000E+00 -0.00000000000E+00 -0.45593999997E+02  0.45594000000E+02  0.51100000000E-03 0. -1.
    9900012    2    1    2    0    0 -0.47275823039E+01  0.17558847759E+02  0.44738604795E+01  0.72461585590E+02  0.70000019926E+02 0.  0.
         12    1    1    2    0    0  0.47275823039E+01 -0.17558847759E+02 -0.44738604795E+01  0.18726414410E+02  0.00000000000E+00 0. -1.
         11    1    3    3    0    0 -0.11894817132E+02  0.28451052282E+01 -0.10701855914E+02  0.16251492812E+02  0.51100000000E-03 0. -1.
        -11    1    3    3    0    0 -0.15272673716E+02  0.23430807388E+02  0.41577705429E+00  0.27971953241E+02  0.51100000000E-03 0.  1.
         12    1    3    3    0    0  0.22439908545E+02 -0.87170648569E+01  0.14759939339E+02  0.28238139537E+02  0.00000000000E+00 0. -1.
</event>
<event>
 7    1  0.2873608E-013  0.7246112E+02  0.7816164E-02  0.1226709E+00
        -11   -1    0    0    0    0  0.00000000000E+00  0.00000000000E+00  0.45593999997E+02  0.45594000000E+02  0.51100000000E-03 0.  1.
         11   -1    0    0    0    0 -0.00000000000E+00 -0.00000000000E+00 -0.45593999997E+02  0.45594000000E+02  0.51100000000E-03 0. -1.
    9900012    2    1    2    0    0  0.11956722889E+02  0.56341912315E+01  0.13266067702E+02  0.72461123983E+02  0.69999418594E+02 0.  0.
         12    1    1    2    0    0 -0.11956722889E+02 -0.56341912315E+01 -0.13266067702E+02  0.18726876017E+02  0.00000000000E+00 0. -1.
         11    1    3    3    0    0 -0.16905675511E+02 -0.65192643105E+00  0.16958579729E+02  0.23954546526E+02  0.51100000000E-03 0. -1.
        -11    1    3    3    0    0  0.13416106871E+02  0.91037036239E+01  0.16363582873E+02  0.23035541842E+02  0.51100000000E-03 0.  1.
         12    1    3    3    0    0  0.15446291530E+02 -0.28175859613E+01 -0.20056094900E+02  0.25471035615E+02  0.00000000000E+00 0. -1.
</event>
<event>
 7    1  0.2873608E-013  0.7246155E+02  0.7816164E-02  0.1226708E+00
        -11   -1    0    0    0    0  0.00000000000E+00  0.00000000000E+00  0.45593999997E+02  0.45594000000E+02  0.51100000000E-03 0.  1.
         11   -1    0    0    0    0 -0.00000000000E+00 -0.00000000000E+00 -0.45593999997E+02  0.45594000000E+02  0.51100000000E-03 0. -1.
    9900012    2    1    2    0    0 -0.12555721648E+02  0.11943634024E+02  0.70981278829E+01  0.72461549208E+02  0.69999972531E+02 0.  0.
         12    1    1    2    0    0  0.12555721648E+02 -0.11943634024E+02 -0.70981278829E+01  0.18726450792E+02  0.00000000000E+00 0. -1.
         11    1    3    3    0    0  0.22819576987E+01  0.50157462063E+00  0.13367100493E+02  0.13569756221E+02  0.51100000000E-03 0. -1.
        -11    1    3    3    0    0 -0.64836051583E+01  0.14131286192E+02  0.23320556717E+02  0.28028177806E+02  0.51100000000E-03 0.  1.
         12    1    3    3    0    0 -0.83540741888E+01 -0.26892267883E+01 -0.29589529327E+02  0.30863615181E+02  0.00000000000E+00 0. -1.
</event>
<event>
 7    1  0.2873608E-013  0.7246161E+02  0.7816164E-02  0.1226708E+00
        -11   -1    0    0    0    0  0.00000000000E+00  0.00000000000E+00  0.45593999997E+02  0.45594000000E+02  0.51100000000E-03 0.  1.
         11   -1    0    0    0    0 -0.00000000000E+00 -0.00000000000E+00 -0.45593999997E+02  0.45594000000E+02  0.51100000000E-03 0. -1.
    9900012    2    1    2    0    0  0.47874420071E+01  0.99269212375E+01  0.15139828707E+02  0.72461607408E+02  0.70000048347E+02 0.  0.
         12    1    1    2    0    0 -0.47874420071E+01 -0.99269212375E+01 -0.15139828707E+02  0.18726392592E+02  0.00000000000E+00 0. -1.
         11    1    3    3    0    0 -0.32672838798E+01 -0.97895618083E-01 -0.14791547379E+01  0.35878442696E+01  0.51100000000E-03 0. -1.
        -11    1    3    3    0    0 -0.18689056308E+02  0.26382019300E+02  0.18885176423E+02  0.37442511358E+02  0.51100000000E-03 0.  1.
         12    1    3    3    0    0  0.26743782195E+02 -0.16357202444E+02 -0.22661929777E+01  0.31431251781E+02  0.00000000000E+00 0. -1.
</event>
<event>
 7    1  0.2873608E-013  0.7246157E+02  0.7816164E-02  0.1226708E+00
        -11   -1    0    0    0    0  0.00000000000E+00  0.00000000000E+00  0.45593999997E+02  0.45594000000E+02  0.51100000000E-03 0. -1.
         11   -1    0    0    0    0 -0.00000000000E+00 -0.00000000000E+00 -0.45593999997E+02  0.45594000000E+02  0.51100000000E-03 0.  1.
    9900012    2    1    2    0    0 -0.54550225162E+01 -0.17197679734E+02 -0.50161400856E+01  0.72461571610E+02  0.70000001714E+02 0.  0.
         12    1    1    2    0    0  0.54550225162E+01  0.17197679734E+02  0.50161400856E+01  0.18726428390E+02  0.00000000000E+00 0. -1.
         11    1    3    3    0    0  0.83881881490E+01  0.15275618946E+02 -0.84474328466E+01  0.19366604157E+02  0.51100000000E-03 0. -1.
        -11    1    3    3    0    0  0.42477791488E+01 -0.11544838132E+02  0.18021263331E+02  0.21819551955E+02  0.51100000000E-03 0.  1.
        -12    1    3    3    0    0 -0.18090989814E+02 -0.20928460548E+02 -0.14589970570E+02  0.31275415499E+02  0.00000000000E+00 0.  1.
</event>
<event>
 7    1  0.2873608E-013  0.7246161E+02  0.7816164E-02  0.1226708E+00
        -11   -1    0    0    0    0  0.00000000000E+00  0.00000000000E+00  0.45593999997E+02  0.45594000000E+02  0.51100000000E-03 0.  1.
         11   -1    0    0    0    0 -0.00000000000E+00 -0.00000000000E+00 -0.45593999997E+02  0.45594000000E+02  0.51100000000E-03 0. -1.
    9900012    2    1    2    0    0 -0.96985763722E+01 -0.43842205206E+01 -0.15407595842E+02  0.72461607319E+02  0.70000048232E+02 0.  0.
         12    1    1    2    0    0  0.96985763722E+01  0.43842205206E+01  0.15407595842E+02  0.18726392681E+02  0.00000000000E+00 0. -1.
         11    1    3    3    0    0 -0.46008181469E+00  0.18915521422E+00 -0.18234096927E+02  0.18240881173E+02  0.51100000000E-03 0. -1.
        -11    1    3    3    0    0 -0.24168983898E+02 -0.77417121279E+01 -0.15987220829E+02  0.29994418138E+02  0.51100000000E-03 0.  1.
        -12    1    3    3    0    0  0.14930489340E+02  0.31683363931E+01  0.18813721914E+02  0.24226308008E+02  0.00000000000E+00 0.  1.
</event>
<event>
 7    1  0.2873608E-013  0.7246147E+02  0.7816164E-02  0.1226708E+00
        -11   -1    0    0    0    0  0.00000000000E+00  0.00000000000E+00  0.45593999997E+02  0.45594000000E+02  0.51100000000E-03 0.  1.
         11   -1    0    0    0    0 -0.00000000000E+00 -0.00000000000E+00 -0.45593999997E+02  0.45594000000E+02  0.51100000000E-03 0. -1.
    9900012    2    1    2    0    0 -0.17717823889E+02  0.50168429160E+00 -0.60423490741E+01  0.72461469279E+02  0.69999868409E+02 0.  0.
         12    1    1    2    0    0  0.17717823889E+02 -0.50168429160E+00  0.60423490741E+01  0.18726530721E+02  0.00000000000E+00 0. -1.
         11    1    3    3    0    0 -0.26058343705E+02 -0.12252359238E+02 -0.12150075846E+02  0.31253510633E+02  0.51100000000E-03 0. -1.
        -11    1    3    3    0    0  0.10999302678E+02 -0.36850593524E+01 -0.11942792333E+02  0.16649162466E+02  0.51100000000E-03 0.  1.
         12    1    3    3    0    0 -0.26587828618E+01  0.16439102882E+02  0.18050519105E+02  0.24558796181E+02  0.00000000000E+00 0. -1.
</event>
<event>
 7    1  0.2873608E-013  0.7246156E+02  0.7816164E-02  0.1226708E+00
        -11   -1    0    0    0    0  0.00000000000E+00  0.00000000000E+00  0.45593999997E+02  0.45594000000E+02  0.51100000000E-03 0.  1.
         11   -1    0    0    0    0 -0.00000000000E+00 -0.00000000000E+00 -0.45593999997E+02  0.45594000000E+02  0.51100000000E-03 0. -1.
    9900012    2    1    2    0    0  0.46515576404E+01  0.10020585121E+02  0.15120531373E+02  0.72461559237E+02  0.69999985596E+02 0.  0.
         12    1    1    2    0    0 -0.46515576404E+01 -0.10020585121E+02 -0.15120531373E+02  0.18726440763E+02  0.00000000000E+00 0. -1.
         11    1    3    3    0    0  0.23177317270E+02  0.74549658909E+01  0.33507053440E+01  0.24576244197E+02  0.51100000000E-03 0. -1.
        -11    1    3    3    0    0 -0.18818171940E+01 -0.17092992780E+02 -0.40370833061E+01  0.17663795742E+02  0.51100000000E-03 0.  1.
        -12    1    3    3    0    0 -0.16643942436E+02  0.19658612010E+02  0.15806909335E+02  0.30221519298E+02  0.00000000000E+00 0.  1.
</event>
<event>
 7    1  0.2873608E-013  0.7246150E+02  0.7816164E-02  0.1226708E+00
        -11   -1    0    0    0    0  0.00000000000E+00  0.00000000000E+00  0.45593999997E+02  0.45594000000E+02  0.51100000000E-03 0.  1.
         11   -1    0    0    0    0 -0.00000000000E+00 -0.00000000000E+00 -0.45593999997E+02  0.45594000000E+02  0.51100000000E-03 0. -1.
    9900012    2    1    2    0    0  0.22248432049E+01 -0.79624704766E+01  0.16802708925E+02  0.72461497641E+02  0.69999905355E+02 0.  0.
         12    1    1    2    0    0 -0.22248432049E+01  0.79624704766E+01 -0.16802708925E+02  0.18726502359E+02  0.00000000000E+00 0. -1.
         11    1    3    3    0    0 -0.90117449851E+01 -0.91525301316E+01  0.34028307874E+01  0.13287573635E+02  0.51100000000E-03 0. -1.
        -11    1    3    3    0    0 -0.19450839530E+02 -0.11951094600E+01  0.19749993249E+02  0.27745732621E+02  0.51100000000E-03 0.  1.
         12    1    3    3    0    0  0.30687427720E+02  0.23851691150E+01 -0.63501151114E+01  0.31428191385E+02  0.00000000000E+00 0. -1.
</event>
<event>
 7    1  0.2873608E-013  0.7246154E+02  0.7816164E-02  0.1226708E+00
        -11   -1    0    0    0    0  0.00000000000E+00  0.00000000000E+00  0.45593999997E+02  0.45594000000E+02  0.51100000000E-03 0. -1.
         11   -1    0    0    0    0 -0.00000000000E+00 -0.00000000000E+00 -0.45593999997E+02  0.45594000000E+02  0.51100000000E-03 0.  1.
    9900012    2    1    2    0    0  0.15031020111E+02 -0.11165220950E+02 -0.29420988101E+00  0.72461540541E+02  0.69999961240E+02 0.  0.
         12    1    1    2    0    0 -0.15031020111E+02  0.11165220950E+02  0.29420988101E+00  0.18726459459E+02  0.00000000000E+00 0. -1.
         11    1    3    3    0    0  0.32447363225E+02 -0.10211361472E+02 -0.65812969166E+01  0.34647030937E+02  0.51100000000E-03 0. -1.
        -11    1    3    3    0    0  0.80059189358E+01  0.66183333166E+01 -0.61401421825E+00  0.10405483536E+02  0.51100000000E-03 0.  1.
        -12    1    3    3    0    0 -0.25422262050E+02 -0.75721927938E+01  0.69011012538E+01  0.27409026067E+02  0.00000000000E+00 0.  1.
</event>
<event>
 7    1  0.2873608E-013  0.7246160E+02  0.7816164E-02  0.1226708E+00
        -11   -1    0    0    0    0  0.00000000000E+00  0.00000000000E+00  0.45593999997E+02  0.45594000000E+02  0.51100000000E-03 0. -1.
         11   -1    0    0    0    0 -0.00000000000E+00 -0.00000000000E+00 -0.45593999997E+02  0.45594000000E+02  0.51100000000E-03 0.  1.
    9900012    2    1    2    0    0  0.60741802749E+01 -0.34599514352E+01 -0.17372717438E+02  0.72461595082E+02  0.70000032291E+02 0.  0.
         12    1    1    2    0    0 -0.60741802749E+01  0.34599514352E+01  0.17372717438E+02  0.18726404918E+02  0.00000000000E+00 0. -1.
         11    1    3    3    0    0 -0.64742608194E+01  0.11130703604E+02 -0.64756356671E+00  0.12892942051E+02  0.51100000000E-03 0. -1.
        -11    1    3    3    0    0 -0.16742011050E+02 -0.13106930998E+02 -0.21054436437E+02  0.29922831886E+02  0.51100000000E-03 0.  1.
         12    1    3    3    0    0  0.29290452144E+02 -0.14837240421E+01  0.43292825652E+01  0.29645821145E+02  0.00000000000E+00 0. -1.
</event>
<event>
 7    1  0.2873608E-013  0.7246153E+02  0.7816164E-02  0.1226708E+00
        -11   -1    0    0    0    0  0.00000000000E+00  0.00000000000E+00  0.45593999997E+02  0.45594000000E+02  0.51100000000E-03 0. -1.
         11   -1    0    0    0    0 -0.00000000000E+00 -0.00000000000E+00 -0.45593999997E+02  0.45594000000E+02  0.51100000000E-03 0.  1.
    9900012    2    1    2    0    0 -0.18897695291E+01  0.16117455077E+02 -0.93454412783E+01  0.72461525165E+02  0.69999941211E+02 0.  0.
         12    1    1    2    0    0  0.18897695291E+01 -0.16117455077E+02  0.93454412783E+01  0.18726474835E+02  0.00000000000E+00 0. -1.
         11    1    3    3    0    0  0.11161187611E+02  0.80955387425E+01 -0.99087897776E+01  0.16979221759E+02  0.51100000000E-03 0.  1.
        -11    1    3    3    0    0 -0.11085353472E+02  0.24338559341E+02 -0.16793197638E+02  0.31579455656E+02  0.51100000000E-03 0. -1.
         12    1    3    3    0    0 -0.19656036678E+01 -0.16316643006E+02  0.17356546137E+02  0.23902847750E+02  0.00000000000E+00 0. -1.
</event>
<event>
 7    1  0.2873608E-013  0.7246158E+02  0.7816164E-02  0.1226708E+00
        -11   -1    0    0    0    0  0.00000000000E+00  0.00000000000E+00  0.45593999997E+02  0.45594000000E+02  0.51100000000E-03 0. -1.
         11   -1    0    0    0    0 -0.00000000000E+00 -0.00000000000E+00 -0.45593999997E+02  0.45594000000E+02  0.51100000000E-03 0.  1.
    9900012    2    1    2    0    0 -0.82528814850E+01 -0.47131111837E+01 -0.16135530606E+02  0.72461579686E+02  0.70000012234E+02 0.  0.
         12    1    1    2    0    0  0.82528814850E+01  0.47131111837E+01  0.16135530606E+02  0.18726420314E+02  0.00000000000E+00 0. -1.
         11    1    3    3    0    0  0.67296314822E+01  0.19091585384E+02 -0.23546532528E+01  0.20379425030E+02  0.51100000000E-03 0. -1.
        -11    1    3    3    0    0 -0.96997602126E+01  0.66186116425E+01 -0.17400566711E+02  0.20992167358E+02  0.51100000000E-03 0.  1.
         12    1    3    3    0    0 -0.52827527546E+01 -0.30423308210E+02  0.36196893579E+01  0.31089987298E+02  0.00000000000E+00 0. -1.
</event>
<event>
 7    1  0.2873608E-013  0.7246146E+02  0.7816164E-02  0.1226708E+00
        -11   -1    0    0    0    0  0.00000000000E+00  0.00000000000E+00  0.45593999997E+02  0.45594000000E+02  0.51100000000E-03 0.  1.
         11   -1    0    0    0    0 -0.00000000000E+00 -0.00000000000E+00 -0.45593999997E+02  0.45594000000E+02  0.51100000000E-03 0. -1.
    9900012    2    1    2    0    0 -0.27754509127E+01 -0.17775027956E+02  0.51988956295E+01  0.72461461014E+02  0.69999857642E+02 0.  0.
         12    1    1    2    0    0  0.27754509127E+01  0.17775027956E+02 -0.51988956295E+01  0.18726538986E+02  0.00000000000E+00 0. -1.
         11    1    3    3    0    0  0.15060945724E+02  0.20142347193E+01 -0.28405915584E+01  0.15458272486E+02  0.51100000000E-03 0. -1.
        -11    1    3    3    0    0  0.13320083378E+02 -0.15271622573E+02 -0.78580701150E+01  0.21734680661E+02  0.51100000000E-03 0.  1.
        -12    1    3    3    0    0 -0.31156480015E+02 -0.45176401025E+01  0.15897557303E+02  0.35268507867E+02  0.00000000000E+00 0.  1.
</event>
<event>
 7    1  0.2873608E-013  0.7246158E+02  0.7816164E-02  0.1226708E+00
        -11   -1    0    0    0    0  0.00000000000E+00  0.00000000000E+00  0.45593999997E+02  0.45594000000E+02  0.51100000000E-03 0. -1.
         11   -1    0    0    0    0 -0.00000000000E+00 -0.00000000000E+00 -0.45593999997E+02  0.45594000000E+02  0.51100000000E-03 0.  1.
    9900012    2    1    2    0    0  0.12221969751E+02  0.37218892194E+01 -0.13691227999E+02  0.72461582081E+02  0.70000015354E+02 0.  0.
         12    1    1    2    0    0 -0.12221969751E+02 -0.37218892194E+01  0.13691227999E+02  0.18726417919E+02  0.00000000000E+00 0. -1.
         11    1    3    3    0    0  0.95017158737E+01 -0.13156212170E+02 -0.91306983660E+01  0.18620906963E+02  0.51100000000E-03 0. -1.
        -11    1    3    3    0    0 -0.24014710551E+02  0.69563222346E+01 -0.39899693939E+01  0.25318305589E+02  0.51100000000E-03 0.  1.
         12    1    3    3    0    0  0.26734964428E+02  0.99217791545E+01 -0.57056023938E+00  0.28522369529E+02  0.00000000000E+00 0. -1.
</event>
<event>
 7    1  0.2873608E-013  0.7246152E+02  0.7816164E-02  0.1226708E+00
        -11   -1    0    0    0    0  0.00000000000E+00  0.00000000000E+00  0.45593999997E+02  0.45594000000E+02  0.51100000000E-03 0.  1.
         11   -1    0    0    0    0 -0.00000000000E+00 -0.00000000000E+00 -0.45593999997E+02  0.45594000000E+02  0.51100000000E-03 0. -1.
    9900012    2    1    2    0    0 -0.15366397142E+02  0.64858780062E+00  0.10683354804E+02  0.72461524167E+02  0.69999939910E+02 0.  0.
         12    1    1    2    0    0  0.15366397142E+02 -0.64858780062E+00 -0.10683354804E+02  0.18726475833E+02  0.00000000000E+00 0. -1.
         11    1    3    3    0    0 -0.64422068355E+01  0.16042842350E+02  0.29650420332E+01  0.17540418869E+02  0.51100000000E-03 0. -1.
        -11    1    3    3    0    0  0.11175154383E+02  0.13232648025E+02  0.97645210560E+01  0.19882980686E+02  0.51100000000E-03 0.  1.
         12    1    3    3    0    0 -0.20099344690E+02 -0.28626902574E+02 -0.20462082848E+01  0.35038124612E+02  0.00000000000E+00 0. -1.
</event>
<event>
 7    1  0.2873608E-013  0.7246157E+02  0.7816164E-02  0.1226708E+00
        -11   -1    0    0    0    0  0.00000000000E+00  0.00000000000E+00  0.45593999997E+02  0.45594000000E+02  0.51100000000E-03 0. -1.
         11   -1    0    0    0    0 -0.00000000000E+00 -0.00000000000E+00 -0.45593999997E+02  0.45594000000E+02  0.51100000000E-03 0.  1.
    9900012    2    1    2    0    0  0.44377885516E+01 -0.15019605874E+02  0.10266281558E+02  0.72461573089E+02  0.70000003640E+02 0.  0.
         12    1    1    2    0    0 -0.44377885516E+01  0.15019605874E+02 -0.10266281558E+02  0.18726426911E+02  0.00000000000E+00 0. -1.
         11    1    3    3    0    0 -0.54996942164E+01 -0.52892593656E+01 -0.34479916890E+01  0.83732638833E+01  0.51100000000E-03 0. -1.
        -11    1    3    3    0    0  0.25717889255E+01 -0.21900008724E+02 -0.18557649063E+02  0.28820319558E+02  0.51100000000E-03 0.  1.
        -12    1    3    3    0    0  0.73656938425E+01  0.12169662216E+02  0.32271922310E+02  0.35267989648E+02  0.00000000000E+00 0.  1.
</event>
<event>
 7    1  0.2873608E-013  0.7246116E+02  0.7816164E-02  0.1226709E+00
        -11   -1    0    0    0    0  0.00000000000E+00  0.00000000000E+00  0.45593999997E+02  0.45594000000E+02  0.51100000000E-03 0.  1.
         11   -1    0    0    0    0 -0.00000000000E+00 -0.00000000000E+00 -0.45593999997E+02  0.45594000000E+02  0.51100000000E-03 0. -1.
    9900012    2    1    2    0    0  0.48984706542E+01 -0.55208936626E+01  0.17211023944E+02  0.72461157586E+02  0.69999462369E+02 0.  0.
         12    1    1    2    0    0 -0.48984706542E+01  0.55208936626E+01 -0.17211023944E+02  0.18726842414E+02  0.00000000000E+00 0. -1.
         11    1    3    3    0    0  0.25317851886E+02 -0.19238749873E+02  0.24357716411E+01  0.31891317071E+02  0.51100000000E-03 0. -1.
        -11    1    3    3    0    0  0.28970477686E+01  0.73749244459E+01  0.14361758323E+02  0.16402515012E+02  0.51100000000E-03 0.  1.
         12    1    3    3    0    0 -0.23316429000E+02  0.63429317644E+01  0.41349398092E+00  0.24167325503E+02  0.00000000000E+00 0. -1.
</event>
<event>
 7    1  0.2873608E-013  0.7246153E+02  0.7816164E-02  0.1226708E+00
        -11   -1    0    0    0    0  0.00000000000E+00  0.00000000000E+00  0.45593999997E+02  0.45594000000E+02  0.51100000000E-03 0.  1.
         11   -1    0    0    0    0 -0.00000000000E+00 -0.00000000000E+00 -0.45593999997E+02  0.45594000000E+02  0.51100000000E-03 0. -1.
    9900012    2    1    2    0    0  0.18230547143E+02  0.34190816565E+01  0.25763804769E+01  0.72461529300E+02  0.69999946598E+02 0.  0.
         12    1    1    2    0    0 -0.18230547143E+02 -0.34190816565E+01 -0.25763804769E+01  0.18726470700E+02  0.00000000000E+00 0. -1.
         11    1    3    3    0    0 -0.11449931420E+02 -0.90238263845E+01  0.94044710186E+01  0.17348615148E+02  0.51100000000E-03 0. -1.
        -11    1    3    3    0    0 -0.92084910513E+01  0.84254262421E+01 -0.98506759974E+01  0.15900312345E+02  0.51100000000E-03 0.  1.
         12    1    3    3    0    0  0.38888969614E+02  0.40174817988E+01  0.30225854558E+01  0.39212601807E+02  0.00000000000E+00 0. -1.
</event>
<event>
 7    1  0.2873608E-013  0.7246153E+02  0.7816164E-02  0.1226708E+00
        -11   -1    0    0    0    0  0.00000000000E+00  0.00000000000E+00  0.45593999997E+02  0.45594000000E+02  0.51100000000E-03 0.  1.
         11   -1    0    0    0    0 -0.00000000000E+00 -0.00000000000E+00 -0.45593999997E+02  0.45594000000E+02  0.51100000000E-03 0. -1.
    9900012    2    1    2    0    0  0.67114245680E+01  0.14676839621E+02  0.94988384302E+01  0.72461527494E+02  0.69999944245E+02 0.  0.
         12    1    1    2    0    0 -0.67114245680E+01 -0.14676839621E+02 -0.94988384302E+01  0.18726472506E+02  0.00000000000E+00 0. -1.
         11    1    3    3    0    0  0.52642266029E+01  0.13247855115E+02 -0.29703520975E+01  0.14561618685E+02  0.51100000000E-03 0. -1.
        -11    1    3    3    0    0  0.16118534217E+02 -0.17618625699E+02 -0.91442952295E+01  0.25570319754E+02  0.51100000000E-03 0.  1.
         12    1    3    3    0    0 -0.14671336252E+02  0.19047610204E+02  0.21613485757E+02  0.32329589055E+02  0.00000000000E+00 0. -1.
</event>
<event>
 7    1  0.2873608E-013  0.7246158E+02  0.7816164E-02  0.1226708E+00
        -11   -1    0    0    0    0  0.00000000000E+00  0.00000000000E+00  0.45593999997E+02  0.45594000000E+02  0.51100000000E-03 0. -1.
         11   -1    0    0    0    0 -0.00000000000E+00 -0.00000000000E+00 -0.45593999997E+02  0.45594000000E+02  0.51100000000E-03 0.  1.
    9900012    2    1    2    0    0  0.14261526864E+01 -0.17500282101E+02 -0.65103805276E+01  0.72461579101E+02  0.70000011472E+02 0.  0.
         12    1    1    2    0    0 -0.14261526864E+01  0.17500282101E+02  0.65103805276E+01  0.18726420899E+02  0.00000000000E+00 0. -1.
         11    1    3    3    0    0  0.12542030344E+02 -0.30054721621E+02  0.18057353413E+02  0.37237841364E+02  0.51100000000E-03 0. -1.
        -11    1    3    3    0    0 -0.12697314245E+02  0.57916669344E+00 -0.15901961411E+02  0.20357544058E+02  0.51100000000E-03 0.  1.
        -12    1    3    3    0    0  0.15814365876E+01  0.11975272827E+02 -0.86657725299E+01  0.14866193679E+02  0.00000000000E+00 0.  1.
</event>
<event>
 7    1  0.2873608E-013  0.7246164E+02  0.7816164E-02  0.1226708E+00
        -11   -1    0    0    0    0  0.00000000000E+00  0.00000000000E+00  0.45593999997E+02  0.45594000000E+02  0.51100000000E-03 0.  1.
         11   -1    0    0    0    0 -0.00000000000E+00 -0.00000000000E+00 -0.45593999997E+02  0.45594000000E+02  0.51100000000E-03 0. -1.
    9900012    2    1    2    0    0  0.17225539987E+02 -0.59640794359E+00  0.73213077206E+01  0.72461642185E+02  0.70000093651E+02 0.  0.
         12    1    1    2    0    0 -0.17225539987E+02  0.59640794359E+00 -0.73213077206E+01  0.18726357815E+02  0.00000000000E+00 0. -1.
         11    1    3    3    0    0  0.80863303207E+01  0.73117249635E+01  0.31937522424E+00  0.10906514603E+02  0.51100000000E-03 0. -1.
        -11    1    3    3    0    0 -0.34673689214E+01  0.22748829688E+02 -0.90475711927E+01  0.24726310768E+02  0.51100000000E-03 0.  1.
        -12    1    3    3    0    0  0.12606578587E+02 -0.30656962595E+02  0.16049503689E+02  0.36828816814E+02  0.00000000000E+00 0.  1.
</event>
<event>
 7    1  0.2873608E-013  0.7246160E+02  0.7816164E-02  0.1226708E+00
        -11   -1    0    0    0    0  0.00000000000E+00  0.00000000000E+00  0.45593999997E+02  0.45594000000E+02  0.51100000000E-03 0.  1.
         11   -1    0    0    0    0 -0.00000000000E+00 -0.00000000000E+00 -0.45593999997E+02  0.45594000000E+02  0.51100000000E-03 0. -1.
    9900012    2    1    2    0    0  0.67824768227E+01 -0.14557748949E+02  0.96305748565E+01  0.72461601030E+02  0.70000040039E+02 0.  0.
         12    1    1    2    0    0 -0.67824768227E+01  0.14557748949E+02 -0.96305748565E+01  0.18726398970E+02  0.00000000000E+00 0. -1.
         11    1    3    3    0    0 -0.12374996701E+02  0.73217292280E+01 -0.77893392007E+01  0.16353044600E+02  0.51100000000E-03 0. -1.
        -11    1    3    3    0    0  0.28057532962E+02 -0.22032656258E+01 -0.34352966966E+00  0.28146004125E+02  0.51100000000E-03 0.  1.
        -12    1    3    3    0    0 -0.89000594382E+01 -0.19676212551E+02  0.17763443727E+02  0.27962552305E+02  0.00000000000E+00 0.  1.
</event>
<event>
 7    1  0.2873608E-013  0.7246156E+02  0.7816164E-02  0.1226708E+00
        -11   -1    0    0    0    0  0.00000000000E+00  0.00000000000E+00  0.45593999997E+02  0.45594000000E+02  0.51100000000E-03 0. -1.
         11   -1    0    0    0    0 -0.00000000000E+00 -0.00000000000E+00 -0.45593999997E+02  0.45594000000E+02  0.51100000000E-03 0.  1.
    9900012    2    1    2    0    0  0.67091779340E+01 -0.57131239298E+01 -0.16523521092E+02  0.72461558724E+02  0.69999984927E+02 0.  0.
         12    1    1    2    0    0 -0.67091779340E+01  0.57131239298E+01  0.16523521092E+02  0.18726441276E+02  0.00000000000E+00 0. -1.
         11    1    3    3    0    0  0.13531652590E+02 -0.19310881019E+02  0.84192430359E+01  0.25037959204E+02  0.51100000000E-03 0.  1.
        -11    1    3    3    0    0  0.52702706844E+01  0.45900327230E+01 -0.30547477535E+02  0.31336760163E+02  0.51100000000E-03 0. -1.
         12    1    3    3    0    0 -0.12092745340E+02  0.90077243661E+01  0.56047134071E+01  0.16086839357E+02  0.00000000000E+00 0. -1.
</event>
<event>
 7    1  0.2873608E-013  0.7246147E+02  0.7816164E-02  0.1226708E+00
        -11   -1    0    0    0    0  0.00000000000E+00  0.00000000000E+00  0.45593999997E+02  0.45594000000E+02  0.51100000000E-03 0. -1.
         11   -1    0    0    0    0 -0.00000000000E+00 -0.00000000000E+00 -0.45593999997E+02  0.45594000000E+02  0.51100000000E-03 0.  1.
    9900012    2    1    2    0    0 -0.32196303123E+01 -0.17094834365E+02 -0.69342345297E+01  0.72461468291E+02  0.69999867122E+02 0.  0.
         12    1    1    2    0    0  0.32196303123E+01  0.17094834365E+02  0.69342345297E+01  0.18726531709E+02  0.00000000000E+00 0. -1.
         11    1    3    3    0    0 -0.74494891745E+01 -0.10094816711E+02  0.62292460758E-01  0.12546078830E+02  0.51100000000E-03 0. -1.
        -11    1    3    3    0    0 -0.20968594435E+02  0.15166474489E+02 -0.16460297747E+01  0.25930933560E+02  0.51100000000E-03 0.  1.
         12    1    3    3    0    0  0.25198453297E+02 -0.22166492143E+02 -0.53504972157E+01  0.33984455902E+02  0.00000000000E+00 0. -1.
</event>
<event>
 7    1  0.2873608E-013  0.7246137E+02  0.7816164E-02  0.1226709E+00
        -11   -1    0    0    0    0  0.00000000000E+00  0.00000000000E+00  0.45593999997E+02  0.45594000000E+02  0.51100000000E-03 0.  1.
         11   -1    0    0    0    0 -0.00000000000E+00 -0.00000000000E+00 -0.45593999997E+02  0.45594000000E+02  0.51100000000E-03 0. -1.
    9900012    2    1    2    0    0  0.18547476781E+02  0.25616368670E+01  0.34023866928E+00  0.72461370812E+02  0.69999740137E+02 0.  0.
         12    1    1    2    0    0 -0.18547476781E+02 -0.25616368670E+01 -0.34023866928E+00  0.18726629188E+02  0.00000000000E+00 0. -1.
         11    1    3    3    0    0 -0.24744096923E+01  0.11238883359E+01  0.50458758832E+00  0.27641340800E+01  0.51100000000E-03 0. -1.
        -11    1    3    3    0    0  0.47444653977E+01 -0.12017274062E+02  0.30121455002E+02  0.32775400524E+02  0.51100000000E-03 0.  1.
         12    1    3    3    0    0  0.16277421076E+02  0.13455022594E+02 -0.30285803921E+02  0.36921836208E+02  0.00000000000E+00 0. -1.
</event>
<event>
 7    1  0.2873608E-013  0.7246152E+02  0.7816164E-02  0.1226708E+00
        -11   -1    0    0    0    0  0.00000000000E+00  0.00000000000E+00  0.45593999997E+02  0.45594000000E+02  0.51100000000E-03 0. -1.
         11   -1    0    0    0    0 -0.00000000000E+00 -0.00000000000E+00 -0.45593999997E+02  0.45594000000E+02  0.51100000000E-03 0.  1.
    9900012    2    1    2    0    0 -0.90025460762E+01 -0.30585981352E+01 -0.16133205382E+02  0.72461516766E+02  0.69999930269E+02 0.  0.
         12    1    1    2    0    0  0.90025460762E+01  0.30585981352E+01  0.16133205382E+02  0.18726483234E+02  0.00000000000E+00 0. -1.
         11    1    3    3    0    0 -0.16572424265E+01 -0.15190048033E+01 -0.87934503891E+01  0.90762656450E+01  0.51100000000E-03 0. -1.
        -11    1    3    3    0    0  0.20004992911E+02  0.10175925325E+02 -0.20916882581E+02  0.30680045221E+02  0.51100000000E-03 0.  1.
         12    1    3    3    0    0 -0.27350296561E+02 -0.11715518657E+02  0.13577127588E+02  0.32705205899E+02  0.00000000000E+00 0. -1.
</event>
<event>
 7    1  0.2873608E-013  0.7246155E+02  0.7816164E-02  0.1226708E+00
        -11   -1    0    0    0    0  0.00000000000E+00  0.00000000000E+00  0.45593999997E+02  0.45594000000E+02  0.51100000000E-03 0.  1.
         11   -1    0    0    0    0 -0.00000000000E+00 -0.00000000000E+00 -0.45593999997E+02  0.45594000000E+02  0.51100000000E-03 0. -1.
    9900012    2    1    2    0    0  0.18116031174E+02 -0.38190992078E+01  0.28113938348E+01  0.72461547064E+02  0.69999969738E+02 0.  0.
         12    1    1    2    0    0 -0.18116031174E+02  0.38190992078E+01 -0.28113938348E+01  0.18726452936E+02  0.00000000000E+00 0. -1.
         11    1    3    3    0    0  0.19890790007E+01  0.22584104725E+01 -0.10390299281E+02  0.10817355155E+02  0.51100000000E-03 0. -1.
        -11    1    3    3    0    0  0.12576974714E+01 -0.30398974476E+02  0.48274402451E+00  0.30428810265E+02  0.51100000000E-03 0.  1.
         12    1    3    3    0    0  0.14869254702E+02  0.24321464795E+02  0.12718949091E+02  0.31215381644E+02  0.00000000000E+00 0. -1.
</event>
<event>
 7    1  0.2873608E-013  0.7246151E+02  0.7816164E-02  0.1226708E+00
        -11   -1    0    0    0    0  0.00000000000E+00  0.00000000000E+00  0.45593999997E+02  0.45594000000E+02  0.51100000000E-03 0.  1.
         11   -1    0    0    0    0 -0.00000000000E+00 -0.00000000000E+00 -0.45593999997E+02  0.45594000000E+02  0.51100000000E-03 0. -1.
    9900012    2    1    2    0    0 -0.18386369392E+02  0.19268332547E+01  0.29849954281E+01  0.72461509044E+02  0.69999920210E+02 0.  0.
         12    1    1    2    0    0  0.18386369392E+02 -0.19268332547E+01 -0.29849954281E+01  0.18726490956E+02  0.00000000000E+00 0. -1.
         11    1    3    3    0    0  0.46793046144E+01 -0.10700600197E+02  0.47854614800E+01  0.12621385743E+02  0.51100000000E-03 0. -1.
        -11    1    3    3    0    0 -0.14174640187E+02  0.20511194650E+02  0.21991721103E+02  0.33245530944E+02  0.51100000000E-03 0.  1.
         12    1    3    3    0    0 -0.88910338194E+01 -0.78837611983E+01 -0.23792187155E+02  0.26594592357E+02  0.00000000000E+00 0. -1.
</event>
<event>
 7    1  0.2873608E-013  0.7246182E+02  0.7816164E-02  0.1226707E+00
        -11   -1    0    0    0    0  0.00000000000E+00  0.00000000000E+00  0.45593999997E+02  0.45594000000E+02  0.51100000000E-03 0. -1.
         11   -1    0    0    0    0 -0.00000000000E+00 -0.00000000000E+00 -0.45593999997E+02  0.45594000000E+02  0.51100000000E-03 0.  1.
    9900012    2    1    2    0    0 -0.14119762851E+02  0.11031205146E+02 -0.54419197398E+01  0.72461823657E+02  0.70000330052E+02 0.  0.
         12    1    1    2    0    0  0.14119762851E+02 -0.11031205146E+02  0.54419197398E+01  0.18726176343E+02  0.00000000000E+00 0. -1.
         11    1    3    3    0    0  0.13594163787E+01 -0.61709695917E+01 -0.41017470854E+01  0.75334725065E+01  0.51100000000E-03 0.  1.
        -11    1    3    3    0    0  0.29667389539E+01 -0.15681530448E+02 -0.17695852317E+02  0.23829711008E+02  0.51100000000E-03 0. -1.
         12    1    3    3    0    0 -0.18445918184E+02  0.32883705186E+02  0.16355679663E+02  0.41098640143E+02  0.00000000000E+00 0. -1.
</event>
<event>
 7    1  0.2873608E-013  0.7246164E+02  0.7816164E-02  0.1226708E+00
        -11   -1    0    0    0    0  0.00000000000E+00  0.00000000000E+00  0.45593999997E+02  0.45594000000E+02  0.51100000000E-03 0.  1.
         11   -1    0    0    0    0 -0.00000000000E+00 -0.00000000000E+00 -0.45593999997E+02  0.45594000000E+02  0.51100000000E-03 0. -1.
    9900012    2    1    2    0    0  0.98756431564E-01 -0.17582205408E+02 -0.64446124392E+01  0.72461635448E+02  0.70000084875E+02 0.  0.
         12    1    1    2    0    0 -0.98756431564E-01  0.17582205408E+02  0.64446124392E+01  0.18726364552E+02  0.00000000000E+00 0. -1.
         11    1    3    3    0    0  0.10707553226E+01 -0.68335529611E+01  0.14131894300E+02  0.15733861566E+02  0.51100000000E-03 0. -1.
        -11    1    3    3    0    0  0.17525128859E+02 -0.14321251578E+02  0.66769747181E+01  0.23596829870E+02  0.51100000000E-03 0.  1.
         12    1    3    3    0    0 -0.18497127750E+02  0.35725991309E+01 -0.27253481457E+02  0.33130944011E+02  0.00000000000E+00 0. -1.
</event>
<event>
 7    1  0.2873608E-013  0.7246156E+02  0.7816164E-02  0.1226708E+00
        -11   -1    0    0    0    0  0.00000000000E+00  0.00000000000E+00  0.45593999997E+02  0.45594000000E+02  0.51100000000E-03 0. -1.
         11   -1    0    0    0    0 -0.00000000000E+00 -0.00000000000E+00 -0.45593999997E+02  0.45594000000E+02  0.51100000000E-03 0.  1.
    9900012    2    1    2    0    0  0.52440130613E+01 -0.73652459371E+00 -0.17962109169E+02  0.72461561277E+02  0.69999988253E+02 0.  0.
         12    1    1    2    0    0 -0.52440130613E+01  0.73652459371E+00  0.17962109169E+02  0.18726438723E+02  0.00000000000E+00 0. -1.
         11    1    3    3    0    0  0.22678400446E+02 -0.11330364025E+02 -0.17414390745E+02  0.30756267670E+02  0.51100000000E-03 0. -1.
        -11    1    3    3    0    0  0.40154870431E+01  0.97911542502E+00 -0.14016936279E+02  0.14613600040E+02  0.51100000000E-03 0.  1.
        -12    1    3    3    0    0 -0.21449874428E+02  0.96147240068E+01  0.13469217855E+02  0.27091693567E+02  0.00000000000E+00 0.  1.
</event>
<event>
 7    1  0.2873608E-013  0.7246155E+02  0.7816164E-02  0.1226708E+00
        -11   -1    0    0    0    0  0.00000000000E+00  0.00000000000E+00  0.45593999997E+02  0.45594000000E+02  0.51100000000E-03 0.  1.
         11   -1    0    0    0    0 -0.00000000000E+00 -0.00000000000E+00 -0.45593999997E+02  0.45594000000E+02  0.51100000000E-03 0. -1.
    9900012    2    1    2    0    0 -0.15996236570E+02  0.81901137816E+01  0.52652041575E+01  0.72461550177E+02  0.69999973793E+02 0.  0.
         12    1    1    2    0    0  0.15996236570E+02 -0.81901137816E+01 -0.52652041575E+01  0.18726449823E+02  0.00000000000E+00 0. -1.
         11    1    3    3    0    0 -0.22348180102E+02  0.97729710766E+01 -0.73989451206E+00  0.24402859703E+02  0.51100000000E-03 0. -1.
        -11    1    3    3    0    0 -0.67100314751E+01 -0.20701562792E+02 -0.51410493355E+01  0.22360894726E+02  0.51100000000E-03 0.  1.
         12    1    3    3    0    0  0.13061975007E+02  0.19118705497E+02  0.11146148005E+02  0.25697795748E+02  0.00000000000E+00 0. -1.
</event>
<event>
 7    1  0.2873608E-013  0.7246156E+02  0.7816164E-02  0.1226708E+00
        -11   -1    0    0    0    0  0.00000000000E+00  0.00000000000E+00  0.45593999997E+02  0.45594000000E+02  0.51100000000E-03 0.  1.
         11   -1    0    0    0    0 -0.00000000000E+00 -0.00000000000E+00 -0.45593999997E+02  0.45594000000E+02  0.51100000000E-03 0. -1.
    9900012    2    1    2    0    0  0.14085465030E+02 -0.12119560242E+02  0.23228392776E+01  0.72461557522E+02  0.69999983362E+02 0.  0.
         12    1    1    2    0    0 -0.14085465030E+02  0.12119560242E+02 -0.23228392776E+01  0.18726442478E+02  0.00000000000E+00 0. -1.
         11    1    3    3    0    0 -0.80217125202E+01 -0.29855356399E+02 -0.54215130670E+01  0.31386031633E+02  0.51100000000E-03 0. -1.
        -11    1    3    3    0    0 -0.28443109167E+01  0.14283282832E+02 -0.49750730782E+00  0.14572226557E+02  0.51100000000E-03 0.  1.
        -12    1    3    3    0    0  0.24951488466E+02  0.34525133252E+01  0.82418596524E+01  0.26503299332E+02  0.00000000000E+00 0.  1.
</event>
<event>
 7    1  0.2873608E-013  0.7246156E+02  0.7816164E-02  0.1226708E+00
        -11   -1    0    0    0    0  0.00000000000E+00  0.00000000000E+00  0.45593999997E+02  0.45594000000E+02  0.51100000000E-03 0.  1.
         11   -1    0    0    0    0 -0.00000000000E+00 -0.00000000000E+00 -0.45593999997E+02  0.45594000000E+02  0.51100000000E-03 0. -1.
    9900012    2    1    2    0    0  0.26864076125E+01 -0.35454337104E+01  0.18190455445E+02  0.72461559992E+02  0.69999986579E+02 0.  0.
         12    1    1    2    0    0 -0.26864076125E+01  0.35454337104E+01 -0.18190455445E+02  0.18726440008E+02  0.00000000000E+00 0. -1.
         11    1    3    3    0    0 -0.22330035297E+01 -0.17019657648E+02 -0.13071689168E+02  0.21576007721E+02  0.51100000000E-03 0. -1.
        -11    1    3    3    0    0  0.31645253013E+01  0.10414726597E+02 -0.66856883403E+01  0.12774160611E+02  0.51100000000E-03 0.  1.
        -12    1    3    3    0    0  0.17548858408E+01  0.30594973403E+01  0.37947832954E+02  0.38111391659E+02  0.00000000000E+00 0.  1.
</event>
<event>
 7    1  0.2873608E-013  0.7246159E+02  0.7816164E-02  0.1226708E+00
        -11   -1    0    0    0    0  0.00000000000E+00  0.00000000000E+00  0.45593999997E+02  0.45594000000E+02  0.51100000000E-03 0.  1.
         11   -1    0    0    0    0 -0.00000000000E+00 -0.00000000000E+00 -0.45593999997E+02  0.45594000000E+02  0.51100000000E-03 0. -1.
    9900012    2    1    2    0    0  0.13968756966E+02 -0.40524630753E+01  0.11795334999E+02  0.72461586678E+02  0.70000021343E+02 0.  0.
         12    1    1    2    0    0 -0.13968756966E+02  0.40524630753E+01 -0.11795334999E+02  0.18726413322E+02  0.00000000000E+00 0. -1.
         11    1    3    3    0    0 -0.10202183737E+01 -0.94094188996E+01  0.87205638299E+01  0.12869585981E+02  0.51100000000E-03 0. -1.
        -11    1    3    3    0    0 -0.21054931419E+01  0.28436302423E+02 -0.66322211553E+01  0.29275292562E+02  0.51100000000E-03 0.  1.
         12    1    3    3    0    0  0.17094468482E+02 -0.23079346599E+02  0.97069923246E+01  0.30316708135E+02  0.00000000000E+00 0. -1.
</event>
<event>
 7    1  0.2873608E-013  0.7246158E+02  0.7816164E-02  0.1226708E+00
        -11   -1    0    0    0    0  0.00000000000E+00  0.00000000000E+00  0.45593999997E+02  0.45594000000E+02  0.51100000000E-03 0.  1.
         11   -1    0    0    0    0 -0.00000000000E+00 -0.00000000000E+00 -0.45593999997E+02  0.45594000000E+02  0.51100000000E-03 0. -1.
    9900012    2    1    2    0    0  0.10169508739E+02 -0.12162236791E+02  0.99669308064E+01  0.72461584928E+02  0.70000019063E+02 0.  0.
         12    1    1    2    0    0 -0.10169508739E+02  0.12162236791E+02 -0.99669308064E+01  0.18726415072E+02  0.00000000000E+00 0. -1.
         11    1    3    3    0    0 -0.25704175038E+02 -0.27392532510E+01  0.49527499779E+01  0.26319913666E+02  0.51100000000E-03 0. -1.
        -11    1    3    3    0    0  0.14066827217E+02 -0.50952900686E+01 -0.11146100225E+02  0.18656718879E+02  0.51100000000E-03 0.  1.
        -12    1    3    3    0    0  0.21806856560E+02 -0.43276934714E+01  0.16160281053E+02  0.27484952384E+02  0.00000000000E+00 0.  1.
</event>
<event>
 7    1  0.2873608E-013  0.7246157E+02  0.7816164E-02  0.1226708E+00
        -11   -1    0    0    0    0  0.00000000000E+00  0.00000000000E+00  0.45593999997E+02  0.45594000000E+02  0.51100000000E-03 0.  1.
         11   -1    0    0    0    0 -0.00000000000E+00 -0.00000000000E+00 -0.45593999997E+02  0.45594000000E+02  0.51100000000E-03 0. -1.
    9900012    2    1    2    0    0 -0.16991598115E+02 -0.20178405399E+01  0.76087464124E+01  0.72461571913E+02  0.70000002108E+02 0.  0.
         12    1    1    2    0    0  0.16991598115E+02  0.20178405399E+01 -0.76087464124E+01  0.18726428087E+02  0.00000000000E+00 0. -1.
         11    1    3    3    0    0  0.78320954445E+01  0.41663013909E+01  0.16623297849E+02  0.18842341096E+02  0.51100000000E-03 0. -1.
        -11    1    3    3    0    0 -0.33912284987E+02 -0.15325141380E+02  0.11058806362E+01  0.37230713177E+02  0.51100000000E-03 0.  1.
         12    1    3    3    0    0  0.90885914281E+01  0.91409994497E+01 -0.10120432073E+02  0.16388517640E+02  0.00000000000E+00 0. -1.
</event>
<event>
 7    1  0.2873608E-013  0.7246164E+02  0.7816164E-02  0.1226708E+00
        -11   -1    0    0    0    0  0.00000000000E+00  0.00000000000E+00  0.45593999997E+02  0.45594000000E+02  0.51100000000E-03 0. -1.
         11   -1    0    0    0    0 -0.00000000000E+00 -0.00000000000E+00 -0.45593999997E+02  0.45594000000E+02  0.51100000000E-03 0.  1.
    9900012    2    1    2    0    0  0.15024038686E+00 -0.84063863668E+00 -0.18706881784E+02  0.72461636990E+02  0.70000086883E+02 0.  0.
         12    1    1    2    0    0 -0.15024038686E+00  0.84063863668E+00  0.18706881784E+02  0.18726363010E+02  0.00000000000E+00 0. -1.
         11    1    3    3    0    0 -0.11362196414E+02  0.41821796244E+01 -0.21259254689E+02  0.24465200673E+02  0.51100000000E-03 0. -1.
        -11    1    3    3    0    0  0.14803009527E+02  0.13649693187E+02 -0.12576086574E+02  0.23740285781E+02  0.51100000000E-03 0.  1.
         12    1    3    3    0    0 -0.32905727263E+01 -0.18672511448E+02  0.15128459479E+02  0.24256150536E+02  0.00000000000E+00 0. -1.
</event>
<event>
 7    1  0.2873608E-013  0.7246157E+02  0.7816164E-02  0.1226708E+00
        -11   -1    0    0    0    0  0.00000000000E+00  0.00000000000E+00  0.45593999997E+02  0.45594000000E+02  0.51100000000E-03 0. -1.
         11   -1    0    0    0    0 -0.00000000000E+00 -0.00000000000E+00 -0.45593999997E+02  0.45594000000E+02  0.51100000000E-03 0.  1.
    9900012    2    1    2    0    0  0.27045828866E+01 -0.41974119379E+01 -0.18048440679E+02  0.72461568239E+02  0.69999997323E+02 0.  0.
         12    1    1    2    0    0 -0.27045828866E+01  0.41974119379E+01  0.18048440679E+02  0.18726431761E+02  0.00000000000E+00 0. -1.
         11    1    3    3    0    0 -0.18230465690E+01 -0.17333395523E+02  0.25958123760E+01  0.17621246871E+02  0.51100000000E-03 0. -1.
        -11    1    3    3    0    0 -0.13640267132E+02 -0.71992221229E+01  0.61555636745E+01  0.16606524351E+02  0.51100000000E-03 0.  1.
         12    1    3    3    0    0  0.18167896588E+02  0.20335205708E+02 -0.26799816729E+02  0.38233797017E+02  0.00000000000E+00 0. -1.
</event>
<event>
 7    1  0.2873608E-013  0.7246159E+02  0.7816164E-02  0.1226708E+00
        -11   -1    0    0    0    0  0.00000000000E+00  0.00000000000E+00  0.45593999997E+02  0.45594000000E+02  0.51100000000E-03 0. -1.
         11   -1    0    0    0    0 -0.00000000000E+00 -0.00000000000E+00 -0.45593999997E+02  0.45594000000E+02  0.51100000000E-03 0.  1.
    9900012    2    1    2    0    0 -0.14884396144E+02  0.16124373089E+01 -0.11248695400E+02  0.72461592153E+02  0.70000028475E+02 0.  0.
         12    1    1    2    0    0  0.14884396144E+02 -0.16124373089E+01  0.11248695400E+02  0.18726407847E+02  0.00000000000E+00 0. -1.
         11    1    3    3    0    0  0.18551762046E+01  0.17009861220E+01 -0.42091760976E+00  0.25519021206E+01  0.51100000000E-03 0. -1.
        -11    1    3    3    0    0  0.16672586509E+02 -0.13551677395E+02 -0.23389263225E+02  0.31759734501E+02  0.51100000000E-03 0.  1.
         12    1    3    3    0    0 -0.33412158858E+02  0.13463128582E+02  0.12561485434E+02  0.38149955531E+02  0.00000000000E+00 0. -1.
</event>
<event>
 7    1  0.2873608E-013  0.7246158E+02  0.7816164E-02  0.1226708E+00
        -11   -1    0    0    0    0  0.00000000000E+00  0.00000000000E+00  0.45593999997E+02  0.45594000000E+02  0.51100000000E-03 0.  1.
         11   -1    0    0    0    0 -0.00000000000E+00 -0.00000000000E+00 -0.45593999997E+02  0.45594000000E+02  0.51100000000E-03 0. -1.
    9900012    2    1    2    0    0 -0.30646914139E+01  0.10301020862E+02  0.15335427165E+02  0.72461583082E+02  0.70000016658E+02 0.  0.
         12    1    1    2    0    0  0.30646914139E+01 -0.10301020862E+02 -0.15335427165E+02  0.18726416918E+02  0.00000000000E+00 0. -1.
         11    1    3    3    0    0 -0.22943431481E+02 -0.13334136487E+02  0.60193534584E+01  0.27210895985E+02  0.51100000000E-03 0. -1.
        -11    1    3    3    0    0 -0.34953820652E+01 -0.17661754939E+01  0.99844016896E+01  0.10724987134E+02  0.51100000000E-03 0.  1.
        -12    1    3    3    0    0  0.23374122133E+02  0.25401332843E+02 -0.66832798309E+00  0.34525699963E+02  0.00000000000E+00 0.  1.
</event>
<event>
 7    1  0.2873608E-013  0.7246159E+02  0.7816164E-02  0.1226708E+00
        -11   -1    0    0    0    0  0.00000000000E+00  0.00000000000E+00  0.45593999997E+02  0.45594000000E+02  0.51100000000E-03 0.  1.
         11   -1    0    0    0    0 -0.00000000000E+00 -0.00000000000E+00 -0.45593999997E+02  0.45594000000E+02  0.51100000000E-03 0. -1.
    9900012    2    1    2    0    0 -0.67360120087E+01 -0.44427220379E+01  0.16898716824E+02  0.72461594387E+02  0.70000031385E+02 0.  0.
         12    1    1    2    0    0  0.67360120087E+01  0.44427220379E+01 -0.16898716824E+02  0.18726405613E+02  0.00000000000E+00 0. -1.
         11    1    3    3    0    0  0.11931048311E+02 -0.92917656889E+01  0.47161638056E+00  0.15129747046E+02  0.51100000000E-03 0. -1.
        -11    1    3    3    0    0 -0.31115857963E+02 -0.12363174542E+02  0.12442064670E+02  0.35719037991E+02  0.51100000000E-03 0.  1.
         12    1    3    3    0    0  0.12448797643E+02  0.17212218193E+02  0.39850357730E+01  0.21612809349E+02  0.00000000000E+00 0. -1.
</event>
<event>
 7    1  0.2873608E-013  0.7246158E+02  0.7816164E-02  0.1226708E+00
        -11   -1    0    0    0    0  0.00000000000E+00  0.00000000000E+00  0.45593999997E+02  0.45594000000E+02  0.51100000000E-03 0.  1.
         11   -1    0    0    0    0 -0.00000000000E+00 -0.00000000000E+00 -0.45593999997E+02  0.45594000000E+02  0.51100000000E-03 0. -1.
    9900012    2    1    2    0    0  0.90319002754E+01  0.52600248803E+01  0.15538199492E+02  0.72461582089E+02  0.70000015364E+02 0.  0.
         12    1    1    2    0    0 -0.90319002754E+01 -0.52600248803E+01 -0.15538199492E+02  0.18726417911E+02  0.00000000000E+00 0. -1.
         11    1    3    3    0    0  0.21980720469E+02  0.15051934484E+02 -0.61070839972E+00  0.26647434568E+02  0.51100000000E-03 0. -1.
        -11    1    3    3    0    0 -0.14085294928E+02  0.13281261746E+02  0.10536590662E+02  0.22041034227E+02  0.51100000000E-03 0.  1.
         12    1    3    3    0    0  0.11364747347E+01 -0.23073171350E+02  0.56123172301E+01  0.23773113293E+02  0.00000000000E+00 0. -1.
</event>
<event>
 7    1  0.2873608E-013  0.7246152E+02  0.7816164E-02  0.1226708E+00
        -11   -1    0    0    0    0  0.00000000000E+00  0.00000000000E+00  0.45593999997E+02  0.45594000000E+02  0.51100000000E-03 0.  1.
         11   -1    0    0    0    0 -0.00000000000E+00 -0.00000000000E+00 -0.45593999997E+02  0.45594000000E+02  0.51100000000E-03 0. -1.
    9900012    2    1    2    0    0 -0.18026397067E+02  0.13730988710E+01 -0.48831005514E+01  0.72461519745E+02  0.69999934150E+02 0.  0.
         12    1    1    2    0    0  0.18026397067E+02 -0.13730988710E+01  0.48831005514E+01  0.18726480255E+02  0.00000000000E+00 0. -1.
         11    1    3    3    0    0 -0.68332440856E+01 -0.33606627719E+00 -0.67967424035E+01  0.96437478626E+01  0.51100000000E-03 0. -1.
        -11    1    3    3    0    0  0.17233290870E+02 -0.97927863125E+01 -0.17569032972E+02  0.26486900495E+02  0.51100000000E-03 0.  1.
         12    1    3    3    0    0 -0.28426443852E+02  0.11501951461E+02  0.19482674824E+02  0.36330871388E+02  0.00000000000E+00 0. -1.
</event>
<event>
 7    1  0.2873608E-013  0.7246177E+02  0.7816164E-02  0.1226707E+00
        -11   -1    0    0    0    0  0.00000000000E+00  0.00000000000E+00  0.45593999997E+02  0.45594000000E+02  0.51100000000E-03 0. -1.
         11   -1    0    0    0    0 -0.00000000000E+00 -0.00000000000E+00 -0.45593999997E+02  0.45594000000E+02  0.51100000000E-03 0.  1.
    9900012    2    1    2    0    0 -0.15922222937E+02  0.98566338450E+01  0.34247878557E-01  0.72461772752E+02  0.70000263739E+02 0.  0.
         12    1    1    2    0    0  0.15922222937E+02 -0.98566338450E+01 -0.34247878557E-01  0.18726227248E+02  0.00000000000E+00 0. -1.
         11    1    3    3    0    0 -0.93154930576E+01 -0.81575238667E+01 -0.86659491581E+01  0.15113645544E+02  0.51100000000E-03 0. -1.
        -11    1    3    3    0    0 -0.11481382380E+02  0.28834246684E+02 -0.12172366637E+02  0.33337702875E+02  0.51100000000E-03 0.  1.
         12    1    3    3    0    0  0.48746525004E+01 -0.10820088972E+02  0.20872563673E+02  0.24010424333E+02  0.00000000000E+00 0. -1.
</event>
<event>
 7    1  0.2873608E-013  0.7246146E+02  0.7816164E-02  0.1226708E+00
        -11   -1    0    0    0    0  0.00000000000E+00  0.00000000000E+00  0.45593999997E+02  0.45594000000E+02  0.51100000000E-03 0. -1.
         11   -1    0    0    0    0 -0.00000000000E+00 -0.00000000000E+00 -0.45593999997E+02  0.45594000000E+02  0.51100000000E-03 0.  1.
    9900012    2    1    2    0    0 -0.13042803597E+02 -0.10087030070E+02 -0.88780898698E+01  0.72461457846E+02  0.69999853516E+02 0.  0.
         12    1    1    2    0    0  0.13042803597E+02  0.10087030070E+02  0.88780898698E+01  0.18726542154E+02  0.00000000000E+00 0. -1.
         11    1    3    3    0    0 -0.69018942280E+01 -0.96108970805E+01  0.13503116666E+02  0.17953819833E+02  0.51100000000E-03 0.  1.
        -11    1    3    3    0    0  0.13655681598E+02 -0.47689492216E+00  0.97371133906E+01  0.16778451839E+02  0.51100000000E-03 0. -1.
        -12    1    3    3    0    0 -0.19796590967E+02  0.76193311493E-03 -0.32118319927E+02  0.37729186175E+02  0.00000000000E+00 0.  1.
</event>
<event>
 7    1  0.2873608E-013  0.7246156E+02  0.7816164E-02  0.1226708E+00
        -11   -1    0    0    0    0  0.00000000000E+00  0.00000000000E+00  0.45593999997E+02  0.45594000000E+02  0.51100000000E-03 0.  1.
         11   -1    0    0    0    0 -0.00000000000E+00 -0.00000000000E+00 -0.45593999997E+02  0.45594000000E+02  0.51100000000E-03 0. -1.
    9900012    2    1    2    0    0  0.63984335887E+01  0.16314030560E+02  0.66024272300E+01  0.72461559045E+02  0.69999985346E+02 0.  0.
         12    1    1    2    0    0 -0.63984335887E+01 -0.16314030560E+02 -0.66024272300E+01  0.18726440955E+02  0.00000000000E+00 0. -1.
         11    1    3    3    0    0  0.17332231005E+01  0.19193740651E+02 -0.15781879253E+02  0.24909264451E+02  0.51100000000E-03 0. -1.
        -11    1    3    3    0    0  0.17248561260E+02 -0.39127285020E+01 -0.41501551153E+01  0.18167170875E+02  0.51100000000E-03 0.  1.
        -12    1    3    3    0    0 -0.12583350772E+02  0.10330184113E+01  0.26534461598E+02  0.29385123719E+02  0.00000000000E+00 0.  1.
</event>
<event>
 7    1  0.2873608E-013  0.7246159E+02  0.7816164E-02  0.1226708E+00
        -11   -1    0    0    0    0  0.00000000000E+00  0.00000000000E+00  0.45593999997E+02  0.45594000000E+02  0.51100000000E-03 0. -1.
         11   -1    0    0    0    0 -0.00000000000E+00 -0.00000000000E+00 -0.45593999997E+02  0.45594000000E+02  0.51100000000E-03 0.  1.
    9900012    2    1    2    0    0 -0.57956277811E+01 -0.14797078944E+02 -0.99063409908E+01  0.72461589813E+02  0.70000025427E+02 0.  0.
         12    1    1    2    0    0  0.57956277811E+01  0.14797078944E+02  0.99063409908E+01  0.18726410187E+02  0.00000000000E+00 0. -1.
         11    1    3    3    0    0  0.12718933673E+02 -0.14751474037E+02 -0.96405441782E+01  0.21732863418E+02  0.51100000000E-03 0. -1.
        -11    1    3    3    0    0 -0.29108454586E+02 -0.13820374456E+02  0.49150573995E+01  0.32595439374E+02  0.51100000000E-03 0.  1.
         12    1    3    3    0    0  0.10593893132E+02  0.13774769549E+02 -0.51808542121E+01  0.18133287021E+02  0.00000000000E+00 0. -1.
</event>
<event>
 7    1  0.2873608E-013  0.7246157E+02  0.7816164E-02  0.1226708E+00
        -11   -1    0    0    0    0  0.00000000000E+00  0.00000000000E+00  0.45593999997E+02  0.45594000000E+02  0.51100000000E-03 0.  1.
         11   -1    0    0    0    0 -0.00000000000E+00 -0.00000000000E+00 -0.45593999997E+02  0.45594000000E+02  0.51100000000E-03 0. -1.
    9900012    2    1    2    0    0  0.36597820886E+01  0.43114919615E+01  0.17852066062E+02  0.72461568665E+02  0.69999997877E+02 0.  0.
         12    1    1    2    0    0 -0.36597820886E+01 -0.43114919615E+01 -0.17852066062E+02  0.18726431335E+02  0.00000000000E+00 0. -1.
         11    1    3    3    0    0 -0.12499523370E+02  0.37733977908E+00  0.52896768280E+01  0.13577965642E+02  0.51100000000E-03 0. -1.
        -11    1    3    3    0    0  0.56682976348E+01  0.29365379432E+02  0.47212782850E+01  0.30277806660E+02  0.51100000000E-03 0.  1.
        -12    1    3    3    0    0  0.10491007823E+02 -0.25431227250E+02  0.78411109493E+01  0.28605796362E+02  0.00000000000E+00 0.  1.
</event>
<event>
 7    1  0.2873608E-013  0.7246172E+02  0.7816164E-02  0.1226708E+00
        -11   -1    0    0    0    0  0.00000000000E+00  0.00000000000E+00  0.45593999997E+02  0.45594000000E+02  0.51100000000E-03 0.  1.
         11   -1    0    0    0    0 -0.00000000000E+00 -0.00000000000E+00 -0.45593999997E+02  0.45594000000E+02  0.51100000000E-03 0. -1.
    9900012    2    1    2    0    0 -0.10291778746E+02  0.15378531272E+02  0.28729410142E+01  0.72461715694E+02  0.70000189409E+02 0.  0.
         12    1    1    2    0    0  0.10291778746E+02 -0.15378531272E+02 -0.28729410142E+01  0.18726284306E+02  0.00000000000E+00 0. -1.
         11    1    3    3    0    0  0.56639373465E+00  0.79955073523E+01  0.34478570496E+01  0.87256322509E+01  0.51100000000E-03 0. -1.
        -11    1    3    3    0    0 -0.28099036522E+02  0.20350130936E+02 -0.14986065259E+02  0.37792404459E+02  0.51100000000E-03 0.  1.
         12    1    3    3    0    0  0.17240864042E+02 -0.12967107016E+02  0.14411149224E+02  0.25943678984E+02  0.00000000000E+00 0. -1.
</event>
<event>
 7    1  0.2873608E-013  0.7246154E+02  0.7816164E-02  0.1226708E+00
        -11   -1    0    0    0    0  0.00000000000E+00  0.00000000000E+00  0.45593999997E+02  0.45594000000E+02  0.51100000000E-03 0.  1.
         11   -1    0    0    0    0 -0.00000000000E+00 -0.00000000000E+00 -0.45593999997E+02  0.45594000000E+02  0.51100000000E-03 0. -1.
    9900012    2    1    2    0    0  0.80846552545E+01 -0.71403767838E+01 -0.15307956962E+02  0.72461543379E+02  0.69999964938E+02 0.  0.
         12    1    1    2    0    0 -0.80846552545E+01  0.71403767838E+01  0.15307956962E+02  0.18726456621E+02  0.00000000000E+00 0. -1.
         11    1    3    3    0    0 -0.70339962741E+01 -0.17215218005E+01 -0.21234492479E+01  0.75465076601E+01  0.51100000000E-03 0. -1.
        -11    1    3    3    0    0 -0.15068847038E+02  0.17479447009E+02  0.38069105089E+01  0.23390036056E+02  0.51100000000E-03 0.  1.
        -12    1    3    3    0    0  0.30187498566E+02 -0.22898301993E+02 -0.16991418223E+02  0.41524999664E+02  0.00000000000E+00 0.  1.
</event>
<event>
 7    1  0.2873608E-013  0.7246159E+02  0.7816164E-02  0.1226708E+00
        -11   -1    0    0    0    0  0.00000000000E+00  0.00000000000E+00  0.45593999997E+02  0.45594000000E+02  0.51100000000E-03 0.  1.
         11   -1    0    0    0    0 -0.00000000000E+00 -0.00000000000E+00 -0.45593999997E+02  0.45594000000E+02  0.51100000000E-03 0. -1.
    9900012    2    1    2    0    0  0.11670431448E+02  0.23178018988E+01  0.14460536206E+02  0.72461593959E+02  0.70000030828E+02 0.  0.
         12    1    1    2    0    0 -0.11670431448E+02 -0.23178018988E+01 -0.14460536206E+02  0.18726406041E+02  0.00000000000E+00 0. -1.
         11    1    3    3    0    0  0.62269501018E+01 -0.10007776471E+02 -0.70637074627E+01  0.13741414077E+02  0.51100000000E-03 0. -1.
        -11    1    3    3    0    0  0.23684029326E+02 -0.26508223201E+01  0.25369817627E+02  0.34807869093E+02  0.51100000000E-03 0.  1.
         12    1    3    3    0    0 -0.18240547979E+02  0.14976400690E+02 -0.38455739581E+01  0.23912310789E+02  0.00000000000E+00 0. -1.
</event>
<event>
 7    1  0.2873608E-013  0.7246170E+02  0.7816164E-02  0.1226708E+00
        -11   -1    0    0    0    0  0.00000000000E+00  0.00000000000E+00  0.45593999997E+02  0.45594000000E+02  0.51100000000E-03 0.  1.
         11   -1    0    0    0    0 -0.00000000000E+00 -0.00000000000E+00 -0.45593999997E+02  0.45594000000E+02  0.51100000000E-03 0. -1.
    9900012    2    1    2    0    0  0.16829839106E+02  0.43510489377E+01 -0.69641324894E+01  0.72461701580E+02  0.70000171024E+02 0.  0.
         12    1    1    2    0    0 -0.16829839106E+02 -0.43510489377E+01  0.69641324894E+01  0.18726298420E+02  0.00000000000E+00 0. -1.
         11    1    3    3    0    0  0.13396684015E+02  0.13729710943E+02  0.20128285214E+01  0.19288016593E+02  0.51100000000E-03 0. -1.
        -11    1    3    3    0    0  0.18881281992E+02  0.13935027889E+02 -0.91992868160E+01  0.25205449611E+02  0.51100000000E-03 0.  1.
         12    1    3    3    0    0 -0.15448126902E+02 -0.23313689894E+02  0.22232580521E+00  0.27968235375E+02  0.00000000000E+00 0. -1.
</event>
<event>
 7    1  0.2873608E-013  0.7246148E+02  0.7816164E-02  0.1226708E+00
        -11   -1    0    0    0    0  0.00000000000E+00  0.00000000000E+00  0.45593999997E+02  0.45594000000E+02  0.51100000000E-03 0.  1.
         11   -1    0    0    0    0 -0.00000000000E+00 -0.00000000000E+00 -0.45593999997E+02  0.45594000000E+02  0.51100000000E-03 0. -1.
    9900012    2    1    2    0    0  0.14776719396E+02 -0.19212825808E+01  0.11341954391E+02  0.72461476237E+02  0.69999877472E+02 0.  0.
         12    1    1    2    0    0 -0.14776719396E+02  0.19212825808E+01 -0.11341954391E+02  0.18726523763E+02  0.00000000000E+00 0. -1.
         11    1    3    3    0    0  0.17611985522E+02 -0.16973344339E+01 -0.20585281808E+01  0.17812931167E+02  0.51100000000E-03 0. -1.
        -11    1    3    3    0    0  0.78943684370E+01 -0.13887090971E+02  0.27814283244E+02  0.32075016778E+02  0.51100000000E-03 0.  1.
         12    1    3    3    0    0 -0.10729634564E+02  0.13663142824E+02 -0.14413800673E+02  0.22573528292E+02  0.00000000000E+00 0. -1.
</event>
<event>
 7    1  0.2873608E-013  0.7246158E+02  0.7816164E-02  0.1226708E+00
        -11   -1    0    0    0    0  0.00000000000E+00  0.00000000000E+00  0.45593999997E+02  0.45594000000E+02  0.51100000000E-03 0.  1.
         11   -1    0    0    0    0 -0.00000000000E+00 -0.00000000000E+00 -0.45593999997E+02  0.45594000000E+02  0.51100000000E-03 0. -1.
    9900012    2    1    2    0    0 -0.18353384003E+02  0.21434536604E+01  0.30393426250E+01  0.72461582789E+02  0.70000016277E+02 0.  0.
         12    1    1    2    0    0  0.18353384003E+02 -0.21434536604E+01 -0.30393426250E+01  0.18726417211E+02  0.00000000000E+00 0. -1.
         11    1    3    3    0    0 -0.91153316605E+01  0.29905242489E+01  0.12850168911E+02  0.16036188695E+02  0.51100000000E-03 0. -1.
        -11    1    3    3    0    0  0.14601338610E+02  0.19297568109E+02 -0.21930301655E+01  0.24298242852E+02  0.51100000000E-03 0.  1.
         12    1    3    3    0    0 -0.23839390952E+02 -0.20144638697E+02 -0.76177961207E+01  0.32127151242E+02  0.00000000000E+00 0. -1.
</event>
<event>
 7    1  0.2873608E-013  0.7246154E+02  0.7816164E-02  0.1226708E+00
        -11   -1    0    0    0    0  0.00000000000E+00  0.00000000000E+00  0.45593999997E+02  0.45594000000E+02  0.51100000000E-03 0. -1.
         11   -1    0    0    0    0 -0.00000000000E+00 -0.00000000000E+00 -0.45593999997E+02  0.45594000000E+02  0.51100000000E-03 0.  1.
    9900012    2    1    2    0    0 -0.14188422610E+02 -0.93809418677E+01  0.78337055182E+01  0.72461538812E+02  0.69999958988E+02 0.  0.
         12    1    1    2    0    0  0.14188422610E+02  0.93809418677E+01 -0.78337055182E+01  0.18726461188E+02  0.00000000000E+00 0. -1.
         11    1    3    3    0    0 -0.71748968147E+01 -0.18732603735E+02  0.25305225912E+00  0.20061246788E+02  0.51100000000E-03 0. -1.
        -11    1    3    3    0    0  0.11915511584E+02 -0.11421658017E+02 -0.99539784804E+01  0.19274734136E+02  0.51100000000E-03 0.  1.
         12    1    3    3    0    0 -0.18929037380E+02  0.20773319884E+02  0.17534631740E+02  0.33125557888E+02  0.00000000000E+00 0. -1.
</event>
<event>
 7    1  0.2873608E-013  0.7246164E+02  0.7816164E-02  0.1226708E+00
        -11   -1    0    0    0    0  0.00000000000E+00  0.00000000000E+00  0.45593999997E+02  0.45594000000E+02  0.51100000000E-03 0.  1.
         11   -1    0    0    0    0 -0.00000000000E+00 -0.00000000000E+00 -0.45593999997E+02  0.45594000000E+02  0.51100000000E-03 0. -1.
    9900012    2    1    2    0    0  0.18382982026E+02 -0.21222296806E+01 -0.28702777335E+01  0.72461644742E+02  0.70000096982E+02 0.  0.
         12    1    1    2    0    0 -0.18382982026E+02  0.21222296806E+01  0.28702777335E+01  0.18726355258E+02  0.00000000000E+00 0. -1.
         11    1    3    3    0    0  0.38639880767E+00 -0.70796813852E+01 -0.47676845594E+01  0.85441213049E+01  0.51100000000E-03 0. -1.
        -11    1    3    3    0    0  0.50469066769E+01  0.31106745784E+01 -0.29402500999E+02  0.29994243258E+02  0.51100000000E-03 0.  1.
        -12    1    3    3    0    0  0.12949676541E+02  0.18467771262E+01  0.31299907825E+02  0.33923280179E+02  0.00000000000E+00 0.  1.
</event>
<event>
 7    1  0.2873608E-013  0.7246159E+02  0.7816164E-02  0.1226708E+00
        -11   -1    0    0    0    0  0.00000000000E+00  0.00000000000E+00  0.45593999997E+02  0.45594000000E+02  0.51100000000E-03 0.  1.
         11   -1    0    0    0    0 -0.00000000000E+00 -0.00000000000E+00 -0.45593999997E+02  0.45594000000E+02  0.51100000000E-03 0. -1.
    9900012    2    1    2    0    0 -0.13833760370E+02  0.51613006194E+01  0.11518093899E+02  0.72461589850E+02  0.70000025475E+02 0.  0.
         12    1    1    2    0    0  0.13833760370E+02 -0.51613006194E+01 -0.11518093899E+02  0.18726410150E+02  0.00000000000E+00 0. -1.
         11    1    3    3    0    0  0.15213431061E+02 -0.10322170978E+02 -0.82180289443E+01  0.20137817616E+02  0.51100000000E-03 0. -1.
        -11    1    3    3    0    0 -0.14858488862E+02 -0.57742311335E+01  0.21431058418E+02  0.26709674308E+02  0.51100000000E-03 0.  1.
        -12    1    3    3    0    0 -0.14188702569E+02  0.21257702731E+02 -0.16949355753E+01  0.25614097926E+02  0.00000000000E+00 0.  1.
</event>
<event>
 7    1  0.2873608E-013  0.7246159E+02  0.7816164E-02  0.1226708E+00
        -11   -1    0    0    0    0  0.00000000000E+00  0.00000000000E+00  0.45593999997E+02  0.45594000000E+02  0.51100000000E-03 0. -1.
         11   -1    0    0    0    0 -0.00000000000E+00 -0.00000000000E+00 -0.45593999997E+02  0.45594000000E+02  0.51100000000E-03 0.  1.
    9900012    2    1    2    0    0  0.26697453089E+01  0.18513861762E+02  0.88754008180E+00  0.72461592316E+02  0.70000028687E+02 0.  0.
         12    1    1    2    0    0 -0.26697453089E+01 -0.18513861762E+02 -0.88754008180E+00  0.18726407684E+02  0.00000000000E+00 0. -1.
         11    1    3    3    0    0  0.98841447698E+01  0.12252871672E+02 -0.84226994964E+01  0.17854160554E+02  0.51100000000E-03 0. -1.
        -11    1    3    3    0    0  0.21350789255E+02  0.33495268544E+00 -0.52690359000E+01  0.21993888575E+02  0.51100000000E-03 0.  1.
         12    1    3    3    0    0 -0.28565188715E+02  0.59260374048E+01  0.14579275478E+02  0.32613543186E+02  0.00000000000E+00 0. -1.
</event>
<event>
 7    1  0.2873608E-013  0.7246159E+02  0.7816164E-02  0.1226708E+00
        -11   -1    0    0    0    0  0.00000000000E+00  0.00000000000E+00  0.45593999997E+02  0.45594000000E+02  0.51100000000E-03 0. -1.
         11   -1    0    0    0    0 -0.00000000000E+00 -0.00000000000E+00 -0.45593999997E+02  0.45594000000E+02  0.51100000000E-03 0.  1.
    9900012    2    1    2    0    0 -0.43628222290E+01 -0.11306590152E+02 -0.14276039201E+02  0.72461588333E+02  0.70000023498E+02 0.  0.
         12    1    1    2    0    0  0.43628222290E+01  0.11306590152E+02  0.14276039201E+02  0.18726411667E+02  0.00000000000E+00 0. -1.
         11    1    3    3    0    0 -0.55473997056E+01  0.14034806908E+01 -0.79150444051E+01  0.97668485059E+01  0.51100000000E-03 0. -1.
        -11    1    3    3    0    0 -0.16687764457E+01  0.22499272789E+02 -0.14002111326E+02  0.26552988771E+02  0.51100000000E-03 0.  1.
         12    1    3    3    0    0  0.28533539222E+01 -0.35209343631E+02  0.76411165299E+01  0.36141751056E+02  0.00000000000E+00 0. -1.
</event>
<event>
 7    1  0.2873608E-013  0.7246160E+02  0.7816164E-02  0.1226708E+00
        -11   -1    0    0    0    0  0.00000000000E+00  0.00000000000E+00  0.45593999997E+02  0.45594000000E+02  0.51100000000E-03 0.  1.
         11   -1    0    0    0    0 -0.00000000000E+00 -0.00000000000E+00 -0.45593999997E+02  0.45594000000E+02  0.51100000000E-03 0. -1.
    9900012    2    1    2    0    0  0.53185045035E+01  0.58978450765E+01  0.16958976876E+02  0.72461602499E+02  0.70000041952E+02 0.  0.
         12    1    1    2    0    0 -0.53185045035E+01 -0.58978450765E+01 -0.16958976876E+02  0.18726397501E+02  0.00000000000E+00 0. -1.
         11    1    3    3    0    0 -0.17573082300E+02  0.66974568564E+01  0.10114986973E+02  0.21353737649E+02  0.51100000000E-03 0. -1.
        -11    1    3    3    0    0 -0.12854716110E+02 -0.44164216479E+01 -0.28638349572E+01  0.13890646399E+02  0.51100000000E-03 0.  1.
        -12    1    3    3    0    0  0.35746302914E+02  0.36168098680E+01  0.97078248607E+01  0.37217218450E+02  0.00000000000E+00 0.  1.
</event>
<event>
 7    1  0.2873608E-013  0.7246158E+02  0.7816164E-02  0.1226708E+00
        -11   -1    0    0    0    0  0.00000000000E+00  0.00000000000E+00  0.45593999997E+02  0.45594000000E+02  0.51100000000E-03 0.  1.
         11   -1    0    0    0    0 -0.00000000000E+00 -0.00000000000E+00 -0.45593999997E+02  0.45594000000E+02  0.51100000000E-03 0. -1.
    9900012    2    1    2    0    0  0.36467463467E+01 -0.47784796836E+01  0.17735449517E+02  0.72461580252E+02  0.70000012972E+02 0.  0.
         12    1    1    2    0    0 -0.36467463467E+01  0.47784796836E+01 -0.17735449517E+02  0.18726419748E+02  0.00000000000E+00 0. -1.
         11    1    3    3    0    0 -0.16278899705E+02 -0.13704618702E+02  0.67923559544E+01  0.22337306217E+02  0.51100000000E-03 0. -1.
        -11    1    3    3    0    0 -0.76520411248E+01  0.17229072599E+02 -0.11521244419E+01  0.18887087308E+02  0.51100000000E-03 0.  1.
        -12    1    3    3    0    0  0.27577687176E+02 -0.83029335799E+01  0.12095218005E+02  0.31237186727E+02  0.00000000000E+00 0.  1.
</event>
<event>
 7    1  0.2873608E-013  0.7246160E+02  0.7816164E-02  0.1226708E+00
        -11   -1    0    0    0    0  0.00000000000E+00  0.00000000000E+00  0.45593999997E+02  0.45594000000E+02  0.51100000000E-03 0.  1.
         11   -1    0    0    0    0 -0.00000000000E+00 -0.00000000000E+00 -0.45593999997E+02  0.45594000000E+02  0.51100000000E-03 0. -1.
    9900012    2    1    2    0    0  0.67759771994E+01 -0.16032490226E+02  0.69082274248E+01  0.72461595753E+02  0.70000033165E+02 0.  0.
         12    1    1    2    0    0 -0.67759771994E+01  0.16032490226E+02 -0.69082274248E+01  0.18726404247E+02  0.00000000000E+00 0. -1.
         11    1    3    3    0    0  0.51664049954E+00 -0.43983639402E+01  0.80319252926E+01  0.91719325621E+01  0.51100000000E-03 0. -1.
        -11    1    3    3    0    0  0.14698691803E+02 -0.15753549331E+02  0.26476531735E+02  0.34135503369E+02  0.51100000000E-03 0.  1.
         12    1    3    3    0    0 -0.84393551036E+01  0.41194230457E+01 -0.27600229603E+02  0.29154159822E+02  0.00000000000E+00 0. -1.
</event>
<event>
 7    1  0.2873608E-013  0.7246157E+02  0.7816164E-02  0.1226708E+00
        -11   -1    0    0    0    0  0.00000000000E+00  0.00000000000E+00  0.45593999997E+02  0.45594000000E+02  0.51100000000E-03 0. -1.
         11   -1    0    0    0    0 -0.00000000000E+00 -0.00000000000E+00 -0.45593999997E+02  0.45594000000E+02  0.51100000000E-03 0.  1.
    9900012    2    1    2    0    0  0.16913233797E+02 -0.71423706018E+01  0.36889249673E+01  0.72461572079E+02  0.70000002324E+02 0.  0.
         12    1    1    2    0    0 -0.16913233797E+02  0.71423706018E+01 -0.36889249673E+01  0.18726427921E+02  0.00000000000E+00 0. -1.
         11    1    3    3    0    0  0.26584560102E+02 -0.60631349889E+01  0.50637384514E+01  0.27733407456E+02  0.51100000000E-03 0. -1.
        -11    1    3    3    0    0  0.15634022198E+02  0.71390827669E+01  0.38518590362E+01  0.17613232842E+02  0.51100000000E-03 0.  1.
        -12    1    3    3    0    0 -0.25305348503E+02 -0.82183183797E+01 -0.52266725203E+01  0.27114931781E+02  0.00000000000E+00 0.  1.
</event>
<event>
 7    1  0.2873608E-013  0.7246165E+02  0.7816164E-02  0.1226708E+00
        -11   -1    0    0    0    0  0.00000000000E+00  0.00000000000E+00  0.45593999997E+02  0.45594000000E+02  0.51100000000E-03 0. -1.
         11   -1    0    0    0    0 -0.00000000000E+00 -0.00000000000E+00 -0.45593999997E+02  0.45594000000E+02  0.51100000000E-03 0.  1.
    9900012    2    1    2    0    0 -0.17090067385E+02  0.63207155832E+01 -0.43190536844E+01  0.72461652960E+02  0.70000107688E+02 0.  0.
         12    1    1    2    0    0  0.17090067385E+02 -0.63207155832E+01  0.43190536844E+01  0.18726347040E+02  0.00000000000E+00 0. -1.
         11    1    3    3    0    0  0.61790701075E+01 -0.43389053525E+01  0.38029604239E+01  0.84539644723E+01  0.51100000000E-03 0. -1.
        -11    1    3    3    0    0  0.89792289727E+01  0.75189321906E+00 -0.24791356866E+02  0.26378083173E+02  0.51100000000E-03 0.  1.
        -12    1    3    3    0    0 -0.32248366466E+02  0.99077277166E+01  0.16669342758E+02  0.37629605315E+02  0.00000000000E+00 0.  1.
</event>
<event>
 7    1  0.2873608E-013  0.7246150E+02  0.7816164E-02  0.1226708E+00
        -11   -1    0    0    0    0  0.00000000000E+00  0.00000000000E+00  0.45593999997E+02  0.45594000000E+02  0.51100000000E-03 0.  1.
         11   -1    0    0    0    0 -0.00000000000E+00 -0.00000000000E+00 -0.45593999997E+02  0.45594000000E+02  0.51100000000E-03 0. -1.
    9900012    2    1    2    0    0  0.17754983032E+02  0.42686806029E+01 -0.41498041970E+01  0.72461496551E+02  0.69999903936E+02 0.  0.
         12    1    1    2    0    0 -0.17754983032E+02 -0.42686806029E+01  0.41498041970E+01  0.18726503449E+02  0.00000000000E+00 0. -1.
         11    1    3    3    0    0  0.31027850202E+01  0.76270561295E+01 -0.31246976171E+02  0.32313662439E+02  0.51100000000E-03 0. -1.
        -11    1    3    3    0    0  0.36593831020E+01 -0.32819465030E+01 -0.45177111758E+01  0.66762243869E+01  0.51100000000E-03 0.  1.
        -12    1    3    3    0    0  0.10992814910E+02 -0.76429023642E-01  0.31614883150E+02  0.33471609726E+02  0.00000000000E+00 0.  1.
</event>
<event>
 7    1  0.2873608E-013  0.7246154E+02  0.7816164E-02  0.1226708E+00
        -11   -1    0    0    0    0  0.00000000000E+00  0.00000000000E+00  0.45593999997E+02  0.45594000000E+02  0.51100000000E-03 0.  1.
         11   -1    0    0    0    0 -0.00000000000E+00 -0.00000000000E+00 -0.45593999997E+02  0.45594000000E+02  0.51100000000E-03 0. -1.
    9900012    2    1    2    0    0  0.17610686982E+02  0.63387220074E+01  0.60376528542E+00  0.72461542108E+02  0.69999963282E+02 0.  0.
         12    1    1    2    0    0 -0.17610686982E+02 -0.63387220074E+01 -0.60376528542E+00  0.18726457892E+02  0.00000000000E+00 0. -1.
         11    1    3    3    0    0  0.72296642175E+01  0.56017912818E+01 -0.76914445327E+01  0.11950164414E+02  0.51100000000E-03 0. -1.
        -11    1    3    3    0    0  0.86614552863E+01  0.29671979521E+02  0.54351488082E+01  0.31384518782E+02  0.51100000000E-03 0.  1.
         12    1    3    3    0    0  0.17195674780E+01 -0.28935048795E+02  0.28600610099E+01  0.29126858912E+02  0.00000000000E+00 0. -1.
</event>
<event>
 7    1  0.2873608E-013  0.7246131E+02  0.7816164E-02  0.1226709E+00
        -11   -1    0    0    0    0  0.00000000000E+00  0.00000000000E+00  0.45593999997E+02  0.45594000000E+02  0.51100000000E-03 0.  1.
         11   -1    0    0    0    0 -0.00000000000E+00 -0.00000000000E+00 -0.45593999997E+02  0.45594000000E+02  0.51100000000E-03 0. -1.
    9900012    2    1    2    0    0 -0.90936212005E+00  0.90788194531E+01  0.16353506376E+02  0.72461305873E+02  0.69999655541E+02 0.  0.
         12    1    1    2    0    0  0.90936212005E+00 -0.90788194531E+01 -0.16353506376E+02  0.18726694127E+02  0.00000000000E+00 0. -1.
         11    1    3    3    0    0  0.91631216209E+01 -0.29598947367E+01 -0.32996760774E+01  0.10178980164E+02  0.51100000000E-03 0. -1.
        -11    1    3    3    0    0  0.16060777711E+02  0.18889389383E+02 -0.54692730295E+01  0.25390363520E+02  0.51100000000E-03 0.  1.
        -12    1    3    3    0    0 -0.26133261452E+02 -0.68506751933E+01  0.25122455483E+02  0.36891962190E+02  0.00000000000E+00 0.  1.
</event>
<event>
 7    1  0.2873608E-013  0.7246156E+02  0.7816164E-02  0.1226708E+00
        -11   -1    0    0    0    0  0.00000000000E+00  0.00000000000E+00  0.45593999997E+02  0.45594000000E+02  0.51100000000E-03 0.  1.
         11   -1    0    0    0    0 -0.00000000000E+00 -0.00000000000E+00 -0.45593999997E+02  0.45594000000E+02  0.51100000000E-03 0. -1.
    9900012    2    1    2    0    0  0.10175815502E+02  0.23569463569E+00  0.15718676791E+02  0.72461559517E+02  0.69999985961E+02 0.  0.
         12    1    1    2    0    0 -0.10175815502E+02 -0.23569463569E+00 -0.15718676791E+02  0.18726440483E+02  0.00000000000E+00 0. -1.
         11    1    3    3    0    0 -0.41798185703E+01  0.16418618240E+02 -0.24005878760E+01  0.17111537938E+02  0.51100000000E-03 0. -1.
        -11    1    3    3    0    0 -0.28133768403E+01  0.11727221588E+02  0.19075346706E+02  0.22567934501E+02  0.51100000000E-03 0.  1.
         12    1    3    3    0    0  0.17169010912E+02 -0.27910145192E+02 -0.95608203884E+00  0.32782087079E+02  0.00000000000E+00 0. -1.
</event>
<event>
 7    1  0.2873608E-013  0.7246159E+02  0.7816164E-02  0.1226708E+00
        -11   -1    0    0    0    0  0.00000000000E+00  0.00000000000E+00  0.45593999997E+02  0.45594000000E+02  0.51100000000E-03 0.  1.
         11   -1    0    0    0    0 -0.00000000000E+00 -0.00000000000E+00 -0.45593999997E+02  0.45594000000E+02  0.51100000000E-03 0. -1.
    9900012    2    1    2    0    0  0.53053849734E+01 -0.74957490475E+01  0.16320085884E+02  0.72461586389E+02  0.70000020966E+02 0.  0.
         12    1    1    2    0    0 -0.53053849734E+01  0.74957490475E+01 -0.16320085884E+02  0.18726413611E+02  0.00000000000E+00 0. -1.
         11    1    3    3    0    0 -0.11238224441E+01 -0.15836624468E+02 -0.64063458468E+00  0.15889369540E+02  0.51100000000E-03 0. -1.
        -11    1    3    3    0    0  0.22433506505E+02  0.21023726680E+02  0.11850936900E+01  0.30767901211E+02  0.51100000000E-03 0.  1.
         12    1    3    3    0    0 -0.16004299087E+02 -0.12682851259E+02  0.15775626778E+02  0.25804315638E+02  0.00000000000E+00 0. -1.
</event>
<event>
 7    1  0.2873608E-013  0.7246158E+02  0.7816164E-02  0.1226708E+00
        -11   -1    0    0    0    0  0.00000000000E+00  0.00000000000E+00  0.45593999997E+02  0.45594000000E+02  0.51100000000E-03 0.  1.
         11   -1    0    0    0    0 -0.00000000000E+00 -0.00000000000E+00 -0.45593999997E+02  0.45594000000E+02  0.51100000000E-03 0. -1.
    9900012    2    1    2    0    0 -0.26017216959E+01  0.15722189518E+02  0.98347715524E+01  0.72461576676E+02  0.70000008314E+02 0.  0.
         12    1    1    2    0    0  0.26017216959E+01 -0.15722189518E+02 -0.98347715524E+01  0.18726423324E+02  0.00000000000E+00 0. -1.
         11    1    3    3    0    0 -0.15097737016E+02  0.14879807762E+01  0.91828534130E+01  0.17733599376E+02  0.51100000000E-03 0. -1.
        -11    1    3    3    0    0 -0.44684207630E+01  0.30136963360E+02  0.55425790330E+01  0.30966490393E+02  0.51100000000E-03 0.  1.
         12    1    3    3    0    0  0.16964436083E+02 -0.15902754618E+02 -0.48906608936E+01  0.23761486907E+02  0.00000000000E+00 0. -1.
</event>
<event>
 7    1  0.2873608E-013  0.7246163E+02  0.7816164E-02  0.1226708E+00
        -11   -1    0    0    0    0  0.00000000000E+00  0.00000000000E+00  0.45593999997E+02  0.45594000000E+02  0.51100000000E-03 0. -1.
         11   -1    0    0    0    0 -0.00000000000E+00 -0.00000000000E+00 -0.45593999997E+02  0.45594000000E+02  0.51100000000E-03 0.  1.
    9900012    2    1    2    0    0  0.17468908354E+01 -0.64139300519E+01 -0.17506768169E+02  0.72461626672E+02  0.70000073443E+02 0.  0.
         12    1    1    2    0    0 -0.17468908354E+01  0.64139300519E+01  0.17506768169E+02  0.18726373328E+02  0.00000000000E+00 0. -1.
         11    1    3    3    0    0 -0.22359346378E+02  0.18614880700E+02 -0.38557104058E+01  0.29348264973E+02  0.51100000000E-03 0. -1.
        -11    1    3    3    0    0 -0.53003347815E+00 -0.11803257815E+02  0.39539493414E+00  0.11821766702E+02  0.51100000000E-03 0.  1.
        -12    1    3    3    0    0  0.24636270692E+02 -0.13225552937E+02 -0.14046452697E+02  0.31291594997E+02  0.00000000000E+00 0.  1.
</event>
<event>
 7    1  0.2873608E-013  0.7246155E+02  0.7816164E-02  0.1226708E+00
        -11   -1    0    0    0    0  0.00000000000E+00  0.00000000000E+00  0.45593999997E+02  0.45594000000E+02  0.51100000000E-03 0.  1.
         11   -1    0    0    0    0 -0.00000000000E+00 -0.00000000000E+00 -0.45593999997E+02  0.45594000000E+02  0.51100000000E-03 0. -1.
    9900012    2    1    2    0    0  0.34027416690E+01 -0.84891816660E+01  0.16341206043E+02  0.72461551560E+02  0.69999975595E+02 0.  0.
         12    1    1    2    0    0 -0.34027416690E+01  0.84891816660E+01 -0.16341206043E+02  0.18726448440E+02  0.00000000000E+00 0. -1.
         11    1    3    3    0    0  0.70095061185E+00  0.11750246639E+02 -0.87476295724E+01  0.14665628225E+02  0.51100000000E-03 0. -1.
        -11    1    3    3    0    0 -0.21515679514E+02 -0.27547082520E+01  0.66261670123E+01  0.22680806247E+02  0.51100000000E-03 0.  1.
        -12    1    3    3    0    0  0.24217470571E+02 -0.17484720053E+02  0.18462668603E+02  0.35115117088E+02  0.00000000000E+00 0.  1.
</event>
<event>
 7    1  0.2873608E-013  0.7246160E+02  0.7816164E-02  0.1226708E+00
        -11   -1    0    0    0    0  0.00000000000E+00  0.00000000000E+00  0.45593999997E+02  0.45594000000E+02  0.51100000000E-03 0.  1.
         11   -1    0    0    0    0 -0.00000000000E+00 -0.00000000000E+00 -0.45593999997E+02  0.45594000000E+02  0.51100000000E-03 0. -1.
    9900012    2    1    2    0    0 -0.14661137915E+02  0.92243401054E+01 -0.71162276384E+01  0.72461598554E+02  0.70000036813E+02 0.  0.
         12    1    1    2    0    0  0.14661137915E+02 -0.92243401054E+01  0.71162276384E+01  0.18726401446E+02  0.00000000000E+00 0. -1.
         11    1    3    3    0    0 -0.19021338128E+02  0.10096831936E+02 -0.98313168386E+01  0.23673024952E+02  0.51100000000E-03 0. -1.
        -11    1    3    3    0    0 -0.42236911324E+00  0.22580973225E+02  0.85540248763E+01  0.24150571201E+02  0.51100000000E-03 0.  1.
         12    1    3    3    0    0  0.47825693265E+01 -0.23453465056E+02 -0.58389356760E+01  0.24638002401E+02  0.00000000000E+00 0. -1.
</event>
<event>
 7    1  0.2873608E-013  0.7246158E+02  0.7816164E-02  0.1226708E+00
        -11   -1    0    0    0    0  0.00000000000E+00  0.00000000000E+00  0.45593999997E+02  0.45594000000E+02  0.51100000000E-03 0.  1.
         11   -1    0    0    0    0 -0.00000000000E+00 -0.00000000000E+00 -0.45593999997E+02  0.45594000000E+02  0.51100000000E-03 0. -1.
    9900012    2    1    2    0    0  0.12005151969E+02  0.30538726007E+01  0.14043825818E+02  0.72461578685E+02  0.70000010930E+02 0.  0.
         12    1    1    2    0    0 -0.12005151969E+02 -0.30538726007E+01 -0.14043825818E+02  0.18726421315E+02  0.00000000000E+00 0. -1.
         11    1    3    3    0    0 -0.57609664006E+01 -0.30870715021E+02  0.18219209425E+01  0.31456464772E+02  0.51100000000E-03 0. -1.
        -11    1    3    3    0    0 -0.35630394063E+00  0.79259302971E+00  0.15245619293E+01  0.17548349057E+01  0.51100000000E-03 0.  1.
        -12    1    3    3    0    0  0.18122422310E+02  0.33131994592E+02  0.10697342946E+02  0.39250279007E+02  0.00000000000E+00 0.  1.
</event>
<event>
 7    1  0.2873608E-013  0.7246157E+02  0.7816164E-02  0.1226708E+00
        -11   -1    0    0    0    0  0.00000000000E+00  0.00000000000E+00  0.45593999997E+02  0.45594000000E+02  0.51100000000E-03 0.  1.
         11   -1    0    0    0    0 -0.00000000000E+00 -0.00000000000E+00 -0.45593999997E+02  0.45594000000E+02  0.51100000000E-03 0. -1.
    9900012    2    1    2    0    0  0.34849998580E+01  0.16159078560E+02  0.87987530621E+01  0.72461572168E+02  0.70000002440E+02 0.  0.
         12    1    1    2    0    0 -0.34849998580E+01 -0.16159078560E+02 -0.87987530621E+01  0.18726427832E+02  0.00000000000E+00 0. -1.
         11    1    3    3    0    0 -0.14114124173E+02 -0.90385513882E+01 -0.72241121510E+01  0.18250800229E+02  0.51100000000E-03 0. -1.
        -11    1    3    3    0    0  0.13202848793E+02  0.16852350920E+01 -0.11610728701E+02  0.17662509867E+02  0.51100000000E-03 0.  1.
        -12    1    3    3    0    0  0.43962752374E+01  0.23512394856E+02  0.27633593914E+02  0.36548262072E+02  0.00000000000E+00 0.  1.
</event>
<event>
 7    1  0.2873608E-013  0.7246155E+02  0.7816164E-02  0.1226708E+00
        -11   -1    0    0    0    0  0.00000000000E+00  0.00000000000E+00  0.45593999997E+02  0.45594000000E+02  0.51100000000E-03 0.  1.
         11   -1    0    0    0    0 -0.00000000000E+00 -0.00000000000E+00 -0.45593999997E+02  0.45594000000E+02  0.51100000000E-03 0. -1.
    9900012    2    1    2    0    0  0.14483911971E+02  0.11630780988E+02 -0.23709302846E+01  0.72461545910E+02  0.69999968235E+02 0.  0.
         12    1    1    2    0    0 -0.14483911971E+02 -0.11630780988E+02  0.23709302846E+01  0.18726454090E+02  0.00000000000E+00 0. -1.
         11    1    3    3    0    0  0.15970499497E+02  0.15239086264E+02 -0.24490177119E+02  0.32970522894E+02  0.51100000000E-03 0. -1.
        -11    1    3    3    0    0  0.10972310852E+02 -0.96376665337E+01  0.15328171480E+01  0.14684200704E+02  0.51100000000E-03 0.  1.
        -12    1    3    3    0    0 -0.12458898378E+02  0.60293612578E+01  0.20586429687E+02  0.24806822312E+02  0.00000000000E+00 0.  1.
</event>
<event>
 7    1  0.2873608E-013  0.7246156E+02  0.7816164E-02  0.1226708E+00
        -11   -1    0    0    0    0  0.00000000000E+00  0.00000000000E+00  0.45593999997E+02  0.45594000000E+02  0.51100000000E-03 0.  1.
         11   -1    0    0    0    0 -0.00000000000E+00 -0.00000000000E+00 -0.45593999997E+02  0.45594000000E+02  0.51100000000E-03 0. -1.
    9900012    2    1    2    0    0  0.70183641427E-01 -0.39628103013E+01  0.18302210298E+02  0.72461556316E+02  0.69999981791E+02 0.  0.
         12    1    1    2    0    0 -0.70183641427E-01  0.39628103013E+01 -0.18302210298E+02  0.18726443684E+02  0.00000000000E+00 0. -1.
         11    1    3    3    0    0 -0.13774214432E+01  0.87957541087E+01  0.37626498332E+01  0.96654081239E+01  0.51100000000E-03 0. -1.
        -11    1    3    3    0    0 -0.15384657181E+02  0.17031564654E+02 -0.48635606765E+01  0.23460948273E+02  0.51100000000E-03 0.  1.
         12    1    3    3    0    0  0.16832262266E+02 -0.29790129064E+02  0.19403121142E+02  0.39335199919E+02  0.00000000000E+00 0. -1.
</event>
<event>
 7    1  0.2873608E-013  0.7246161E+02  0.7816164E-02  0.1226708E+00
        -11   -1    0    0    0    0  0.00000000000E+00  0.00000000000E+00  0.45593999997E+02  0.45594000000E+02  0.51100000000E-03 0. -1.
         11   -1    0    0    0    0 -0.00000000000E+00 -0.00000000000E+00 -0.45593999997E+02  0.45594000000E+02  0.51100000000E-03 0.  1.
    9900012    2    1    2    0    0  0.17690550384E+02 -0.38686759570E+01 -0.47702547829E+01  0.72461613342E+02  0.70000056078E+02 0.  0.
         12    1    1    2    0    0 -0.17690550384E+02  0.38686759570E+01  0.47702547829E+01  0.18726386658E+02  0.00000000000E+00 0. -1.
         11    1    3    3    0    0  0.46856229819E+01  0.76597407615E+00  0.96016983108E+01  0.10711413993E+02  0.51100000000E-03 0. -1.
        -11    1    3    3    0    0  0.36100134279E+02 -0.27531066439E+01 -0.13243109009E+02  0.38550995157E+02  0.51100000000E-03 0.  1.
         12    1    3    3    0    0 -0.23095206876E+02 -0.18815433893E+01 -0.11288440850E+01  0.23199204192E+02  0.00000000000E+00 0. -1.
</event>
<event>
 7    1  0.2873608E-013  0.7246155E+02  0.7816164E-02  0.1226708E+00
        -11   -1    0    0    0    0  0.00000000000E+00  0.00000000000E+00  0.45593999997E+02  0.45594000000E+02  0.51100000000E-03 0. -1.
         11   -1    0    0    0    0 -0.00000000000E+00 -0.00000000000E+00 -0.45593999997E+02  0.45594000000E+02  0.51100000000E-03 0.  1.
    9900012    2    1    2    0    0 -0.16630570810E+02 -0.79049346432E+01 -0.34082455435E+01  0.72461547723E+02  0.69999970597E+02 0.  0.
         12    1    1    2    0    0  0.16630570810E+02  0.79049346432E+01  0.34082455435E+01  0.18726452277E+02  0.00000000000E+00 0. -1.
         11    1    3    3    0    0 -0.81656175715E-01 -0.40050407204E+01  0.15393129662E+02  0.15905831005E+02  0.51100000000E-03 0. -1.
        -11    1    3    3    0    0  0.17448600045E+02  0.85394255741E+00 -0.11246554059E+00  0.17469845740E+02  0.51100000000E-03 0.  1.
        -12    1    3    3    0    0 -0.33997514680E+02 -0.47538364802E+01 -0.18688909665E+02  0.39085870978E+02  0.00000000000E+00 0.  1.
</event>
<event>
 7    1  0.2873608E-013  0.7246127E+02  0.7816164E-02  0.1226709E+00
        -11   -1    0    0    0    0  0.00000000000E+00  0.00000000000E+00  0.45593999997E+02  0.45594000000E+02  0.51100000000E-03 0.  1.
         11   -1    0    0    0    0 -0.00000000000E+00 -0.00000000000E+00 -0.45593999997E+02  0.45594000000E+02  0.51100000000E-03 0. -1.
    9900012    2    1    2    0    0  0.13122127259E+02 -0.10842688004E+02  0.78061757428E+01  0.72461268126E+02  0.69999606369E+02 0.  0.
         12    1    1    2    0    0 -0.13122127259E+02  0.10842688004E+02 -0.78061757428E+01  0.18726731874E+02  0.00000000000E+00 0. -1.
         11    1    3    3    0    0 -0.29845267411E+01 -0.86240020245E+01 -0.20801965245E+02  0.22715689932E+02  0.51100000000E-03 0. -1.
        -11    1    3    3    0    0 -0.11150535927E+02  0.45948257329E+01  0.50296082917E+01  0.13066898438E+02  0.51100000000E-03 0.  1.
         12    1    3    3    0    0  0.27257189927E+02 -0.68135117119E+01  0.23578532696E+02  0.36678679756E+02  0.00000000000E+00 0. -1.
</event>
<event>
 7    1  0.2873608E-013  0.7246158E+02  0.7816164E-02  0.1226708E+00
        -11   -1    0    0    0    0  0.00000000000E+00  0.00000000000E+00  0.45593999997E+02  0.45594000000E+02  0.51100000000E-03 0. -1.
         11   -1    0    0    0    0 -0.00000000000E+00 -0.00000000000E+00 -0.45593999997E+02  0.45594000000E+02  0.51100000000E-03 0.  1.
    9900012    2    1    2    0    0 -0.48293688147E+01  0.11894908031E+02 -0.13633307770E+02  0.72461582271E+02  0.70000015602E+02 0.  0.
         12    1    1    2    0    0  0.48293688147E+01 -0.11894908031E+02  0.13633307770E+02  0.18726417729E+02  0.00000000000E+00 0. -1.
         11    1    3    3    0    0 -0.11216421336E+02  0.93205473424E+01  0.24214326812E+02  0.28266841592E+02  0.51100000000E-03 0. -1.
        -11    1    3    3    0    0 -0.77694718397E+01  0.37246740782E+01 -0.14385030523E+02  0.16768034860E+02  0.51100000000E-03 0.  1.
        -12    1    3    3    0    0  0.14156524361E+02 -0.11503133896E+01 -0.23462604059E+02  0.27426705819E+02  0.00000000000E+00 0.  1.
</event>
<event>
 7    1  0.2873608E-013  0.7246159E+02  0.7816164E-02  0.1226708E+00
        -11   -1    0    0    0    0  0.00000000000E+00  0.00000000000E+00  0.45593999997E+02  0.45594000000E+02  0.51100000000E-03 0. -1.
         11   -1    0    0    0    0 -0.00000000000E+00 -0.00000000000E+00 -0.45593999997E+02  0.45594000000E+02  0.51100000000E-03 0.  1.
    9900012    2    1    2    0    0  0.17075510653E+02 -0.76877601940E+01  0.62310931675E-01  0.72461585407E+02  0.70000019687E+02 0.  0.
         12    1    1    2    0    0 -0.17075510653E+02  0.76877601940E+01 -0.62310931675E-01  0.18726414593E+02  0.00000000000E+00 0. -1.
         11    1    3    3    0    0 -0.23118616957E+01 -0.46397602074E+00  0.77984828985E+01  0.81471660121E+01  0.51100000000E-03 0. -1.
        -11    1    3    3    0    0  0.29808977632E+02  0.10551010047E+02  0.13806915282E+02  0.34504055854E+02  0.51100000000E-03 0.  1.
        -12    1    3    3    0    0 -0.10421605284E+02 -0.17774794220E+02 -0.21543087249E+02  0.29810363542E+02  0.00000000000E+00 0.  1.
</event>
<event>
 7    1  0.2873608E-013  0.7246157E+02  0.7816164E-02  0.1226708E+00
        -11   -1    0    0    0    0  0.00000000000E+00  0.00000000000E+00  0.45593999997E+02  0.45594000000E+02  0.51100000000E-03 0.  1.
         11   -1    0    0    0    0 -0.00000000000E+00 -0.00000000000E+00 -0.45593999997E+02  0.45594000000E+02  0.51100000000E-03 0. -1.
    9900012    2    1    2    0    0 -0.65261109902E-01  0.13231100853E+02  0.13251898036E+02  0.72461572408E+02  0.70000002754E+02 0.  0.
         12    1    1    2    0    0  0.65261109902E-01 -0.13231100853E+02 -0.13251898036E+02  0.18726427592E+02  0.00000000000E+00 0. -1.
         11    1    3    3    0    0 -0.76745435781E+01 -0.49959186100E+01  0.10880961001E+02  0.14221572855E+02  0.51100000000E-03 0. -1.
        -11    1    3    3    0    0 -0.20179275523E+02  0.14033870253E+02  0.13465364743E+02  0.28026214922E+02  0.51100000000E-03 0.  1.
         12    1    3    3    0    0  0.27788557992E+02  0.41931492104E+01 -0.11094427709E+02  0.30213784631E+02  0.00000000000E+00 0. -1.
</event>
<event>
 7    1  0.2873608E-013  0.7246156E+02  0.7816164E-02  0.1226708E+00
        -11   -1    0    0    0    0  0.00000000000E+00  0.00000000000E+00  0.45593999997E+02  0.45594000000E+02  0.51100000000E-03 0.  1.
         11   -1    0    0    0    0 -0.00000000000E+00 -0.00000000000E+00 -0.45593999997E+02  0.45594000000E+02  0.51100000000E-03 0. -1.
    9900012    2    1    2    0    0  0.52443977222E+01 -0.98184771538E+01  0.15059000521E+02  0.72461556190E+02  0.69999981627E+02 0.  0.
         12    1    1    2    0    0 -0.52443977222E+01  0.98184771538E+01 -0.15059000521E+02  0.18726443810E+02  0.00000000000E+00 0. -1.
         11    1    3    3    0    0 -0.97960492856E+01  0.52783393081E+01 -0.96016045706E+01  0.14697423517E+02  0.51100000000E-03 0. -1.
        -11    1    3    3    0    0 -0.72005449797E+00  0.12635159373E+02 -0.55607261050E+01  0.13823436835E+02  0.51100000000E-03 0.  1.
        -12    1    3    3    0    0  0.15760501506E+02 -0.27731975835E+02  0.30221331196E+02  0.43940695838E+02  0.00000000000E+00 0.  1.
</event>
<event>
 7    1  0.2873608E-013  0.7246157E+02  0.7816164E-02  0.1226708E+00
        -11   -1    0    0    0    0  0.00000000000E+00  0.00000000000E+00  0.45593999997E+02  0.45594000000E+02  0.51100000000E-03 0. -1.
         11   -1    0    0    0    0 -0.00000000000E+00 -0.00000000000E+00 -0.45593999997E+02  0.45594000000E+02  0.51100000000E-03 0.  1.
    9900012    2    1    2    0    0 -0.76838170539E+01 -0.94389859312E+01 -0.14231781893E+02  0.72461571730E+02  0.70000001870E+02 0.  0.
         12    1    1    2    0    0  0.76838170539E+01  0.94389859312E+01  0.14231781893E+02  0.18726428270E+02  0.00000000000E+00 0. -1.
         11    1    3    3    0    0  0.48889800539E+01 -0.12608022851E+02  0.11683272734E+01  0.13573111473E+02  0.51100000000E-03 0. -1.
        -11    1    3    3    0    0  0.16427311753E+02 -0.14091948717E+02 -0.12552845155E+02  0.25020262026E+02  0.51100000000E-03 0.  1.
         12    1    3    3    0    0 -0.29000108861E+02  0.17260985637E+02 -0.28472640111E+01  0.33868198231E+02  0.00000000000E+00 0. -1.
</event>
<event>
 7    1  0.2873608E-013  0.7246157E+02  0.7816164E-02  0.1226708E+00
        -11   -1    0    0    0    0  0.00000000000E+00  0.00000000000E+00  0.45593999997E+02  0.45594000000E+02  0.51100000000E-03 0. -1.
         11   -1    0    0    0    0 -0.00000000000E+00 -0.00000000000E+00 -0.45593999997E+02  0.45594000000E+02  0.51100000000E-03 0.  1.
    9900012    2    1    2    0    0  0.52043675858E+01 -0.16479324261E+02  0.72128724377E+01  0.72461572181E+02  0.70000002457E+02 0.  0.
         12    1    1    2    0    0 -0.52043675858E+01  0.16479324261E+02 -0.72128724377E+01  0.18726427819E+02  0.00000000000E+00 0. -1.
         11    1    3    3    0    0  0.12696674740E+02 -0.69315566646E+01  0.35115328254E+02  0.37978129310E+02  0.51100000000E-03 0. -1.
        -11    1    3    3    0    0  0.14562858385E+01 -0.12848849415E+01  0.16315436633E+01  0.25364606724E+01  0.51100000000E-03 0.  1.
        -12    1    3    3    0    0 -0.89485929927E+01 -0.82628826549E+01 -0.29533999480E+02  0.31946982198E+02  0.00000000000E+00 0.  1.
</event>
<event>
 7    1  0.2873608E-013  0.7246154E+02  0.7816164E-02  0.1226708E+00
        -11   -1    0    0    0    0  0.00000000000E+00  0.00000000000E+00  0.45593999997E+02  0.45594000000E+02  0.51100000000E-03 0.  1.
         11   -1    0    0    0    0 -0.00000000000E+00 -0.00000000000E+00 -0.45593999997E+02  0.45594000000E+02  0.51100000000E-03 0. -1.
    9900012    2    1    2    0    0 -0.93622969026E+01 -0.16031859297E+02 -0.24509609801E+01  0.72461539428E+02  0.69999959791E+02 0.  0.
         12    1    1    2    0    0  0.93622969026E+01  0.16031859297E+02  0.24509609801E+01  0.18726460572E+02  0.00000000000E+00 0. -1.
         11    1    3    3    0    0 -0.81405845692E+01 -0.87789679608E+01 -0.52220050040E+01  0.13061727761E+02  0.51100000000E-03 0. -1.
        -11    1    3    3    0    0 -0.17380395680E+02 -0.27982672481E+02  0.33415938232E+01  0.33110034170E+02  0.51100000000E-03 0.  1.
        -12    1    3    3    0    0  0.16158683347E+02  0.20729781144E+02 -0.57054979933E+00  0.26289777497E+02  0.00000000000E+00 0.  1.
</event>
<event>
 7    1  0.2873608E-013  0.7246157E+02  0.7816164E-02  0.1226708E+00
        -11   -1    0    0    0    0  0.00000000000E+00  0.00000000000E+00  0.45593999997E+02  0.45594000000E+02  0.51100000000E-03 0.  1.
         11   -1    0    0    0    0 -0.00000000000E+00 -0.00000000000E+00 -0.45593999997E+02  0.45594000000E+02  0.51100000000E-03 0. -1.
    9900012    2    1    2    0    0  0.13394120143E+01  0.12585116295E+02  0.13802177041E+02  0.72461567671E+02  0.69999996583E+02 0.  0.
         12    1    1    2    0    0 -0.13394120143E+01 -0.12585116295E+02 -0.13802177041E+02  0.18726432329E+02  0.00000000000E+00 0. -1.
         11    1    3    3    0    0 -0.10433356051E+02  0.22713016506E+02 -0.19178063610E+02  0.31504510175E+02  0.51100000000E-03 0. -1.
        -11    1    3    3    0    0  0.62929923871E+01  0.45234437433E+01  0.61249116952E+01  0.98781496252E+01  0.51100000000E-03 0.  1.
        -12    1    3    3    0    0  0.54797756784E+01 -0.14651343955E+02  0.26855328955E+02  0.31078907871E+02  0.00000000000E+00 0.  1.
</event>
<event>
 7    1  0.2873608E-013  0.7246154E+02  0.7816164E-02  0.1226708E+00
        -11   -1    0    0    0    0  0.00000000000E+00  0.00000000000E+00  0.45593999997E+02  0.45594000000E+02  0.51100000000E-03 0. -1.
         11   -1    0    0    0    0 -0.00000000000E+00 -0.00000000000E+00 -0.45593999997E+02  0.45594000000E+02  0.51100000000E-03 0.  1.
    9900012    2    1    2    0    0 -0.14508891421E+02 -0.29283411214E-01 -0.11839397765E+02  0.72461544723E+02  0.69999966689E+02 0.  0.
         12    1    1    2    0    0  0.14508891421E+02  0.29283411214E-01  0.11839397765E+02  0.18726455277E+02  0.00000000000E+00 0. -1.
         11    1    3    3    0    0 -0.10792761823E+02 -0.58208080345E+00  0.47126227072E+01  0.11791155112E+02  0.51100000000E-03 0. -1.
        -11    1    3    3    0    0 -0.74460528313E+01  0.83809700212E+01  0.20095386451E+02  0.23011060778E+02  0.51100000000E-03 0.  1.
        -12    1    3    3    0    0  0.37299232327E+01 -0.78281726290E+01 -0.36647406923E+02  0.37659328833E+02  0.00000000000E+00 0.  1.
</event>
<event>
 7    1  0.2873608E-013  0.7246156E+02  0.7816164E-02  0.1226708E+00
        -11   -1    0    0    0    0  0.00000000000E+00  0.00000000000E+00  0.45593999997E+02  0.45594000000E+02  0.51100000000E-03 0. -1.
         11   -1    0    0    0    0 -0.00000000000E+00 -0.00000000000E+00 -0.45593999997E+02  0.45594000000E+02  0.51100000000E-03 0.  1.
    9900012    2    1    2    0    0  0.53886554342E+01 -0.17340642744E+02 -0.45764782649E+01  0.72461557426E+02  0.69999983236E+02 0.  0.
         12    1    1    2    0    0 -0.53886554342E+01  0.17340642744E+02  0.45764782649E+01  0.18726442574E+02  0.00000000000E+00 0. -1.
         11    1    3    3    0    0 -0.36227340049E+01 -0.48943818502E+01 -0.24369517009E+02  0.25118768578E+02  0.51100000000E-03 0. -1.
        -11    1    3    3    0    0  0.11602143821E+02  0.11846863678E+02  0.11695452707E+01  0.16623048958E+02  0.51100000000E-03 0.  1.
         12    1    3    3    0    0 -0.25907543819E+01 -0.24293124572E+02  0.18623493474E+02  0.30719739890E+02  0.00000000000E+00 0. -1.
</event>
<event>
 7    1  0.2873608E-013  0.7246160E+02  0.7816164E-02  0.1226708E+00
        -11   -1    0    0    0    0  0.00000000000E+00  0.00000000000E+00  0.45593999997E+02  0.45594000000E+02  0.51100000000E-03 0.  1.
         11   -1    0    0    0    0 -0.00000000000E+00 -0.00000000000E+00 -0.45593999997E+02  0.45594000000E+02  0.51100000000E-03 0. -1.
    9900012    2    1    2    0    0  0.90203573464E+01 -0.99963529777E+00  0.16380226785E+02  0.72461602938E+02  0.70000042524E+02 0.  0.
         12    1    1    2    0    0 -0.90203573464E+01  0.99963529777E+00 -0.16380226785E+02  0.18726397062E+02  0.00000000000E+00 0. -1.
         11    1    3    3    0    0 -0.10322541229E+02 -0.60041544586E+01 -0.20856225615E+01  0.12122481178E+02  0.51100000000E-03 0. -1.
        -11    1    3    3    0    0 -0.42730386549E+01 -0.21172532634E+01  0.31898039832E+02  0.32252543560E+02  0.51100000000E-03 0.  1.
         12    1    3    3    0    0  0.23615937230E+02  0.71217724242E+01 -0.13432190485E+02  0.28086578199E+02  0.00000000000E+00 0. -1.
</event>
<event>
 7    1  0.2873608E-013  0.7246159E+02  0.7816164E-02  0.1226708E+00
        -11   -1    0    0    0    0  0.00000000000E+00  0.00000000000E+00  0.45593999997E+02  0.45594000000E+02  0.51100000000E-03 0.  1.
         11   -1    0    0    0    0 -0.00000000000E+00 -0.00000000000E+00 -0.45593999997E+02  0.45594000000E+02  0.51100000000E-03 0. -1.
    9900012    2    1    2    0    0 -0.34234445096E+01 -0.12419144223E+02  0.13591290404E+02  0.72461593767E+02  0.70000030577E+02 0.  0.
         12    1    1    2    0    0  0.34234445096E+01  0.12419144223E+02 -0.13591290404E+02  0.18726406233E+02  0.00000000000E+00 0. -1.
         11    1    3    3    0    0 -0.70732949859E+01 -0.14404902315E+02 -0.18491542934E+02  0.24484073865E+02  0.51100000000E-03 0. -1.
        -11    1    3    3    0    0  0.13664602702E+02 -0.36442441918E+01  0.26028684764E+00  0.14144597281E+02  0.51100000000E-03 0.  1.
         12    1    3    3    0    0 -0.10014752226E+02  0.56300022835E+01  0.31822546491E+02  0.33832922621E+02  0.00000000000E+00 0. -1.
</event>
<event>
 7    1  0.2873608E-013  0.7246160E+02  0.7816164E-02  0.1226708E+00
        -11   -1    0    0    0    0  0.00000000000E+00  0.00000000000E+00  0.45593999997E+02  0.45594000000E+02  0.51100000000E-03 0. -1.
         11   -1    0    0    0    0 -0.00000000000E+00 -0.00000000000E+00 -0.45593999997E+02  0.45594000000E+02  0.51100000000E-03 0.  1.
    9900012    2    1    2    0    0 -0.10324611247E+02 -0.73723349513E+01 -0.13774222588E+02  0.72461598105E+02  0.70000036229E+02 0.  0.
         12    1    1    2    0    0  0.10324611247E+02  0.73723349513E+01  0.13774222588E+02  0.18726401895E+02  0.00000000000E+00 0. -1.
         11    1    3    3    0    0  0.40223530811E+01  0.17631962218E+02 -0.18915441974E+02  0.26169817754E+02  0.51100000000E-03 0. -1.
        -11    1    3    3    0    0 -0.36686544784E+01 -0.70565828966E+01 -0.15189593621E+02  0.17145790809E+02  0.51100000000E-03 0.  1.
         12    1    3    3    0    0 -0.10678309849E+02 -0.17947714272E+02  0.20330813007E+02  0.29145989542E+02  0.00000000000E+00 0. -1.
</event>
<event>
 7    1  0.2873608E-013  0.7246157E+02  0.7816164E-02  0.1226708E+00
        -11   -1    0    0    0    0  0.00000000000E+00  0.00000000000E+00  0.45593999997E+02  0.45594000000E+02  0.51100000000E-03 0.  1.
         11   -1    0    0    0    0 -0.00000000000E+00 -0.00000000000E+00 -0.45593999997E+02  0.45594000000E+02  0.51100000000E-03 0. -1.
    9900012    2    1    2    0    0  0.48740725943E+01  0.18049856269E+02  0.10608125881E+01  0.72461568991E+02  0.69999998302E+02 0.  0.
         12    1    1    2    0    0 -0.48740725943E+01 -0.18049856269E+02 -0.10608125881E+01  0.18726431009E+02  0.00000000000E+00 0. -1.
         11    1    3    3    0    0 -0.10173688725E+02 -0.90553269494E+00 -0.13160069788E+02  0.16658672481E+02  0.51100000000E-03 0. -1.
        -11    1    3    3    0    0  0.65503189797E+01  0.29501786502E+02 -0.66304435646E+01  0.30939050853E+02  0.51100000000E-03 0.  1.
        -12    1    3    3    0    0  0.84974423396E+01 -0.10546397539E+02  0.20851325941E+02  0.24863845657E+02  0.00000000000E+00 0.  1.
</event>
<event>
 7    1  0.2873608E-013  0.7246154E+02  0.7816164E-02  0.1226708E+00
        -11   -1    0    0    0    0  0.00000000000E+00  0.00000000000E+00  0.45593999997E+02  0.45594000000E+02  0.51100000000E-03 0.  1.
         11   -1    0    0    0    0 -0.00000000000E+00 -0.00000000000E+00 -0.45593999997E+02  0.45594000000E+02  0.51100000000E-03 0. -1.
    9900012    2    1    2    0    0  0.62520802622E+01 -0.33688122896E+01  0.17327514410E+02  0.72461543862E+02  0.69999965568E+02 0.  0.
         12    1    1    2    0    0 -0.62520802622E+01  0.33688122896E+01 -0.17327514410E+02  0.18726456138E+02  0.00000000000E+00 0. -1.
         11    1    3    3    0    0 -0.45008614896E+01 -0.24076406510E+01 -0.13900651713E+02  0.14808193879E+02  0.51100000000E-03 0. -1.
        -11    1    3    3    0    0 -0.89550249190E+01  0.97329137767E+01 -0.57391683517E+01  0.14417355358E+02  0.51100000000E-03 0.  1.
        -12    1    3    3    0    0  0.19707966671E+02 -0.10694085415E+02  0.36967334474E+02  0.43235994626E+02  0.00000000000E+00 0.  1.
</event>
<event>
 7    1  0.2873608E-013  0.7246179E+02  0.7816164E-02  0.1226707E+00
        -11   -1    0    0    0    0  0.00000000000E+00  0.00000000000E+00  0.45593999997E+02  0.45594000000E+02  0.51100000000E-03 0.  1.
         11   -1    0    0    0    0 -0.00000000000E+00 -0.00000000000E+00 -0.45593999997E+02  0.45594000000E+02  0.51100000000E-03 0. -1.
    9900012    2    1    2    0    0  0.31139901880E+01 -0.18461615990E+02  0.37770615374E+00  0.72461792114E+02  0.70000288961E+02 0.  0.
         12    1    1    2    0    0 -0.31139901880E+01  0.18461615990E+02 -0.37770615374E+00  0.18726207886E+02  0.00000000000E+00 0. -1.
         11    1    3    3    0    0 -0.19544601903E+02  0.48341873481E+01 -0.16285665234E+02  0.25895631355E+02  0.51100000000E-03 0. -1.
        -11    1    3    3    0    0  0.11480108450E+01  0.64263570898E+01  0.44370031341E+01  0.78932243994E+01  0.51100000000E-03 0.  1.
        -12    1    3    3    0    0  0.21510581246E+02 -0.29722160428E+02  0.12226368253E+02  0.38672936360E+02  0.00000000000E+00 0.  1.
</event>
<event>
 7    1  0.2873608E-013  0.7246168E+02  0.7816164E-02  0.1226708E+00
        -11   -1    0    0    0    0  0.00000000000E+00  0.00000000000E+00  0.45593999997E+02  0.45594000000E+02  0.51100000000E-03 0. -1.
         11   -1    0    0    0    0 -0.00000000000E+00 -0.00000000000E+00 -0.45593999997E+02  0.45594000000E+02  0.51100000000E-03 0.  1.
    9900012    2    1    2    0    0  0.17047075044E+02  0.55611785720E+01 -0.53986550124E+01  0.72461682941E+02  0.70000146743E+02 0.  0.
         12    1    1    2    0    0 -0.17047075044E+02 -0.55611785720E+01  0.53986550124E+01  0.18726317059E+02  0.00000000000E+00 0. -1.
         11    1    3    3    0    0  0.10251575519E+02 -0.14172451190E+02 -0.40907291327E+01  0.17963497389E+02  0.51100000000E-03 0. -1.
        -11    1    3    3    0    0  0.17444446020E+02  0.80726376627E+01 -0.21516033555E+02  0.28851618256E+02  0.51100000000E-03 0.  1.
        -12    1    3    3    0    0 -0.10648946495E+02  0.11660992100E+02  0.20208107676E+02  0.25646567296E+02  0.00000000000E+00 0.  1.
</event>
<event>
 7    1  0.2873608E-013  0.7246147E+02  0.7816164E-02  0.1226708E+00
        -11   -1    0    0    0    0  0.00000000000E+00  0.00000000000E+00  0.45593999997E+02  0.45594000000E+02  0.51100000000E-03 0. -1.
         11   -1    0    0    0    0 -0.00000000000E+00 -0.00000000000E+00 -0.45593999997E+02  0.45594000000E+02  0.51100000000E-03 0.  1.
    9900012    2    1    2    0    0 -0.25906549141E+01 -0.22071485788E+01 -0.18414667457E+02  0.72461468680E+02  0.69999867628E+02 0.  0.
         12    1    1    2    0    0  0.25906549141E+01  0.22071485788E+01  0.18414667457E+02  0.18726531320E+02  0.00000000000E+00 0. -1.
         11    1    3    3    0    0 -0.35086347211E+00  0.22369600166E+01  0.12691382514E+02  0.12891791406E+02  0.51100000000E-03 0. -1.
        -11    1    3    3    0    0 -0.70582067007E+01  0.99255928946E+01 -0.40125310341E+02  0.41932996630E+02  0.51100000000E-03 0.  1.
         12    1    3    3    0    0  0.48184152587E+01 -0.14369701490E+02  0.90192603697E+01  0.17636680644E+02  0.00000000000E+00 0. -1.
</event>
<event>
 7    1  0.2873608E-013  0.7246161E+02  0.7816164E-02  0.1226708E+00
        -11   -1    0    0    0    0  0.00000000000E+00  0.00000000000E+00  0.45593999997E+02  0.45594000000E+02  0.51100000000E-03 0. -1.
         11   -1    0    0    0    0 -0.00000000000E+00 -0.00000000000E+00 -0.45593999997E+02  0.45594000000E+02  0.51100000000E-03 0.  1.
    9900012    2    1    2    0    0  0.15175768089E+02 -0.80333786828E+01 -0.74725317524E+01  0.72461605768E+02  0.70000046211E+02 0.  0.
         12    1    1    2    0    0 -0.15175768089E+02  0.80333786828E+01  0.74725317524E+01  0.18726394232E+02  0.00000000000E+00 0. -1.
         11    1    3    3    0    0 -0.14774624585E+02 -0.59455274472E+01  0.18873744567E+02  0.24695284216E+02  0.51100000000E-03 0. -1.
        -11    1    3    3    0    0 -0.19294436985E+01  0.49022305749E+01 -0.99117434903E+01  0.11224850862E+02  0.51100000000E-03 0.  1.
        -12    1    3    3    0    0  0.31879836373E+02 -0.69900818106E+01 -0.16434532829E+02  0.36541470690E+02  0.00000000000E+00 0.  1.
</event>
<event>
 7    1  0.2873608E-013  0.7246156E+02  0.7816164E-02  0.1226708E+00
        -11   -1    0    0    0    0  0.00000000000E+00  0.00000000000E+00  0.45593999997E+02  0.45594000000E+02  0.51100000000E-03 0.  1.
         11   -1    0    0    0    0 -0.00000000000E+00 -0.00000000000E+00 -0.45593999997E+02  0.45594000000E+02  0.51100000000E-03 0. -1.
    9900012    2    1    2    0    0 -0.16712546617E+02  0.72815880085E+01  0.42835453979E+01  0.72461561483E+02  0.69999988522E+02 0.  0.
         12    1    1    2    0    0  0.16712546617E+02 -0.72815880085E+01 -0.42835453979E+01  0.18726438517E+02  0.00000000000E+00 0. -1.
         11    1    3    3    0    0 -0.41779602596E+01  0.14657273858E+02  0.19215261123E+02  0.24525849408E+02  0.51100000000E-03 0. -1.
        -11    1    3    3    0    0 -0.77162956719E+01  0.16065014851E+02  0.29466478386E+01  0.18064015468E+02  0.51100000000E-03 0.  1.
        -12    1    3    3    0    0 -0.48182906855E+01 -0.23440700701E+02 -0.17878363564E+02  0.29871696607E+02  0.00000000000E+00 0.  1.
</event>
<event>
 7    1  0.2873608E-013  0.7246153E+02  0.7816164E-02  0.1226708E+00
        -11   -1    0    0    0    0  0.00000000000E+00  0.00000000000E+00  0.45593999997E+02  0.45594000000E+02  0.51100000000E-03 0. -1.
         11   -1    0    0    0    0 -0.00000000000E+00 -0.00000000000E+00 -0.45593999997E+02  0.45594000000E+02  0.51100000000E-03 0.  1.
    9900012    2    1    2    0    0  0.16810272407E+02 -0.40988113538E+01  0.71620515860E+01  0.72461534881E+02  0.69999953868E+02 0.  0.
         12    1    1    2    0    0 -0.16810272407E+02  0.40988113538E+01 -0.71620515860E+01  0.18726465119E+02  0.00000000000E+00 0. -1.
         11    1    3    3    0    0 -0.15259482159E+02  0.13778579497E+02  0.36973731643E+01  0.20889509743E+02  0.51100000000E-03 0. -1.
        -11    1    3    3    0    0  0.34561142229E+01  0.93095122525E+01 -0.51301743752E+01  0.11177228336E+02  0.51100000000E-03 0.  1.
        -12    1    3    3    0    0  0.28613640344E+02 -0.27186903103E+02  0.85948527969E+01  0.40394796802E+02  0.00000000000E+00 0.  1.
</event>
<event>
 7    1  0.2873608E-013  0.7246153E+02  0.7816164E-02  0.1226708E+00
        -11   -1    0    0    0    0  0.00000000000E+00  0.00000000000E+00  0.45593999997E+02  0.45594000000E+02  0.51100000000E-03 0.  1.
         11   -1    0    0    0    0 -0.00000000000E+00 -0.00000000000E+00 -0.45593999997E+02  0.45594000000E+02  0.51100000000E-03 0. -1.
    9900012    2    1    2    0    0 -0.92294860501E+01 -0.96786566060E+01  0.13108042168E+02  0.72461532743E+02  0.69999951082E+02 0.  0.
         12    1    1    2    0    0  0.92294860501E+01  0.96786566060E+01 -0.13108042168E+02  0.18726467257E+02  0.00000000000E+00 0. -1.
         11    1    3    3    0    0 -0.14302449211E+02  0.16294003983E+02  0.10910000294E+02  0.24271026470E+02  0.51100000000E-03 0. -1.
        -11    1    3    3    0    0 -0.12831615794E+02 -0.14854316848E+01 -0.91207809400E+01  0.15812827590E+02  0.51100000000E-03 0.  1.
        -12    1    3    3    0    0  0.17904578955E+02 -0.24487228904E+02  0.11318822815E+02  0.32377678683E+02  0.00000000000E+00 0.  1.
</event>
<event>
 7    1  0.2873608E-013  0.7246143E+02  0.7816164E-02  0.1226708E+00
        -11   -1    0    0    0    0  0.00000000000E+00  0.00000000000E+00  0.45593999997E+02  0.45594000000E+02  0.51100000000E-03 0.  1.
         11   -1    0    0    0    0 -0.00000000000E+00 -0.00000000000E+00 -0.45593999997E+02  0.45594000000E+02  0.51100000000E-03 0. -1.
    9900012    2    1    2    0    0 -0.13060974159E+02  0.43681235234E+01  0.12689164616E+02  0.72461429365E+02  0.69999816413E+02 0.  0.
         12    1    1    2    0    0  0.13060974159E+02 -0.43681235234E+01 -0.12689164616E+02  0.18726570635E+02  0.00000000000E+00 0. -1.
         11    1    3    3    0    0 -0.99975280091E+01  0.12949718696E+02 -0.18701463149E+01  0.16466427302E+02  0.51100000000E-03 0.  1.
        -11    1    3    3    0    0  0.10868074866E+02 -0.25679041009E+02 -0.26650820567E+01  0.28011263111E+02  0.51100000000E-03 0. -1.
         12    1    3    3    0    0 -0.13931521016E+02  0.17097445837E+02  0.17224392988E+02  0.27983738952E+02  0.00000000000E+00 0. -1.
</event>
<event>
 7    1  0.2873608E-013  0.7246155E+02  0.7816164E-02  0.1226708E+00
        -11   -1    0    0    0    0  0.00000000000E+00  0.00000000000E+00  0.45593999997E+02  0.45594000000E+02  0.51100000000E-03 0. -1.
         11   -1    0    0    0    0 -0.00000000000E+00 -0.00000000000E+00 -0.45593999997E+02  0.45594000000E+02  0.51100000000E-03 0.  1.
    9900012    2    1    2    0    0  0.18283678581E+02 -0.25259846016E+01 -0.31632821153E+01  0.72461552008E+02  0.69999976179E+02 0.  0.
         12    1    1    2    0    0 -0.18283678581E+02  0.25259846016E+01  0.31632821153E+01  0.18726447992E+02  0.00000000000E+00 0. -1.
         11    1    3    3    0    0  0.14168601256E+02  0.79932151534E+01  0.95048667072E+01  0.18840998950E+02  0.51100000000E-03 0. -1.
        -11    1    3    3    0    0  0.20949947210E+02  0.10834732235E+02  0.86123516944E-01  0.23585994323E+02  0.51100000000E-03 0.  1.
        -12    1    3    3    0    0 -0.16834869885E+02 -0.21353931990E+02 -0.12754272339E+02  0.30034558735E+02  0.00000000000E+00 0.  1.
</event>
<event>
 7    1  0.2873608E-013  0.7246164E+02  0.7816164E-02  0.1226708E+00
        -11   -1    0    0    0    0  0.00000000000E+00  0.00000000000E+00  0.45593999997E+02  0.45594000000E+02  0.51100000000E-03 0. -1.
         11   -1    0    0    0    0 -0.00000000000E+00 -0.00000000000E+00 -0.45593999997E+02  0.45594000000E+02  0.51100000000E-03 0.  1.
    9900012    2    1    2    0    0 -0.17569533432E+02 -0.40662259622E+01 -0.50451719853E+01  0.72461642667E+02  0.70000094279E+02 0.  0.
         12    1    1    2    0    0  0.17569533432E+02  0.40662259622E+01  0.50451719853E+01  0.18726357333E+02  0.00000000000E+00 0. -1.
         11    1    3    3    0    0 -0.26619576353E+02  0.24124674166E+02  0.69643153923E+01  0.36593762283E+02  0.51100000000E-03 0. -1.
        -11    1    3    3    0    0 -0.69936604627E+00 -0.14093567711E+01  0.31976195618E+01  0.35637298576E+01  0.51100000000E-03 0.  1.
        -12    1    3    3    0    0  0.97494089676E+01 -0.26781543357E+02 -0.15207106939E+02  0.32304150527E+02  0.00000000000E+00 0.  1.
</event>
<event>
 7    1  0.2873608E-013  0.7246162E+02  0.7816164E-02  0.1226708E+00
        -11   -1    0    0    0    0  0.00000000000E+00  0.00000000000E+00  0.45593999997E+02  0.45594000000E+02  0.51100000000E-03 0.  1.
         11   -1    0    0    0    0 -0.00000000000E+00 -0.00000000000E+00 -0.45593999997E+02  0.45594000000E+02  0.51100000000E-03 0. -1.
    9900012    2    1    2    0    0  0.86016677005E+01 -0.14086448863E+02 -0.88464970687E+01  0.72461621835E+02  0.70000067141E+02 0.  0.
         12    1    1    2    0    0 -0.86016677005E+01  0.14086448863E+02  0.88464970687E+01  0.18726378165E+02  0.00000000000E+00 0. -1.
         11    1    3    3    0    0 -0.57103886888E+01  0.23993073035E+01 -0.16637806617E+02  0.17753360915E+02  0.51100000000E-03 0. -1.
        -11    1    3    3    0    0 -0.14987810689E+02 -0.39492125450E+01 -0.97691498970E+01  0.18321218271E+02  0.51100000000E-03 0.  1.
        -12    1    3    3    0    0  0.29299867078E+02 -0.12536543622E+02  0.17560459445E+02  0.36387042648E+02  0.00000000000E+00 0.  1.
</event>
<event>
 7    1  0.2873608E-013  0.7246158E+02  0.7816164E-02  0.1226708E+00
        -11   -1    0    0    0    0  0.00000000000E+00  0.00000000000E+00  0.45593999997E+02  0.45594000000E+02  0.51100000000E-03 0.  1.
         11   -1    0    0    0    0 -0.00000000000E+00 -0.00000000000E+00 -0.45593999997E+02  0.45594000000E+02  0.51100000000E-03 0. -1.
    9900012    2    1    2    0    0  0.16392982008E+02  0.64782108283E+01  0.63231124029E+01  0.72461579490E+02  0.70000011979E+02 0.  0.
         12    1    1    2    0    0 -0.16392982008E+02 -0.64782108283E+01 -0.63231124029E+01  0.18726420510E+02  0.00000000000E+00 0. -1.
         11    1    3    3    0    0  0.24570618613E+01  0.17991122498E+01 -0.13731781815E+01  0.33405952250E+01  0.51100000000E-03 0. -1.
        -11    1    3    3    0    0  0.15689048414E+02  0.26539153431E+02  0.26175699566E+02  0.40443048266E+02  0.51100000000E-03 0.  1.
         12    1    3    3    0    0 -0.17531282678E+01 -0.21860054853E+02 -0.18479408982E+02  0.28677936000E+02  0.00000000000E+00 0. -1.
</event>
<event>
 7    1  0.2873608E-013  0.7246131E+02  0.7816164E-02  0.1226709E+00
        -11   -1    0    0    0    0  0.00000000000E+00  0.00000000000E+00  0.45593999997E+02  0.45594000000E+02  0.51100000000E-03 0.  1.
         11   -1    0    0    0    0 -0.00000000000E+00 -0.00000000000E+00 -0.45593999997E+02  0.45594000000E+02  0.51100000000E-03 0. -1.
    9900012    2    1    2    0    0  0.35790563347E+01 -0.10006655081E+02 -0.15419023197E+02  0.72461306044E+02  0.69999655764E+02 0.  0.
         12    1    1    2    0    0 -0.35790563347E+01  0.10006655081E+02  0.15419023197E+02  0.18726693956E+02  0.00000000000E+00 0. -1.
         11    1    3    3    0    0 -0.78836088135E+01 -0.34145298385E+02 -0.15817519426E+02  0.38447972778E+02  0.51100000000E-03 0. -1.
        -11    1    3    3    0    0  0.35004133566E+00  0.52994207607E+01  0.90489244192E+01  0.10492350678E+02  0.51100000000E-03 0.  1.
        -12    1    3    3    0    0  0.11112623813E+02  0.18839222543E+02 -0.86504281906E+01  0.23520982588E+02  0.00000000000E+00 0.  1.
</event>
<event>
 7    1  0.2873608E-013  0.7246156E+02  0.7816164E-02  0.1226708E+00
        -11   -1    0    0    0    0  0.00000000000E+00  0.00000000000E+00  0.45593999997E+02  0.45594000000E+02  0.51100000000E-03 0. -1.
         11   -1    0    0    0    0 -0.00000000000E+00 -0.00000000000E+00 -0.45593999997E+02  0.45594000000E+02  0.51100000000E-03 0.  1.
    9900012    2    1    2    0    0  0.60278252213E+01  0.87804362275E+01 -0.15402888556E+02  0.72461555780E+02  0.69999981092E+02 0.  0.
         12    1    1    2    0    0 -0.60278252213E+01 -0.87804362275E+01  0.15402888556E+02  0.18726444220E+02  0.00000000000E+00 0. -1.
         11    1    3    3    0    0  0.24066786747E+02 -0.66551646072E+01 -0.16444057125E+02  0.29898301880E+02  0.51100000000E-03 0. -1.
        -11    1    3    3    0    0  0.13707027834E+01 -0.55034598629E+01 -0.10367081228E+02  0.11817075359E+02  0.51100000000E-03 0.  1.
        -12    1    3    3    0    0 -0.19409664309E+02  0.20939060698E+02  0.11408249797E+02  0.30746178542E+02  0.00000000000E+00 0.  1.
</event>
<event>
 7    1  0.2873608E-013  0.7246158E+02  0.7816164E-02  0.1226708E+00
        -11   -1    0    0    0    0  0.00000000000E+00  0.00000000000E+00  0.45593999997E+02  0.45594000000E+02  0.51100000000E-03 0. -1.
         11   -1    0    0    0    0 -0.00000000000E+00 -0.00000000000E+00 -0.45593999997E+02  0.45594000000E+02  0.51100000000E-03 0.  1.
    9900012    2    1    2    0    0  0.86078695675E+01 -0.88400831324E+01 -0.14086740209E+02  0.72461581816E+02  0.70000015010E+02 0.  0.
         12    1    1    2    0    0 -0.86078695675E+01  0.88400831324E+01  0.14086740209E+02  0.18726418184E+02  0.00000000000E+00 0. -1.
         11    1    3    3    0    0  0.13991295754E+02  0.11214541672E+01  0.21721720141E+02  0.25862079237E+02  0.51100000000E-03 0. -1.
        -11    1    3    3    0    0 -0.12474107359E+02  0.45130105108E+01 -0.12259781391E+02  0.18063024616E+02  0.51100000000E-03 0.  1.
        -12    1    3    3    0    0  0.70906811722E+01 -0.14474547810E+02 -0.23548678959E+02  0.28536477963E+02  0.00000000000E+00 0.  1.
</event>
<event>
 7    1  0.2873608E-013  0.7246153E+02  0.7816164E-02  0.1226708E+00
        -11   -1    0    0    0    0  0.00000000000E+00  0.00000000000E+00  0.45593999997E+02  0.45594000000E+02  0.51100000000E-03 0.  1.
         11   -1    0    0    0    0 -0.00000000000E+00 -0.00000000000E+00 -0.45593999997E+02  0.45594000000E+02  0.51100000000E-03 0. -1.
    9900012    2    1    2    0    0 -0.17774292774E+02 -0.17026682261E+01 -0.56441268421E+01  0.72461528616E+02  0.69999945706E+02 0.  0.
         12    1    1    2    0    0  0.17774292774E+02  0.17026682261E+01  0.56441268421E+01  0.18726471384E+02  0.00000000000E+00 0. -1.
         11    1    3    3    0    0 -0.33898554286E+02 -0.46700938353E+01 -0.25028995064E+02  0.42395428448E+02  0.51100000000E-03 0. -1.
        -11    1    3    3    0    0  0.13516786418E+01  0.31298785522E+01 -0.20910381568E+01  0.39994519295E+01  0.51100000000E-03 0.  1.
        -12    1    3    3    0    0  0.14772582870E+02 -0.16245294292E+00  0.21475906378E+02  0.26066648239E+02  0.00000000000E+00 0.  1.
</event>
<event>
 7    1  0.2873608E-013  0.7246152E+02  0.7816164E-02  0.1226708E+00
        -11   -1    0    0    0    0  0.00000000000E+00  0.00000000000E+00  0.45593999997E+02  0.45594000000E+02  0.51100000000E-03 0.  1.
         11   -1    0    0    0    0 -0.00000000000E+00 -0.00000000000E+00 -0.45593999997E+02  0.45594000000E+02  0.51100000000E-03 0. -1.
    9900012    2    1    2    0    0 -0.13926918355E+02  0.35947322801E+01  0.11991661605E+02  0.72461518668E+02  0.69999932747E+02 0.  0.
         12    1    1    2    0    0  0.13926918355E+02 -0.35947322801E+01 -0.11991661605E+02  0.18726481332E+02  0.00000000000E+00 0. -1.
         11    1    3    3    0    0 -0.66905461481E+01  0.17908046292E+01  0.32871139361E+01  0.76665185886E+01  0.51100000000E-03 0. -1.
        -11    1    3    3    0    0 -0.16502202918E+02  0.20701936722E+02 -0.17083804209E+02  0.31507923634E+02  0.51100000000E-03 0.  1.
         12    1    3    3    0    0  0.92658307111E+01 -0.18898009071E+02  0.25788351879E+02  0.33287076445E+02  0.00000000000E+00 0. -1.
</event>
<event>
 7    1  0.2873608E-013  0.7246155E+02  0.7816164E-02  0.1226708E+00
        -11   -1    0    0    0    0  0.00000000000E+00  0.00000000000E+00  0.45593999997E+02  0.45594000000E+02  0.51100000000E-03 0. -1.
         11   -1    0    0    0    0 -0.00000000000E+00 -0.00000000000E+00 -0.45593999997E+02  0.45594000000E+02  0.51100000000E-03 0.  1.
    9900012    2    1    2    0    0 -0.11591356387E+02 -0.12011883532E+02 -0.84873540272E+01  0.72461546325E+02  0.69999968775E+02 0.  0.
         12    1    1    2    0    0  0.11591356387E+02  0.12011883532E+02  0.84873540272E+01  0.18726453675E+02  0.00000000000E+00 0. -1.
         11    1    3    3    0    0 -0.14642055487E+02  0.63034382479E+01  0.17999709675E+02  0.24043973700E+02  0.51100000000E-03 0. -1.
        -11    1    3    3    0    0 -0.53669867071E+00 -0.68795697163E+01  0.87814204961E+01  0.11168252824E+02  0.51100000000E-03 0.  1.
        -12    1    3    3    0    0  0.35873977711E+01 -0.11435752064E+02 -0.35268484198E+02  0.37249319801E+02  0.00000000000E+00 0.  1.
</event>
<event>
 7    1  0.2873608E-013  0.7246156E+02  0.7816164E-02  0.1226708E+00
        -11   -1    0    0    0    0  0.00000000000E+00  0.00000000000E+00  0.45593999997E+02  0.45594000000E+02  0.51100000000E-03 0. -1.
         11   -1    0    0    0    0 -0.00000000000E+00 -0.00000000000E+00 -0.45593999997E+02  0.45594000000E+02  0.51100000000E-03 0.  1.
    9900012    2    1    2    0    0  0.14166916232E+02  0.48240612002E+01 -0.11256400822E+02  0.72461557694E+02  0.69999983585E+02 0.  0.
         12    1    1    2    0    0 -0.14166916232E+02 -0.48240612002E+01  0.11256400822E+02  0.18726442306E+02  0.00000000000E+00 0. -1.
         11    1    3    3    0    0 -0.18167957819E+02  0.55267086292E+01 -0.92069789056E+01  0.21104209543E+02  0.51100000000E-03 0. -1.
        -11    1    3    3    0    0  0.18567133579E+02 -0.73762781354E+01 -0.19659398684E+02  0.28029268370E+02  0.51100000000E-03 0.  1.
         12    1    3    3    0    0  0.13767740472E+02  0.66736307064E+01  0.17609976768E+02  0.23328079781E+02  0.00000000000E+00 0. -1.
</event>
<event>
 7    1  0.2873608E-013  0.7246158E+02  0.7816164E-02  0.1226708E+00
        -11   -1    0    0    0    0  0.00000000000E+00  0.00000000000E+00  0.45593999997E+02  0.45594000000E+02  0.51100000000E-03 0.  1.
         11   -1    0    0    0    0 -0.00000000000E+00 -0.00000000000E+00 -0.45593999997E+02  0.45594000000E+02  0.51100000000E-03 0. -1.
    9900012    2    1    2    0    0  0.16605435935E+01  0.87406966668E+01  0.16477907758E+02  0.72461584771E+02  0.70000018859E+02 0.  0.
         12    1    1    2    0    0 -0.16605435935E+01 -0.87406966668E+01 -0.16477907758E+02  0.18726415229E+02  0.00000000000E+00 0. -1.
         11    1    3    3    0    0 -0.13222166852E+02  0.29205375232E+02  0.39487313620E+01  0.32301271157E+02  0.51100000000E-03 0. -1.
        -11    1    3    3    0    0  0.11305133174E+02  0.43328126891E+01  0.84789980168E+01  0.14780822356E+02  0.51100000000E-03 0.  1.
         12    1    3    3    0    0  0.35775772714E+01 -0.24797491254E+02  0.40501783792E+01  0.25379491259E+02  0.00000000000E+00 0. -1.
</event>
<event>
 7    1  0.2873608E-013  0.7246154E+02  0.7816164E-02  0.1226708E+00
        -11   -1    0    0    0    0  0.00000000000E+00  0.00000000000E+00  0.45593999997E+02  0.45594000000E+02  0.51100000000E-03 0. -1.
         11   -1    0    0    0    0 -0.00000000000E+00 -0.00000000000E+00 -0.45593999997E+02  0.45594000000E+02  0.51100000000E-03 0.  1.
    9900012    2    1    2    0    0 -0.64812597208E+00 -0.38954797756E+01 -0.18305338567E+02  0.72461541445E+02  0.69999962419E+02 0.  0.
         12    1    1    2    0    0  0.64812597208E+00  0.38954797756E+01  0.18305338567E+02  0.18726458555E+02  0.00000000000E+00 0. -1.
         11    1    3    3    0    0  0.10334836507E+01 -0.10677718424E+02  0.29112961223E+01  0.11115637839E+02  0.51100000000E-03 0. -1.
        -11    1    3    3    0    0 -0.63641180042E+01 -0.24682628267E+02 -0.65600394891E+01  0.26320491152E+02  0.51100000000E-03 0.  1.
        -12    1    3    3    0    0  0.46825083814E+01  0.31464866915E+02 -0.14656595200E+02  0.35025412454E+02  0.00000000000E+00 0.  1.
</event>
<event>
 7    1  0.2873608E-013  0.7246159E+02  0.7816164E-02  0.1226708E+00
        -11   -1    0    0    0    0  0.00000000000E+00  0.00000000000E+00  0.45593999997E+02  0.45594000000E+02  0.51100000000E-03 0.  1.
         11   -1    0    0    0    0 -0.00000000000E+00 -0.00000000000E+00 -0.45593999997E+02  0.45594000000E+02  0.51100000000E-03 0. -1.
    9900012    2    1    2    0    0  0.31473139832E+01 -0.75825309278E+01  0.16830867389E+02  0.72461589302E+02  0.70000024761E+02 0.  0.
         12    1    1    2    0    0 -0.31473139832E+01  0.75825309278E+01 -0.16830867389E+02  0.18726410698E+02  0.00000000000E+00 0. -1.
         11    1    3    3    0    0 -0.57851644472E+01  0.57335882969E+01  0.23394824352E+02  0.24772161172E+02  0.51100000000E-03 0. -1.
        -11    1    3    3    0    0 -0.10640428769E+01  0.11326235942E+02  0.10996259540E+02  0.15821931993E+02  0.51100000000E-03 0.  1.
         12    1    3    3    0    0  0.99965213073E+01 -0.24642355167E+02 -0.17560216503E+02  0.31867496137E+02  0.00000000000E+00 0. -1.
</event>
<event>
 7    1  0.2873608E-013  0.7246155E+02  0.7816164E-02  0.1226708E+00
        -11   -1    0    0    0    0  0.00000000000E+00  0.00000000000E+00  0.45593999997E+02  0.45594000000E+02  0.51100000000E-03 0.  1.
         11   -1    0    0    0    0 -0.00000000000E+00 -0.00000000000E+00 -0.45593999997E+02  0.45594000000E+02  0.51100000000E-03 0. -1.
    9900012    2    1    2    0    0 -0.15694533885E+02  0.28776800662E+01  0.98020622481E+01  0.72461551839E+02  0.69999975958E+02 0.  0.
         12    1    1    2    0    0  0.15694533885E+02 -0.28776800662E+01 -0.98020622481E+01  0.18726448161E+02  0.00000000000E+00 0. -1.
         11    1    3    3    0    0  0.12884544106E+01 -0.14752198444E+02 -0.22687748326E+02  0.27092829274E+02  0.51100000000E-03 0. -1.
        -11    1    3    3    0    0 -0.79371966079E+01  0.54659109963E+01  0.13416474713E+00  0.96381156587E+01  0.51100000000E-03 0.  1.
        -12    1    3    3    0    0 -0.90457916874E+01  0.12163967514E+02  0.32355645827E+02  0.35730606906E+02  0.00000000000E+00 0.  1.
</event>
<event>
 7    1  0.2873608E-013  0.7246157E+02  0.7816164E-02  0.1226708E+00
        -11   -1    0    0    0    0  0.00000000000E+00  0.00000000000E+00  0.45593999997E+02  0.45594000000E+02  0.51100000000E-03 0. -1.
         11   -1    0    0    0    0 -0.00000000000E+00 -0.00000000000E+00 -0.45593999997E+02  0.45594000000E+02  0.51100000000E-03 0.  1.
    9900012    2    1    2    0    0 -0.11746300756E+02 -0.55835647086E+00 -0.14573665675E+02  0.72461572829E+02  0.70000003301E+02 0.  0.
         12    1    1    2    0    0  0.11746300756E+02  0.55835647086E+00  0.14573665675E+02  0.18726427171E+02  0.00000000000E+00 0. -1.
         11    1    3    3    0    0  0.87942055298E+01 -0.84160302785E+01 -0.23296850710E+02  0.26285183465E+02  0.51100000000E-03 0. -1.
        -11    1    3    3    0    0 -0.12723674285E+02  0.20812067331E+02 -0.59407066234E+01  0.25106294617E+02  0.51100000000E-03 0.  1.
        -12    1    3    3    0    0 -0.78168320001E+01 -0.12954393524E+02  0.14663891658E+02  0.21070094747E+02  0.00000000000E+00 0.  1.
</event>
<event>
 7    1  0.2873608E-013  0.7246155E+02  0.7816164E-02  0.1226708E+00
        -11   -1    0    0    0    0  0.00000000000E+00  0.00000000000E+00  0.45593999997E+02  0.45594000000E+02  0.51100000000E-03 0.  1.
         11   -1    0    0    0    0 -0.00000000000E+00 -0.00000000000E+00 -0.45593999997E+02  0.45594000000E+02  0.51100000000E-03 0. -1.
    9900012    2    1    2    0    0  0.12774476449E+01 -0.14151493827E+02 -0.12197672246E+02  0.72461551906E+02  0.69999976045E+02 0.  0.
         12    1    1    2    0    0 -0.12774476449E+01  0.14151493827E+02  0.12197672246E+02  0.18726448094E+02  0.00000000000E+00 0. -1.
         11    1    3    3    0    0  0.12326429965E+02  0.54002388615E+01 -0.19485399395E+02  0.23680883541E+02  0.51100000000E-03 0. -1.
        -11    1    3    3    0    0 -0.28009077269E+01  0.12295723295E+02  0.95292233216E+01  0.15806201087E+02  0.51100000000E-03 0.  1.
         12    1    3    3    0    0 -0.82480745935E+01 -0.31847455983E+02 -0.22414961722E+01  0.32974467277E+02  0.00000000000E+00 0. -1.
</event>
<event>
 7    1  0.2873608E-013  0.7246104E+02  0.7816164E-02  0.1226709E+00
        -11   -1    0    0    0    0  0.00000000000E+00  0.00000000000E+00  0.45593999997E+02  0.45594000000E+02  0.51100000000E-03 0.  1.
         11   -1    0    0    0    0 -0.00000000000E+00 -0.00000000000E+00 -0.45593999997E+02  0.45594000000E+02  0.51100000000E-03 0. -1.
    9900012    2    1    2    0    0 -0.66548476079E+01 -0.17431070991E+02 -0.16030565437E+01  0.72461040213E+02  0.69999309467E+02 0.  0.
         12    1    1    2    0    0  0.66548476079E+01  0.17431070991E+02  0.16030565437E+01  0.18726959787E+02  0.00000000000E+00 0. -1.
         11    1    3    3    0    0 -0.16531481102E+02 -0.17681343423E+02  0.17848823168E+01  0.24271497231E+02  0.51100000000E-03 0.  1.
        -11    1    3    3    0    0 -0.15142074679E+02  0.87220625760E+00 -0.14338783801E+02  0.20872084000E+02  0.51100000000E-03 0. -1.
        -12    1    3    3    0    0  0.25018708174E+02 -0.62193382537E+00  0.10950844940E+02  0.27317458983E+02  0.00000000000E+00 0.  1.
</event>
<event>
 7    1  0.2873608E-013  0.7246157E+02  0.7816164E-02  0.1226708E+00
        -11   -1    0    0    0    0  0.00000000000E+00  0.00000000000E+00  0.45593999997E+02  0.45594000000E+02  0.51100000000E-03 0. -1.
         11   -1    0    0    0    0 -0.00000000000E+00 -0.00000000000E+00 -0.45593999997E+02  0.45594000000E+02  0.51100000000E-03 0.  1.
    9900012    2    1    2    0    0 -0.13033592802E+02  0.11776610005E+02  0.64897027496E+01  0.72461566108E+02  0.69999994546E+02 0.  0.
         12    1    1    2    0    0  0.13033592802E+02 -0.11776610005E+02 -0.64897027496E+01  0.18726433892E+02  0.00000000000E+00 0. -1.
         11    1    3    3    0    0  0.10945878347E+02 -0.24634395292E+01  0.68597720979E+01  0.13150561227E+02  0.51100000000E-03 0. -1.
        -11    1    3    3    0    0 -0.22330866241E+01 -0.18095362536E+02 -0.74667817381E+01  0.19702326029E+02  0.51100000000E-03 0.  1.
        -12    1    3    3    0    0 -0.21746384525E+02  0.32335412070E+02  0.70967123898E+01  0.39608678852E+02  0.00000000000E+00 0.  1.
</event>
<event>
 7    1  0.2873608E-013  0.7246156E+02  0.7816164E-02  0.1226708E+00
        -11   -1    0    0    0    0  0.00000000000E+00  0.00000000000E+00  0.45593999997E+02  0.45594000000E+02  0.51100000000E-03 0.  1.
         11   -1    0    0    0    0 -0.00000000000E+00 -0.00000000000E+00 -0.45593999997E+02  0.45594000000E+02  0.51100000000E-03 0. -1.
    9900012    2    1    2    0    0 -0.74435264889E+00  0.14711550524E+02 -0.11562695380E+02  0.72461556020E+02  0.69999981405E+02 0.  0.
         12    1    1    2    0    0  0.74435264889E+00 -0.14711550524E+02  0.11562695380E+02  0.18726443980E+02  0.00000000000E+00 0. -1.
         11    1    3    3    0    0  0.13289632644E+02 -0.40597160101E+01 -0.23687375903E+02  0.27462472710E+02  0.51100000000E-03 0. -1.
        -11    1    3    3    0    0 -0.39411853021E+01 -0.10813643922E+02  0.10850012929E+00  0.11509978670E+02  0.51100000000E-03 0.  1.
        -12    1    3    3    0    0 -0.10092799991E+02  0.29584910456E+02  0.12016180394E+02  0.33489104640E+02  0.00000000000E+00 0.  1.
</event>
<event>
 7    1  0.2873608E-013  0.7246168E+02  0.7816164E-02  0.1226708E+00
        -11   -1    0    0    0    0  0.00000000000E+00  0.00000000000E+00  0.45593999997E+02  0.45594000000E+02  0.51100000000E-03 0.  1.
         11   -1    0    0    0    0 -0.00000000000E+00 -0.00000000000E+00 -0.45593999997E+02  0.45594000000E+02  0.51100000000E-03 0. -1.
    9900012    2    1    2    0    0  0.89659647316E+01  0.14590666393E+02 -0.75762089516E+01  0.72461681316E+02  0.70000144627E+02 0.  0.
         12    1    1    2    0    0 -0.89659647316E+01 -0.14590666393E+02  0.75762089516E+01  0.18726318684E+02  0.00000000000E+00 0. -1.
         11    1    3    3    0    0 -0.47650268508E+01 -0.66652824805E+01 -0.12174912111E+02  0.14675147584E+02  0.51100000000E-03 0. -1.
        -11    1    3    3    0    0 -0.13085179170E+01 -0.98722469230E+01 -0.15031505994E+02  0.18031074598E+02  0.51100000000E-03 0.  1.
         12    1    3    3    0    0  0.15039509499E+02  0.31128195797E+02  0.19630209154E+02  0.39755459134E+02  0.00000000000E+00 0. -1.
</event>
<event>
 7    1  0.2873608E-013  0.7246158E+02  0.7816164E-02  0.1226708E+00
        -11   -1    0    0    0    0  0.00000000000E+00  0.00000000000E+00  0.45593999997E+02  0.45594000000E+02  0.51100000000E-03 0.  1.
         11   -1    0    0    0    0 -0.00000000000E+00 -0.00000000000E+00 -0.45593999997E+02  0.45594000000E+02  0.51100000000E-03 0. -1.
    9900012    2    1    2    0    0 -0.98544137444E+00  0.26227357941E+01  0.18515644012E+02  0.72461577199E+02  0.70000008995E+02 0.  0.
         12    1    1    2    0    0  0.98544137444E+00 -0.26227357941E+01 -0.18515644012E+02  0.18726422801E+02  0.00000000000E+00 0. -1.
         11    1    3    3    0    0 -0.80803283485E+01 -0.68783135096E+01  0.91956264933E+01  0.14041454690E+02  0.51100000000E-03 0. -1.
        -11    1    3    3    0    0  0.11733161487E+02  0.17028647151E+02  0.29708370569E+02  0.36197088065E+02  0.51100000000E-03 0.  1.
         12    1    3    3    0    0 -0.46382745127E+01 -0.75275978468E+01 -0.20388353050E+02  0.22223034444E+02  0.00000000000E+00 0. -1.
</event>
<event>
 7    1  0.2873608E-013  0.7246163E+02  0.7816164E-02  0.1226708E+00
        -11   -1    0    0    0    0  0.00000000000E+00  0.00000000000E+00  0.45593999997E+02  0.45594000000E+02  0.51100000000E-03 0.  1.
         11   -1    0    0    0    0 -0.00000000000E+00 -0.00000000000E+00 -0.45593999997E+02  0.45594000000E+02  0.51100000000E-03 0. -1.
    9900012    2    1    2    0    0  0.19891499167E+01 -0.13466799252E+02  0.12859455087E+02  0.72461628631E+02  0.70000075995E+02 0.  0.
         12    1    1    2    0    0 -0.19891499167E+01  0.13466799252E+02 -0.12859455087E+02  0.18726371369E+02  0.00000000000E+00 0. -1.
         11    1    3    3    0    0  0.10843157919E+02 -0.21358148016E+02 -0.22060646043E+01  0.24054340183E+02  0.51100000000E-03 0.  1.
        -11    1    3    3    0    0  0.45667896130E-01  0.21405535900E+02  0.22096395183E+02  0.30764423171E+02  0.51100000000E-03 0. -1.
         12    1    3    3    0    0 -0.88996758980E+01 -0.13514187136E+02 -0.70308754912E+01  0.17642865277E+02  0.00000000000E+00 0. -1.
</event>
<event>
 7    1  0.2873608E-013  0.7246176E+02  0.7816164E-02  0.1226708E+00
        -11   -1    0    0    0    0  0.00000000000E+00  0.00000000000E+00  0.45593999997E+02  0.45594000000E+02  0.51100000000E-03 0. -1.
         11   -1    0    0    0    0 -0.00000000000E+00 -0.00000000000E+00 -0.45593999997E+02  0.45594000000E+02  0.51100000000E-03 0.  1.
    9900012    2    1    2    0    0 -0.15234358322E+01 -0.16482057668E+00 -0.18663440026E+02  0.72461761292E+02  0.70000248809E+02 0.  0.
         12    1    1    2    0    0  0.15234358322E+01  0.16482057668E+00  0.18663440026E+02  0.18726238708E+02  0.00000000000E+00 0. -1.
         11    1    3    3    0    0  0.80124348243E+01  0.47347904009E+01 -0.31286212756E+02  0.32641146745E+02  0.51100000000E-03 0. -1.
        -11    1    3    3    0    0 -0.20868254616E+02 -0.67826327552E+01 -0.10432629915E+01  0.21967625173E+02  0.51100000000E-03 0.  1.
         12    1    3    3    0    0  0.11332383960E+02  0.18830217776E+01  0.13666035722E+02  0.17852989374E+02  0.00000000000E+00 0. -1.
</event>
<event>
 7    1  0.2873608E-013  0.7246175E+02  0.7816164E-02  0.1226708E+00
        -11   -1    0    0    0    0  0.00000000000E+00  0.00000000000E+00  0.45593999997E+02  0.45594000000E+02  0.51100000000E-03 0. -1.
         11   -1    0    0    0    0 -0.00000000000E+00 -0.00000000000E+00 -0.45593999997E+02  0.45594000000E+02  0.51100000000E-03 0.  1.
    9900012    2    1    2    0    0 -0.14902634931E+02 -0.59080795133E+01 -0.96787725226E+01  0.72461746531E+02  0.70000229581E+02 0.  0.
         12    1    1    2    0    0  0.14902634931E+02  0.59080795133E+01  0.96787725226E+01  0.18726253469E+02  0.00000000000E+00 0. -1.
         11    1    3    3    0    0  0.11040741279E+02  0.72022400636E+01 -0.80952681026E+00  0.13207027063E+02  0.51100000000E-03 0. -1.
        -11    1    3    3    0    0  0.11300354471E+02 -0.13129149140E+02  0.71136353374E+01  0.18726355125E+02  0.51100000000E-03 0.  1.
         12    1    3    3    0    0 -0.37243730682E+02  0.18829562655E-01 -0.15982881050E+02  0.40528364343E+02  0.00000000000E+00 0. -1.
</event>
<event>
 7    1  0.2873608E-013  0.7246156E+02  0.7816164E-02  0.1226708E+00
        -11   -1    0    0    0    0  0.00000000000E+00  0.00000000000E+00  0.45593999997E+02  0.45594000000E+02  0.51100000000E-03 0. -1.
         11   -1    0    0    0    0 -0.00000000000E+00 -0.00000000000E+00 -0.45593999997E+02  0.45594000000E+02  0.51100000000E-03 0.  1.
    9900012    2    1    2    0    0 -0.27456329908E+01 -0.20777057073E+01 -0.18407176801E+02  0.72461560955E+02  0.69999987834E+02 0.  0.
         12    1    1    2    0    0  0.27456329908E+01  0.20777057073E+01  0.18407176801E+02  0.18726439045E+02  0.00000000000E+00 0. -1.
         11    1    3    3    0    0  0.27354184470E+02 -0.36123009406E+01 -0.16935820042E+02  0.32374714313E+02  0.51100000000E-03 0. -1.
        -11    1    3    3    0    0 -0.30241192495E+01  0.10830581500E+02 -0.21650187554E+01  0.11451379800E+02  0.51100000000E-03 0.  1.
        -12    1    3    3    0    0 -0.27075698211E+02 -0.92959862664E+01  0.69366199610E+00  0.28635466842E+02  0.00000000000E+00 0.  1.
</event>
<event>
 7    1  0.2873608E-013  0.7246157E+02  0.7816164E-02  0.1226708E+00
        -11   -1    0    0    0    0  0.00000000000E+00  0.00000000000E+00  0.45593999997E+02  0.45594000000E+02  0.51100000000E-03 0. -1.
         11   -1    0    0    0    0 -0.00000000000E+00 -0.00000000000E+00 -0.45593999997E+02  0.45594000000E+02  0.51100000000E-03 0.  1.
    9900012    2    1    2    0    0 -0.12858504185E+02  0.52947642171E+01  0.12542075598E+02  0.72461566322E+02  0.69999994825E+02 0.  0.
         12    1    1    2    0    0  0.12858504185E+02 -0.52947642171E+01 -0.12542075598E+02  0.18726433678E+02  0.00000000000E+00 0. -1.
         11    1    3    3    0    0 -0.22565325145E+02 -0.34436869199E+01  0.69210947519E+01  0.23852765695E+02  0.51100000000E-03 0. -1.
        -11    1    3    3    0    0 -0.26395146531E+01  0.16949821633E+02  0.21087016073E+02  0.27183188520E+02  0.51100000000E-03 0.  1.
        -12    1    3    3    0    0  0.12346335613E+02 -0.82113704959E+01 -0.15466035227E+02  0.21425612106E+02  0.00000000000E+00 0.  1.
</event>
<event>
 7    1  0.2873608E-013  0.7246184E+02  0.7816164E-02  0.1226707E+00
        -11   -1    0    0    0    0  0.00000000000E+00  0.00000000000E+00  0.45593999997E+02  0.45594000000E+02  0.51100000000E-03 0.  1.
         11   -1    0    0    0    0 -0.00000000000E+00 -0.00000000000E+00 -0.45593999997E+02  0.45594000000E+02  0.51100000000E-03 0. -1.
    9900012    2    1    2    0    0 -0.50641937476E+01 -0.16121741014E+02 -0.80692357338E+01  0.72461837634E+02  0.70000348259E+02 0.  0.
         12    1    1    2    0    0  0.50641937476E+01  0.16121741014E+02  0.80692357338E+01  0.18726162366E+02  0.00000000000E+00 0. -1.
         11    1    3    3    0    0 -0.14518121699E+02  0.68507693069E+01 -0.70402950763E+01  0.17529251347E+02  0.51100000000E-03 0. -1.
        -11    1    3    3    0    0 -0.20893524435E+01  0.14162064097E+02 -0.63912433217E+01  0.15677290729E+02  0.51100000000E-03 0.  1.
         12    1    3    3    0    0  0.11543280395E+02 -0.37134574418E+02  0.53623026643E+01  0.39255295558E+02  0.00000000000E+00 0. -1.
</event>
<event>
 7    1  0.2873608E-013  0.7246163E+02  0.7816164E-02  0.1226708E+00
        -11   -1    0    0    0    0  0.00000000000E+00  0.00000000000E+00  0.45593999997E+02  0.45594000000E+02  0.51100000000E-03 0. -1.
         11   -1    0    0    0    0 -0.00000000000E+00 -0.00000000000E+00 -0.45593999997E+02  0.45594000000E+02  0.51100000000E-03 0.  1.
    9900012    2    1    2    0    0  0.76020434673E+01  0.54706875820E+01 -0.16215963150E+02  0.72461629600E+02  0.70000077256E+02 0.  0.
         12    1    1    2    0    0 -0.76020434673E+01 -0.54706875820E+01  0.16215963150E+02  0.18726370400E+02  0.00000000000E+00 0. -1.
         11    1    3    3    0    0 -0.84999975677E+01 -0.12351368625E+02  0.68462169299E+01  0.16482625764E+02  0.51100000000E-03 0. -1.
        -11    1    3    3    0    0  0.75758111395E+01 -0.11524411411E+02  0.48213056508E+01  0.14609926805E+02  0.51100000000E-03 0.  1.
        -12    1    3    3    0    0  0.85262298956E+01  0.29346467619E+02 -0.27883485730E+02  0.41369077031E+02  0.00000000000E+00 0.  1.
</event>
<event>
 7    1  0.2873608E-013  0.7246190E+02  0.7816164E-02  0.1226707E+00
        -11   -1    0    0    0    0  0.00000000000E+00  0.00000000000E+00  0.45593999997E+02  0.45594000000E+02  0.51100000000E-03 0.  1.
         11   -1    0    0    0    0 -0.00000000000E+00 -0.00000000000E+00 -0.45593999997E+02  0.45594000000E+02  0.51100000000E-03 0. -1.
    9900012    2    1    2    0    0 -0.91030253997E+01 -0.10305813953E+02  0.12711876376E+02  0.72461903939E+02  0.70000434633E+02 0.  0.
         12    1    1    2    0    0  0.91030253997E+01  0.10305813953E+02 -0.12711876376E+02  0.18726096061E+02  0.00000000000E+00 0. -1.
         11    1    3    3    0    0 -0.11521195773E+02  0.15774665968E+02  0.15978630910E+02  0.25236772465E+02  0.51100000000E-03 0. -1.
        -11    1    3    3    0    0  0.91816924986E+01  0.18839590113E+00  0.12758087365E+02  0.15719661689E+02  0.51100000000E-03 0.  1.
        -12    1    3    3    0    0 -0.67635221257E+01 -0.26268875823E+02 -0.16024841899E+02  0.31505469785E+02  0.00000000000E+00 0.  1.
</event>
<event>
 7    1  0.2873608E-013  0.7246162E+02  0.7816164E-02  0.1226708E+00
        -11   -1    0    0    0    0  0.00000000000E+00  0.00000000000E+00  0.45593999997E+02  0.45594000000E+02  0.51100000000E-03 0.  1.
         11   -1    0    0    0    0 -0.00000000000E+00 -0.00000000000E+00 -0.45593999997E+02  0.45594000000E+02  0.51100000000E-03 0. -1.
    9900012    2    1    2    0    0  0.12738673239E+02 -0.10281716565E+02  0.90934005083E+01  0.72461616894E+02  0.70000060705E+02 0.  0.
         12    1    1    2    0    0 -0.12738673239E+02  0.10281716565E+02 -0.90934005083E+01  0.18726383106E+02  0.00000000000E+00 0. -1.
         11    1    3    3    0    0 -0.15897203069E+01 -0.15187177510E+02  0.11255504526E+02  0.18970080489E+02  0.51100000000E-03 0. -1.
        -11    1    3    3    0    0  0.11017400680E+02 -0.16863848305E+02  0.15375587745E+02  0.25341294287E+02  0.51100000000E-03 0.  1.
         12    1    3    3    0    0  0.33109928664E+01  0.21769309249E+02 -0.17537691763E+02  0.28150242118E+02  0.00000000000E+00 0. -1.
</event>
<event>
 7    1  0.2873608E-013  0.7246158E+02  0.7816164E-02  0.1226708E+00
        -11   -1    0    0    0    0  0.00000000000E+00  0.00000000000E+00  0.45593999997E+02  0.45594000000E+02  0.51100000000E-03 0.  1.
         11   -1    0    0    0    0 -0.00000000000E+00 -0.00000000000E+00 -0.45593999997E+02  0.45594000000E+02  0.51100000000E-03 0. -1.
    9900012    2    1    2    0    0  0.12690352011E+02 -0.13473919721E+02  0.28438240021E+01  0.72461577977E+02  0.70000010008E+02 0.  0.
         12    1    1    2    0    0 -0.12690352011E+02  0.13473919721E+02 -0.28438240021E+01  0.18726422023E+02  0.00000000000E+00 0. -1.
         11    1    3    3    0    0 -0.12387726191E+02  0.82687633887E+01 -0.12177762710E+02  0.19238661935E+02  0.51100000000E-03 0. -1.
        -11    1    3    3    0    0  0.10741702119E+02 -0.23788488534E+02 -0.68558966042E+01  0.26986657252E+02  0.51100000000E-03 0.  1.
        -12    1    3    3    0    0  0.14336376084E+02  0.20458054246E+01  0.21877483316E+02  0.26236258790E+02  0.00000000000E+00 0.  1.
</event>
<event>
 7    1  0.2873608E-013  0.7246157E+02  0.7816164E-02  0.1226708E+00
        -11   -1    0    0    0    0  0.00000000000E+00  0.00000000000E+00  0.45593999997E+02  0.45594000000E+02  0.51100000000E-03 0.  1.
         11   -1    0    0    0    0 -0.00000000000E+00 -0.00000000000E+00 -0.45593999997E+02  0.45594000000E+02  0.51100000000E-03 0. -1.
    9900012    2    1    2    0    0 -0.17241393570E+02 -0.10298188897E+01 -0.72355501963E+01  0.72461565053E+02  0.69999993172E+02 0.  0.
         12    1    1    2    0    0  0.17241393570E+02  0.10298188897E+01  0.72355501963E+01  0.18726434947E+02  0.00000000000E+00 0. -1.
         11    1    3    3    0    0 -0.14940154474E+02 -0.40433656547E+01 -0.15688179449E+02  0.22038057905E+02  0.51100000000E-03 0. -1.
        -11    1    3    3    0    0  0.18332687076E+02  0.81760941386E+01 -0.98528924150E+01  0.22361024574E+02  0.51100000000E-03 0.  1.
        -12    1    3    3    0    0 -0.20633926172E+02 -0.51625473736E+01  0.18305521668E+02  0.28062482574E+02  0.00000000000E+00 0.  1.
</event>
<event>
 7    1  0.2873608E-013  0.7246155E+02  0.7816164E-02  0.1226708E+00
        -11   -1    0    0    0    0  0.00000000000E+00  0.00000000000E+00  0.45593999997E+02  0.45594000000E+02  0.51100000000E-03 0.  1.
         11   -1    0    0    0    0 -0.00000000000E+00 -0.00000000000E+00 -0.45593999997E+02  0.45594000000E+02  0.51100000000E-03 0. -1.
    9900012    2    1    2    0    0  0.10581044421E+02 -0.45897798541E+01  0.14753142796E+02  0.72461553393E+02  0.69999977983E+02 0.  0.
         12    1    1    2    0    0 -0.10581044421E+02  0.45897798541E+01 -0.14753142796E+02  0.18726446607E+02  0.00000000000E+00 0. -1.
         11    1    3    3    0    0  0.11440335095E+02  0.22508150439E+02 -0.11969180569E+01  0.25277078873E+02  0.51100000000E-03 0. -1.
        -11    1    3    3    0    0 -0.55308732837E+00  0.61889313083E+01  0.12192871737E+02  0.13684841899E+02  0.51100000000E-03 0.  1.
        -12    1    3    3    0    0 -0.30620334471E+00 -0.33286861601E+02  0.37571891153E+01  0.33499632622E+02  0.00000000000E+00 0.  1.
</event>
<event>
 7    1  0.2873608E-013  0.7246161E+02  0.7816164E-02  0.1226708E+00
        -11   -1    0    0    0    0  0.00000000000E+00  0.00000000000E+00  0.45593999997E+02  0.45594000000E+02  0.51100000000E-03 0. -1.
         11   -1    0    0    0    0 -0.00000000000E+00 -0.00000000000E+00 -0.45593999997E+02  0.45594000000E+02  0.51100000000E-03 0.  1.
    9900012    2    1    2    0    0  0.45470676933E+01  0.13712957299E+02 -0.11914555382E+02  0.72461610801E+02  0.70000052767E+02 0.  0.
         12    1    1    2    0    0 -0.45470676933E+01 -0.13712957299E+02  0.11914555382E+02  0.18726389199E+02  0.00000000000E+00 0. -1.
         11    1    3    3    0    0 -0.22928616554E+02  0.71118832155E+01  0.13640819345E+02  0.27611090030E+02  0.51100000000E-03 0. -1.
        -11    1    3    3    0    0  0.14668974793E+02  0.97272683941E+01 -0.18134954332E+01  0.17694274154E+02  0.51100000000E-03 0.  1.
        -12    1    3    3    0    0  0.12806709454E+02 -0.31261943102E+01 -0.23741879294E+02  0.27156246617E+02  0.00000000000E+00 0.  1.
</event>
<event>
 7    1  0.2873608E-013  0.7246156E+02  0.7816164E-02  0.1226708E+00
        -11   -1    0    0    0    0  0.00000000000E+00  0.00000000000E+00  0.45593999997E+02  0.45594000000E+02  0.51100000000E-03 0. -1.
         11   -1    0    0    0    0 -0.00000000000E+00 -0.00000000000E+00 -0.45593999997E+02  0.45594000000E+02  0.51100000000E-03 0.  1.
    9900012    2    1    2    0    0 -0.11573246698E+02 -0.14658753805E+02 -0.13639772266E+01  0.72461560506E+02  0.69999987249E+02 0.  0.
         12    1    1    2    0    0  0.11573246698E+02  0.14658753805E+02  0.13639772266E+01  0.18726439494E+02  0.00000000000E+00 0. -1.
         11    1    3    3    0    0 -0.96051337901E+01  0.26046118886E+00  0.18609746980E+02  0.20943951826E+02  0.51100000000E-03 0. -1.
        -11    1    3    3    0    0 -0.12271633127E+02  0.12885194155E+02 -0.85450549183E+01  0.19739279922E+02  0.51100000000E-03 0.  1.
        -12    1    3    3    0    0  0.10303520219E+02 -0.27804409149E+02 -0.11428669288E+02  0.31778328759E+02  0.00000000000E+00 0.  1.
</event>
<event>
 7    1  0.2873608E-013  0.7246158E+02  0.7816164E-02  0.1226708E+00
        -11   -1    0    0    0    0  0.00000000000E+00  0.00000000000E+00  0.45593999997E+02  0.45594000000E+02  0.51100000000E-03 0. -1.
         11   -1    0    0    0    0 -0.00000000000E+00 -0.00000000000E+00 -0.45593999997E+02  0.45594000000E+02  0.51100000000E-03 0.  1.
    9900012    2    1    2    0    0  0.40782019357E+01  0.14468797846E+02 -0.11166960093E+02  0.72461579096E+02  0.70000011466E+02 0.  0.
         12    1    1    2    0    0 -0.40782019357E+01 -0.14468797846E+02  0.11166960093E+02  0.18726420904E+02  0.00000000000E+00 0. -1.
         11    1    3    3    0    0 -0.26273156191E+02 -0.40393779464E+01 -0.40908582145E+01  0.26894803059E+02  0.51100000000E-03 0. -1.
        -11    1    3    3    0    0  0.96827062511E+01  0.67342978637E+00 -0.14341153137E+02  0.17316956476E+02  0.51100000000E-03 0.  1.
        -12    1    3    3    0    0  0.20668651875E+02  0.17834746006E+02  0.72650512587E+01  0.28249819561E+02  0.00000000000E+00 0.  1.
</event>
<event>
 7    1  0.2873608E-013  0.7246159E+02  0.7816164E-02  0.1226708E+00
        -11   -1    0    0    0    0  0.00000000000E+00  0.00000000000E+00  0.45593999997E+02  0.45594000000E+02  0.51100000000E-03 0.  1.
         11   -1    0    0    0    0 -0.00000000000E+00 -0.00000000000E+00 -0.45593999997E+02  0.45594000000E+02  0.51100000000E-03 0. -1.
    9900012    2    1    2    0    0  0.10671651836E+02  0.92427318807E+01  0.12303093622E+02  0.72461591957E+02  0.70000028220E+02 0.  0.
         12    1    1    2    0    0 -0.10671651836E+02 -0.92427318807E+01 -0.12303093622E+02  0.18726408043E+02  0.00000000000E+00 0. -1.
         11    1    3    3    0    0  0.10834741943E+02  0.18551353366E+02 -0.49367009835E+00  0.21489254411E+02  0.51100000000E-03 0. -1.
        -11    1    3    3    0    0 -0.13628299862E+02 -0.17414453427E+02  0.23257887367E+02  0.32092414529E+02  0.51100000000E-03 0.  1.
         12    1    3    3    0    0  0.13465209755E+02  0.81058319415E+01 -0.10461123647E+02  0.18879923018E+02  0.00000000000E+00 0. -1.
</event>
<event>
 7    1  0.2873608E-013  0.7246159E+02  0.7816164E-02  0.1226708E+00
        -11   -1    0    0    0    0  0.00000000000E+00  0.00000000000E+00  0.45593999997E+02  0.45594000000E+02  0.51100000000E-03 0.  1.
         11   -1    0    0    0    0 -0.00000000000E+00 -0.00000000000E+00 -0.45593999997E+02  0.45594000000E+02  0.51100000000E-03 0. -1.
    9900012    2    1    2    0    0 -0.12779779329E+02  0.10031882880E+02  0.93121905273E+01  0.72461592810E+02  0.70000029331E+02 0.  0.
         12    1    1    2    0    0  0.12779779329E+02 -0.10031882880E+02 -0.93121905273E+01  0.18726407190E+02  0.00000000000E+00 0. -1.
         11    1    3    3    0    0  0.12019310918E+02  0.51185329721E+01  0.59161361512E+01  0.14340986087E+02  0.51100000000E-03 0. -1.
        -11    1    3    3    0    0 -0.60960263716E+01  0.11597051017E+02  0.25337824401E+02  0.28524699393E+02  0.51100000000E-03 0.  1.
        -12    1    3    3    0    0 -0.18703063876E+02 -0.66837011084E+01 -0.21941770025E+02  0.29595907330E+02  0.00000000000E+00 0.  1.
</event>
<event>
 7    1  0.2873608E-013  0.7246157E+02  0.7816164E-02  0.1226708E+00
        -11   -1    0    0    0    0  0.00000000000E+00  0.00000000000E+00  0.45593999997E+02  0.45594000000E+02  0.51100000000E-03 0.  1.
         11   -1    0    0    0    0 -0.00000000000E+00 -0.00000000000E+00 -0.45593999997E+02  0.45594000000E+02  0.51100000000E-03 0. -1.
    9900012    2    1    2    0    0  0.82189125176E+01 -0.14653412197E+02  0.82708077561E+01  0.72461567534E+02  0.69999996404E+02 0.  0.
         12    1    1    2    0    0 -0.82189125176E+01  0.14653412197E+02 -0.82708077561E+01  0.18726432466E+02  0.00000000000E+00 0. -1.
         11    1    3    3    0    0  0.11538300326E+02  0.88847553646E+01 -0.53140013613E+01  0.15501930945E+02  0.51100000000E-03 0. -1.
        -11    1    3    3    0    0  0.10078686890E+02 -0.15583720122E+02  0.29393935646E+02  0.34762561978E+02  0.51100000000E-03 0.  1.
         12    1    3    3    0    0 -0.13398074698E+02 -0.79544474399E+01 -0.15809126528E+02  0.22197074611E+02  0.00000000000E+00 0. -1.
</event>
<event>
 7    1  0.2873608E-013  0.7246183E+02  0.7816164E-02  0.1226707E+00
        -11   -1    0    0    0    0  0.00000000000E+00  0.00000000000E+00  0.45593999997E+02  0.45594000000E+02  0.51100000000E-03 0. -1.
         11   -1    0    0    0    0 -0.00000000000E+00 -0.00000000000E+00 -0.45593999997E+02  0.45594000000E+02  0.51100000000E-03 0.  1.
    9900012    2    1    2    0    0 -0.34986348605E+01  0.84163656635E+01 -0.16358297119E+02  0.72461827366E+02  0.70000334883E+02 0.  0.
         12    1    1    2    0    0  0.34986348605E+01 -0.84163656635E+01  0.16358297119E+02  0.18726172634E+02  0.00000000000E+00 0. -1.
         11    1    3    3    0    0  0.30690479952E+01  0.70088814830E+00  0.71350219891E+01  0.77986433974E+01  0.51100000000E-03 0. -1.
        -11    1    3    3    0    0 -0.80468518735E+01 -0.22239588466E+02 -0.25280135983E+02  0.34618440112E+02  0.51100000000E-03 0.  1.
         12    1    3    3    0    0  0.14791690177E+01  0.29955065981E+02  0.17868168750E+01  0.30044743857E+02  0.00000000000E+00 0. -1.
</event>
<event>
 7    1  0.2873608E-013  0.7246152E+02  0.7816164E-02  0.1226708E+00
        -11   -1    0    0    0    0  0.00000000000E+00  0.00000000000E+00  0.45593999997E+02  0.45594000000E+02  0.51100000000E-03 0. -1.
         11   -1    0    0    0    0 -0.00000000000E+00 -0.00000000000E+00 -0.45593999997E+02  0.45594000000E+02  0.51100000000E-03 0.  1.
    9900012    2    1    2    0    0  0.12386174077E+02  0.10912872574E+02 -0.88415517207E+01  0.72461517872E+02  0.69999931710E+02 0.  0.
         12    1    1    2    0    0 -0.12386174077E+02 -0.10912872574E+02  0.88415517207E+01  0.18726482128E+02  0.00000000000E+00 0. -1.
         11    1    3    3    0    0  0.21142039214E+02  0.12944130645E+02  0.16702832919E+02  0.29891821090E+02  0.51100000000E-03 0. -1.
        -11    1    3    3    0    0 -0.14537710488E+02  0.88726980160E+01 -0.36226901870E+01  0.17412457632E+02  0.51100000000E-03 0.  1.
        -12    1    3    3    0    0  0.57818453509E+01 -0.10903956087E+02 -0.21921694452E+02  0.25157239150E+02  0.00000000000E+00 0.  1.
</event>
<event>
 7    1  0.2873608E-013  0.7246157E+02  0.7816164E-02  0.1226708E+00
        -11   -1    0    0    0    0  0.00000000000E+00  0.00000000000E+00  0.45593999997E+02  0.45594000000E+02  0.51100000000E-03 0.  1.
         11   -1    0    0    0    0 -0.00000000000E+00 -0.00000000000E+00 -0.45593999997E+02  0.45594000000E+02  0.51100000000E-03 0. -1.
    9900012    2    1    2    0    0  0.11283049805E+02 -0.70061416316E+01  0.13201733486E+02  0.72461574807E+02  0.70000005879E+02 0.  0.
         12    1    1    2    0    0 -0.11283049805E+02  0.70061416316E+01 -0.13201733486E+02  0.18726425193E+02  0.00000000000E+00 0. -1.
         11    1    3    3    0    0  0.90754394890E+01 -0.21761579128E+01 -0.81853862391E+01  0.12413694588E+02  0.51100000000E-03 0. -1.
        -11    1    3    3    0    0 -0.44250156775E-01 -0.38064986379E+01 -0.19104856135E+02  0.19480423972E+02  0.51100000000E-03 0.  1.
        -12    1    3    3    0    0  0.22518604730E+01 -0.10234850808E+01  0.40491975860E+02  0.40567456247E+02  0.00000000000E+00 0.  1.
</event>
<event>
 7    1  0.2873608E-013  0.7246158E+02  0.7816164E-02  0.1226708E+00
        -11   -1    0    0    0    0  0.00000000000E+00  0.00000000000E+00  0.45593999997E+02  0.45594000000E+02  0.51100000000E-03 0.  1.
         11   -1    0    0    0    0 -0.00000000000E+00 -0.00000000000E+00 -0.45593999997E+02  0.45594000000E+02  0.51100000000E-03 0. -1.
    9900012    2    1    2    0    0  0.17350922282E+02 -0.70253247826E+01  0.51888894171E+00  0.72461576474E+02  0.70000008051E+02 0.  0.
         12    1    1    2    0    0 -0.17350922282E+02  0.70253247826E+01 -0.51888894171E+00  0.18726423526E+02  0.00000000000E+00 0. -1.
         11    1    3    3    0    0  0.51809721460E+01  0.20472189153E+02 -0.50436597139E+01  0.21711552332E+02  0.51100000000E-03 0. -1.
        -11    1    3    3    0    0  0.27441993970E+01  0.48669517542E+01  0.14782162993E+02  0.15802853943E+02  0.51100000000E-03 0.  1.
        -12    1    3    3    0    0  0.94257507387E+01 -0.32364465690E+02 -0.92196143377E+01  0.34947170199E+02  0.00000000000E+00 0.  1.
</event>
<event>
 7    1  0.2873608E-013  0.7246152E+02  0.7816164E-02  0.1226708E+00
        -11   -1    0    0    0    0  0.00000000000E+00  0.00000000000E+00  0.45593999997E+02  0.45594000000E+02  0.51100000000E-03 0.  1.
         11   -1    0    0    0    0 -0.00000000000E+00 -0.00000000000E+00 -0.45593999997E+02  0.45594000000E+02  0.51100000000E-03 0. -1.
    9900012    2    1    2    0    0 -0.55680113053E+01 -0.17873559438E+02 -0.46268640637E+00  0.72461522606E+02  0.69999937877E+02 0.  0.
         12    1    1    2    0    0  0.55680113053E+01  0.17873559438E+02  0.46268640637E+00  0.18726477394E+02  0.00000000000E+00 0. -1.
         11    1    3    3    0    0 -0.20157618509E+02 -0.21327169877E+02 -0.10165741642E+02  0.31056723303E+02  0.51100000000E-03 0. -1.
        -11    1    3    3    0    0  0.65225034757E+01 -0.55642844498E+01  0.22328309889E+02  0.23917728483E+02  0.51100000000E-03 0.  1.
         12    1    3    3    0    0  0.80671037280E+01  0.90178948885E+01 -0.12625254654E+02  0.17487070820E+02  0.00000000000E+00 0. -1.
</event>
<event>
 7    1  0.2873608E-013  0.7246160E+02  0.7816164E-02  0.1226708E+00
        -11   -1    0    0    0    0  0.00000000000E+00  0.00000000000E+00  0.45593999997E+02  0.45594000000E+02  0.51100000000E-03 0. -1.
         11   -1    0    0    0    0 -0.00000000000E+00 -0.00000000000E+00 -0.45593999997E+02  0.45594000000E+02  0.51100000000E-03 0.  1.
    9900012    2    1    2    0    0  0.16866074002E+02  0.67873052893E+01  0.44884244849E+01  0.72461603665E+02  0.70000043472E+02 0.  0.
         12    1    1    2    0    0 -0.16866074002E+02 -0.67873052893E+01 -0.44884244849E+01  0.18726396335E+02  0.00000000000E+00 0. -1.
         11    1    3    3    0    0 -0.15414745885E+01  0.23137977465E+02 -0.95542024287E+01  0.25080369403E+02  0.51100000000E-03 0. -1.
        -11    1    3    3    0    0 -0.86540762846E+01  0.23652236253E+01 -0.40371667787E+01  0.98379893778E+01  0.51100000000E-03 0.  1.
         12    1    3    3    0    0  0.27061624875E+02 -0.18715895801E+02  0.18079793692E+02  0.37543244885E+02  0.00000000000E+00 0. -1.
</event>
<event>
 7    1  0.2873608E-013  0.7246155E+02  0.7816164E-02  0.1226708E+00
        -11   -1    0    0    0    0  0.00000000000E+00  0.00000000000E+00  0.45593999997E+02  0.45594000000E+02  0.51100000000E-03 0. -1.
         11   -1    0    0    0    0 -0.00000000000E+00 -0.00000000000E+00 -0.45593999997E+02  0.45594000000E+02  0.51100000000E-03 0.  1.
    9900012    2    1    2    0    0  0.91393717835E+01  0.12458186037E+02 -0.10580419872E+02  0.72461553445E+02  0.69999978050E+02 0.  0.
         12    1    1    2    0    0 -0.91393717835E+01 -0.12458186037E+02  0.10580419872E+02  0.18726446555E+02  0.00000000000E+00 0. -1.
         11    1    3    3    0    0 -0.53353759485E+01  0.14030539535E+02 -0.28744262539E+01  0.15283474825E+02  0.51100000000E-03 0. -1.
        -11    1    3    3    0    0  0.26395504053E+02  0.19203145475E+02 -0.31208465984E+01  0.32790594903E+02  0.51100000000E-03 0.  1.
         12    1    3    3    0    0 -0.11920756322E+02 -0.20775498973E+02 -0.45851470193E+01  0.24387483717E+02  0.00000000000E+00 0. -1.
</event>
<event>
 7    1  0.2873608E-013  0.7246141E+02  0.7816164E-02  0.1226708E+00
        -11   -1    0    0    0    0  0.00000000000E+00  0.00000000000E+00  0.45593999997E+02  0.45594000000E+02  0.51100000000E-03 0.  1.
         11   -1    0    0    0    0 -0.00000000000E+00 -0.00000000000E+00 -0.45593999997E+02  0.45594000000E+02  0.51100000000E-03 0. -1.
    9900012    2    1    2    0    0 -0.90434262371E+01  0.25772122796E+01  0.16194428664E+02  0.72461411923E+02  0.69999793692E+02 0.  0.
         12    1    1    2    0    0  0.90434262371E+01 -0.25772122796E+01 -0.16194428664E+02  0.18726588077E+02  0.00000000000E+00 0. -1.
         11    1    3    3    0    0  0.39625444653E+01  0.45524731184E+01 -0.50949631075E+01  0.78984441165E+01  0.51100000000E-03 0. -1.
        -11    1    3    3    0    0 -0.25699274921E+02 -0.19529835070E+02 -0.25165522227E+01  0.32375920445E+02  0.51100000000E-03 0.  1.
         12    1    3    3    0    0  0.12693304218E+02  0.17554574231E+02  0.23805943994E+02  0.32187047362E+02  0.00000000000E+00 0. -1.
</event>
<event>
 7    1  0.2873608E-013  0.7246158E+02  0.7816164E-02  0.1226708E+00
        -11   -1    0    0    0    0  0.00000000000E+00  0.00000000000E+00  0.45593999997E+02  0.45594000000E+02  0.51100000000E-03 0. -1.
         11   -1    0    0    0    0 -0.00000000000E+00 -0.00000000000E+00 -0.45593999997E+02  0.45594000000E+02  0.51100000000E-03 0.  1.
    9900012    2    1    2    0    0 -0.35831175344E+01  0.18079452199E+02  0.33126369090E+01  0.72461577854E+02  0.70000009848E+02 0.  0.
         12    1    1    2    0    0  0.35831175344E+01 -0.18079452199E+02 -0.33126369090E+01  0.18726422146E+02  0.00000000000E+00 0. -1.
         11    1    3    3    0    0  0.17684185211E+02  0.48575895150E+01 -0.10204238384E+02  0.20986973668E+02  0.51100000000E-03 0. -1.
        -11    1    3    3    0    0  0.54062865879E+01 -0.89272926718E+01 -0.56402208158E+01  0.11863244928E+02  0.51100000000E-03 0.  1.
        -12    1    3    3    0    0 -0.26673589334E+02  0.22149155356E+02  0.19157096109E+02  0.39611359258E+02  0.00000000000E+00 0.  1.
</event>
<event>
 7    1  0.2873608E-013  0.7246157E+02  0.7816164E-02  0.1226708E+00
        -11   -1    0    0    0    0  0.00000000000E+00  0.00000000000E+00  0.45593999997E+02  0.45594000000E+02  0.51100000000E-03 0. -1.
         11   -1    0    0    0    0 -0.00000000000E+00 -0.00000000000E+00 -0.45593999997E+02  0.45594000000E+02  0.51100000000E-03 0.  1.
    9900012    2    1    2    0    0  0.38279326280E+01 -0.10449668648E+02 -0.15060893622E+02  0.72461570555E+02  0.70000000340E+02 0.  0.
         12    1    1    2    0    0 -0.38279326280E+01  0.10449668648E+02  0.15060893622E+02  0.18726429445E+02  0.00000000000E+00 0. -1.
         11    1    3    3    0    0  0.21817667813E+02 -0.13696463417E+02 -0.10238413058E+02  0.27720549077E+02  0.51100000000E-03 0. -1.
        -11    1    3    3    0    0  0.98798466993E+00 -0.36651895845E+01 -0.19441234619E+02  0.19808365207E+02  0.51100000000E-03 0.  1.
        -12    1    3    3    0    0 -0.18977719855E+02  0.69119843530E+01  0.14618754056E+02  0.24932656271E+02  0.00000000000E+00 0.  1.
</event>
<event>
 7    1  0.2873608E-013  0.7246153E+02  0.7816164E-02  0.1226708E+00
        -11   -1    0    0    0    0  0.00000000000E+00  0.00000000000E+00  0.45593999997E+02  0.45594000000E+02  0.51100000000E-03 0. -1.
         11   -1    0    0    0    0 -0.00000000000E+00 -0.00000000000E+00 -0.45593999997E+02  0.45594000000E+02  0.51100000000E-03 0.  1.
    9900012    2    1    2    0    0  0.12560793902E+02 -0.13886553205E+02  0.26605941781E+00  0.72461529672E+02  0.69999947081E+02 0.  0.
         12    1    1    2    0    0 -0.12560793902E+02  0.13886553205E+02 -0.26605941781E+00  0.18726470328E+02  0.00000000000E+00 0. -1.
         11    1    3    3    0    0 -0.18625475223E+02 -0.12418421665E+01 -0.58061717132E+01  0.19548967479E+02  0.51100000000E-03 0. -1.
        -11    1    3    3    0    0  0.17369165745E+02 -0.99460329394E+01 -0.16748763945E+02  0.26098516890E+02  0.51100000000E-03 0.  1.
         12    1    3    3    0    0  0.13817103380E+02 -0.26986780989E+01  0.22820995076E+02  0.26814045303E+02  0.00000000000E+00 0. -1.
</event>
<event>
 7    1  0.2873608E-013  0.7246174E+02  0.7816164E-02  0.1226708E+00
        -11   -1    0    0    0    0  0.00000000000E+00  0.00000000000E+00  0.45593999997E+02  0.45594000000E+02  0.51100000000E-03 0. -1.
         11   -1    0    0    0    0 -0.00000000000E+00 -0.00000000000E+00 -0.45593999997E+02  0.45594000000E+02  0.51100000000E-03 0.  1.
    9900012    2    1    2    0    0  0.18159288228E+02  0.29850581404E+01  0.34644778920E+01  0.72461736942E+02  0.70000217089E+02 0.  0.
         12    1    1    2    0    0 -0.18159288228E+02 -0.29850581404E+01 -0.34644778920E+01  0.18726263058E+02  0.00000000000E+00 0. -1.
         11    1    3    3    0    0  0.12212146023E+01 -0.15071000042E+01  0.20070563963E+02  0.20164083256E+02  0.51100000000E-03 0. -1.
        -11    1    3    3    0    0  0.20923625069E+02 -0.16063827581E+02 -0.13926966881E+01  0.26415606124E+02  0.51100000000E-03 0.  1.
         12    1    3    3    0    0 -0.39855514431E+01  0.20555985725E+02 -0.15213389383E+02  0.25882047561E+02  0.00000000000E+00 0. -1.
</event>
<event>
 7    1  0.2873608E-013  0.7246150E+02  0.7816164E-02  0.1226708E+00
        -11   -1    0    0    0    0  0.00000000000E+00  0.00000000000E+00  0.45593999997E+02  0.45594000000E+02  0.51100000000E-03 0.  1.
         11   -1    0    0    0    0 -0.00000000000E+00 -0.00000000000E+00 -0.45593999997E+02  0.45594000000E+02  0.51100000000E-03 0. -1.
    9900012    2    1    2    0    0 -0.17319178460E+02  0.39593180407E+01  0.59204326686E+01  0.72461503668E+02  0.69999913207E+02 0.  0.
         12    1    1    2    0    0  0.17319178460E+02 -0.39593180407E+01 -0.59204326686E+01  0.18726496332E+02  0.00000000000E+00 0. -1.
         11    1    3    3    0    0 -0.16292864742E+02 -0.91098704135E+00 -0.12805587949E+02  0.20742960779E+02  0.51100000000E-03 0. -1.
        -11    1    3    3    0    0  0.27150868302E+01 -0.15285628240E+02 -0.84515003809E+01  0.17676254867E+02  0.51100000000E-03 0.  1.
        -12    1    3    3    0    0 -0.37414005487E+01  0.20155933322E+02  0.27177520999E+02  0.34042288022E+02  0.00000000000E+00 0.  1.
</event>
<event>
 7    1  0.2873608E-013  0.7246163E+02  0.7816164E-02  0.1226708E+00
        -11   -1    0    0    0    0  0.00000000000E+00  0.00000000000E+00  0.45593999997E+02  0.45594000000E+02  0.51100000000E-03 0.  1.
         11   -1    0    0    0    0 -0.00000000000E+00 -0.00000000000E+00 -0.45593999997E+02  0.45594000000E+02  0.51100000000E-03 0. -1.
    9900012    2    1    2    0    0 -0.17246574234E+02  0.70647072480E+01 -0.18227888334E+01  0.72461629010E+02  0.70000076488E+02 0.  0.
         12    1    1    2    0    0  0.17246574234E+02 -0.70647072480E+01  0.18227888334E+01  0.18726370990E+02  0.00000000000E+00 0. -1.
         11    1    3    3    0    0 -0.50600828047E+01  0.72311364354E+01  0.37049055400E+00  0.88335177392E+01  0.51100000000E-03 0. -1.
        -11    1    3    3    0    0  0.96233222737E+00  0.26111743647E+02  0.14448929862E+02  0.29858345802E+02  0.51100000000E-03 0.  1.
         12    1    3    3    0    0 -0.13148823657E+02 -0.26278172835E+02 -0.16642209250E+02  0.33769765469E+02  0.00000000000E+00 0. -1.
</event>
<event>
 7    1  0.2873608E-013  0.7246165E+02  0.7816164E-02  0.1226708E+00
        -11   -1    0    0    0    0  0.00000000000E+00  0.00000000000E+00  0.45593999997E+02  0.45594000000E+02  0.51100000000E-03 0. -1.
         11   -1    0    0    0    0 -0.00000000000E+00 -0.00000000000E+00 -0.45593999997E+02  0.45594000000E+02  0.51100000000E-03 0.  1.
    9900012    2    1    2    0    0  0.59636251500E+01 -0.16654184937E+00 -0.17750592005E+02  0.72461652848E+02  0.70000107541E+02 0.  0.
         12    1    1    2    0    0 -0.59636251500E+01  0.16654184937E+00  0.17750592005E+02  0.18726347152E+02  0.00000000000E+00 0. -1.
         11    1    3    3    0    0  0.12907127625E+02 -0.39259421462E+01  0.16571660262E+02  0.21368829855E+02  0.51100000000E-03 0. -1.
        -11    1    3    3    0    0  0.15346082652E+02  0.19362898291E+01 -0.13303553124E+02  0.20401862587E+02  0.51100000000E-03 0.  1.
        -12    1    3    3    0    0 -0.22289585127E+02  0.18231104677E+01 -0.21018699144E+02  0.30690960406E+02  0.00000000000E+00 0.  1.
</event>
<event>
 7    1  0.2873608E-013  0.7246165E+02  0.7816164E-02  0.1226708E+00
        -11   -1    0    0    0    0  0.00000000000E+00  0.00000000000E+00  0.45593999997E+02  0.45594000000E+02  0.51100000000E-03 0.  1.
         11   -1    0    0    0    0 -0.00000000000E+00 -0.00000000000E+00 -0.45593999997E+02  0.45594000000E+02  0.51100000000E-03 0. -1.
    9900012    2    1    2    0    0  0.64641636053E+01 -0.48554884940E+01  0.16891273759E+02  0.72461646676E+02  0.70000099501E+02 0.  0.
         12    1    1    2    0    0 -0.64641636053E+01  0.48554884940E+01 -0.16891273759E+02  0.18726353324E+02  0.00000000000E+00 0. -1.
         11    1    3    3    0    0  0.67819699993E+01 -0.12445234282E+02  0.83142831813E+01  0.16431867772E+02  0.51100000000E-03 0. -1.
        -11    1    3    3    0    0  0.19453505299E+02 -0.39870934417E+01  0.21870872349E+02  0.29541002693E+02  0.51100000000E-03 0.  1.
         12    1    3    3    0    0 -0.19771311693E+02  0.11576839229E+02 -0.13293881772E+02  0.26488776211E+02  0.00000000000E+00 0. -1.
</event>
<event>
 7    1  0.2873608E-013  0.7246146E+02  0.7816164E-02  0.1226708E+00
        -11   -1    0    0    0    0  0.00000000000E+00  0.00000000000E+00  0.45593999997E+02  0.45594000000E+02  0.51100000000E-03 0.  1.
         11   -1    0    0    0    0 -0.00000000000E+00 -0.00000000000E+00 -0.45593999997E+02  0.45594000000E+02  0.51100000000E-03 0. -1.
    9900012    2    1    2    0    0  0.11526329472E+02 -0.67755872828E+01  0.13111768122E+02  0.72461459545E+02  0.69999855728E+02 0.  0.
         12    1    1    2    0    0 -0.11526329472E+02  0.67755872828E+01 -0.13111768122E+02  0.18726540455E+02  0.00000000000E+00 0. -1.
         11    1    3    3    0    0  0.15738279603E+02 -0.21893845480E+02 -0.22067416237E+01  0.27053717371E+02  0.51100000000E-03 0. -1.
        -11    1    3    3    0    0 -0.12514682815E+02  0.42313118915E+01 -0.10037460372E+02  0.16591319937E+02  0.51100000000E-03 0.  1.
        -12    1    3    3    0    0  0.83027326836E+01  0.10886946306E+02  0.25355970118E+02  0.28816422236E+02  0.00000000000E+00 0.  1.
</event>
<event>
 7    1  0.2873608E-013  0.7246156E+02  0.7816164E-02  0.1226708E+00
        -11   -1    0    0    0    0  0.00000000000E+00  0.00000000000E+00  0.45593999997E+02  0.45594000000E+02  0.51100000000E-03 0.  1.
         11   -1    0    0    0    0 -0.00000000000E+00 -0.00000000000E+00 -0.45593999997E+02  0.45594000000E+02  0.51100000000E-03 0. -1.
    9900012    2    1    2    0    0  0.10279904412E+02 -0.15331534547E+02 -0.31539321358E+01  0.72461556819E+02  0.69999982445E+02 0.  0.
         12    1    1    2    0    0 -0.10279904412E+02  0.15331534547E+02  0.31539321358E+01  0.18726443181E+02  0.00000000000E+00 0. -1.
         11    1    3    3    0    0 -0.50396431715E+01 -0.92100476185E+01 -0.12619069063E+02  0.16415355150E+02  0.51100000000E-03 0. -1.
        -11    1    3    3    0    0  0.15300153655E+02 -0.22376150805E+02  0.22485958098E+02  0.35219385834E+02  0.51100000000E-03 0.  1.
         12    1    3    3    0    0  0.19393929084E-01  0.16254663876E+02 -0.13020821171E+02  0.20826815834E+02  0.00000000000E+00 0. -1.
</event>
<event>
 7    1  0.2873608E-013  0.7246160E+02  0.7816164E-02  0.1226708E+00
        -11   -1    0    0    0    0  0.00000000000E+00  0.00000000000E+00  0.45593999997E+02  0.45594000000E+02  0.51100000000E-03 0. -1.
         11   -1    0    0    0    0 -0.00000000000E+00 -0.00000000000E+00 -0.45593999997E+02  0.45594000000E+02  0.51100000000E-03 0.  1.
    9900012    2    1    2    0    0 -0.14200430301E+02 -0.11478911963E+02  0.41545604582E+01  0.72461601169E+02  0.70000040220E+02 0.  0.
         12    1    1    2    0    0  0.14200430301E+02  0.11478911963E+02 -0.41545604582E+01  0.18726398831E+02  0.00000000000E+00 0. -1.
         11    1    3    3    0    0  0.10036977338E+02 -0.81795543839E+01  0.99077073293E+01  0.16303640354E+02  0.51100000000E-03 0. -1.
        -11    1    3    3    0    0  0.13035527484E+02  0.82951194659E+01 -0.73084960746E+01  0.17092340357E+02  0.51100000000E-03 0.  1.
        -12    1    3    3    0    0 -0.37272935123E+02 -0.11594477045E+02  0.15553492034E+01  0.39065620458E+02  0.00000000000E+00 0.  1.
</event>
<event>
 7    1  0.2873608E-013  0.7246175E+02  0.7816164E-02  0.1226708E+00
        -11   -1    0    0    0    0  0.00000000000E+00  0.00000000000E+00  0.45593999997E+02  0.45594000000E+02  0.51100000000E-03 0.  1.
         11   -1    0    0    0    0 -0.00000000000E+00 -0.00000000000E+00 -0.45593999997E+02  0.45594000000E+02  0.51100000000E-03 0. -1.
    9900012    2    1    2    0    0 -0.92113278033E+01 -0.14967223499E+02  0.64657599509E+01  0.72461751285E+02  0.70000235774E+02 0.  0.
         12    1    1    2    0    0  0.92113278033E+01  0.14967223499E+02 -0.64657599509E+01  0.18726248715E+02  0.00000000000E+00 0. -1.
         11    1    3    3    0    0  0.14602031760E+02  0.10165189259E+01 -0.98849008407E+00  0.14670710793E+02  0.51100000000E-03 0. -1.
        -11    1    3    3    0    0  0.12952758734E+02 -0.85703513665E+00  0.12122867636E+02  0.17761542389E+02  0.51100000000E-03 0.  1.
        -12    1    3    3    0    0 -0.36766118298E+02 -0.15126707289E+02 -0.46686176013E+01  0.40029498103E+02  0.00000000000E+00 0.  1.
</event>
<event>
 7    1  0.2873608E-013  0.7246159E+02  0.7816164E-02  0.1226708E+00
        -11   -1    0    0    0    0  0.00000000000E+00  0.00000000000E+00  0.45593999997E+02  0.45594000000E+02  0.51100000000E-03 0.  1.
         11   -1    0    0    0    0 -0.00000000000E+00 -0.00000000000E+00 -0.45593999997E+02  0.45594000000E+02  0.51100000000E-03 0. -1.
    9900012    2    1    2    0    0 -0.12963960618E+02 -0.99882834889E+01 -0.91020968883E+01  0.72461594853E+02  0.70000031992E+02 0.  0.
         12    1    1    2    0    0  0.12963960618E+02  0.99882834889E+01  0.91020968883E+01  0.18726405147E+02  0.00000000000E+00 0. -1.
         11    1    3    3    0    0  0.17978024570E+02  0.94999158351E+01 -0.82780031760E+01  0.21954113628E+02  0.51100000000E-03 0. -1.
        -11    1    3    3    0    0  0.26205144754E+01 -0.46889312454E+01  0.10772537719E+02  0.12037472389E+02  0.51100000000E-03 0.  1.
        -12    1    3    3    0    0 -0.33562499664E+02 -0.14799268079E+02 -0.11596631431E+02  0.38470008837E+02  0.00000000000E+00 0.  1.
</event>
<event>
 7    1  0.2873608E-013  0.7246163E+02  0.7816164E-02  0.1226708E+00
        -11   -1    0    0    0    0  0.00000000000E+00  0.00000000000E+00  0.45593999997E+02  0.45594000000E+02  0.51100000000E-03 0. -1.
         11   -1    0    0    0    0 -0.00000000000E+00 -0.00000000000E+00 -0.45593999997E+02  0.45594000000E+02  0.51100000000E-03 0.  1.
    9900012    2    1    2    0    0  0.15261333012E+02 -0.26907035261E+01  0.10513258311E+02  0.72461634333E+02  0.70000083423E+02 0.  0.
         12    1    1    2    0    0 -0.15261333012E+02  0.26907035261E+01 -0.10513258311E+02  0.18726365667E+02  0.00000000000E+00 0. -1.
         11    1    3    3    0    0  0.15500901978E+02 -0.13775373882E+02  0.17736900663E+02  0.27288029117E+02  0.51100000000E-03 0. -1.
        -11    1    3    3    0    0  0.24522397867E+01 -0.70745142003E+01 -0.20952515950E+02  0.22250172045E+02  0.51100000000E-03 0.  1.
         12    1    3    3    0    0 -0.26918087526E+01  0.18159184556E+02  0.13728873598E+02  0.22923433171E+02  0.00000000000E+00 0. -1.
</event>
<event>
 7    1  0.2873608E-013  0.7246166E+02  0.7816164E-02  0.1226708E+00
        -11   -1    0    0    0    0  0.00000000000E+00  0.00000000000E+00  0.45593999997E+02  0.45594000000E+02  0.51100000000E-03 0.  1.
         11   -1    0    0    0    0 -0.00000000000E+00 -0.00000000000E+00 -0.45593999997E+02  0.45594000000E+02  0.51100000000E-03 0. -1.
    9900012    2    1    2    0    0  0.35050823706E+01  0.18279854910E+02 -0.20584539208E+01  0.72461656777E+02  0.70000112660E+02 0.  0.
         12    1    1    2    0    0 -0.35050823706E+01 -0.18279854910E+02  0.20584539208E+01  0.18726343223E+02  0.00000000000E+00 0. -1.
         11    1    3    3    0    0  0.94971242581E+01  0.69717601626E+01 -0.59788551630E+01  0.13211643284E+02  0.51100000000E-03 0. -1.
        -11    1    3    3    0    0 -0.22109575878E+02 -0.16077292726E+02  0.22621419816E+01  0.27430457041E+02  0.51100000000E-03 0.  1.
         12    1    3    3    0    0  0.16117533990E+02  0.27385387474E+02  0.16582592606E+01  0.31819556452E+02  0.00000000000E+00 0. -1.
</event>
<event>
 7    1  0.2873608E-013  0.7246152E+02  0.7816164E-02  0.1226708E+00
        -11   -1    0    0    0    0  0.00000000000E+00  0.00000000000E+00  0.45593999997E+02  0.45594000000E+02  0.51100000000E-03 0. -1.
         11   -1    0    0    0    0 -0.00000000000E+00 -0.00000000000E+00 -0.45593999997E+02  0.45594000000E+02  0.51100000000E-03 0.  1.
    9900012    2    1    2    0    0 -0.16378025475E+02 -0.64705099252E+01 -0.63697643621E+01  0.72461518345E+02  0.69999932327E+02 0.  0.
         12    1    1    2    0    0  0.16378025475E+02  0.64705099252E+01  0.63697643621E+01  0.18726481655E+02  0.00000000000E+00 0. -1.
         11    1    3    3    0    0 -0.80367857703E+01 -0.99142083130E+01 -0.22687960321E+02  0.26031231161E+02  0.51100000000E-03 0. -1.
        -11    1    3    3    0    0 -0.15222158610E+02 -0.11108835870E+02  0.22355132129E+02  0.29238198985E+02  0.51100000000E-03 0.  1.
         12    1    3    3    0    0  0.68809189056E+01  0.14552534258E+02 -0.60369361701E+01  0.17192088199E+02  0.00000000000E+00 0. -1.
</event>
<event>
 7    1  0.2873608E-013  0.7246158E+02  0.7816164E-02  0.1226708E+00
        -11   -1    0    0    0    0  0.00000000000E+00  0.00000000000E+00  0.45593999997E+02  0.45594000000E+02  0.51100000000E-03 0.  1.
         11   -1    0    0    0    0 -0.00000000000E+00 -0.00000000000E+00 -0.45593999997E+02  0.45594000000E+02  0.51100000000E-03 0. -1.
    9900012    2    1    2    0    0  0.10488706305E+02 -0.13230061287E+02  0.81013209206E+01  0.72461577964E+02  0.70000009992E+02 0.  0.
         12    1    1    2    0    0 -0.10488706305E+02  0.13230061287E+02 -0.81013209206E+01  0.18726422036E+02  0.00000000000E+00 0. -1.
         11    1    3    3    0    0 -0.17017933815E+02  0.76570736657E+00 -0.13412401758E+02  0.21681533624E+02  0.51100000000E-03 0. -1.
        -11    1    3    3    0    0 -0.13007312528E+01  0.81494764672E+01  0.93301220725E+01  0.12456205146E+02  0.51100000000E-03 0.  1.
        -12    1    3    3    0    0  0.28807371373E+02 -0.22145245121E+02  0.12183600607E+02  0.38323839194E+02  0.00000000000E+00 0.  1.
</event>
<event>
 7    1  0.2873608E-013  0.7246143E+02  0.7816164E-02  0.1226708E+00
        -11   -1    0    0    0    0  0.00000000000E+00  0.00000000000E+00  0.45593999997E+02  0.45594000000E+02  0.51100000000E-03 0.  1.
         11   -1    0    0    0    0 -0.00000000000E+00 -0.00000000000E+00 -0.45593999997E+02  0.45594000000E+02  0.51100000000E-03 0. -1.
    9900012    2    1    2    0    0 -0.10018536133E+02  0.63958882386E+01  0.14470865805E+02  0.72461430379E+02  0.69999817734E+02 0.  0.
         12    1    1    2    0    0  0.10018536133E+02 -0.63958882386E+01 -0.14470865805E+02  0.18726569621E+02  0.00000000000E+00 0. -1.
         11    1    3    3    0    0  0.33237716185E+01 -0.17219019180E+01 -0.23799894176E+02  0.24092475320E+02  0.51100000000E-03 0. -1.
        -11    1    3    3    0    0  0.72440193622E+01  0.34391414821E+01  0.14556399873E+02  0.16619033912E+02  0.51100000000E-03 0.  1.
        -12    1    3    3    0    0 -0.20586327114E+02  0.46786486744E+01  0.23714360109E+02  0.31749921147E+02  0.00000000000E+00 0.  1.
</event>
<event>
 7    1  0.2873608E-013  0.7246148E+02  0.7816164E-02  0.1226708E+00
        -11   -1    0    0    0    0  0.00000000000E+00  0.00000000000E+00  0.45593999997E+02  0.45594000000E+02  0.51100000000E-03 0.  1.
         11   -1    0    0    0    0 -0.00000000000E+00 -0.00000000000E+00 -0.45593999997E+02  0.45594000000E+02  0.51100000000E-03 0. -1.
    9900012    2    1    2    0    0 -0.13555486686E+02  0.10177284058E+02  0.79595328347E+01  0.72461481556E+02  0.69999884402E+02 0.  0.
         12    1    1    2    0    0  0.13555486686E+02 -0.10177284058E+02 -0.79595328347E+01  0.18726518444E+02  0.00000000000E+00 0. -1.
         11    1    3    3    0    0 -0.32824210245E+01  0.75312307094E+00  0.58394817053E+01  0.67409961423E+01  0.51100000000E-03 0. -1.
        -11    1    3    3    0    0 -0.25398773030E+02 -0.18344353646E+02  0.10438375560E+02  0.33023819687E+02  0.51100000000E-03 0.  1.
         12    1    3    3    0    0  0.15125707369E+02  0.27768514633E+02 -0.83183244305E+01  0.32696665727E+02  0.00000000000E+00 0. -1.
</event>
<event>
 7    1  0.2873608E-013  0.7246148E+02  0.7816164E-02  0.1226708E+00
        -11   -1    0    0    0    0  0.00000000000E+00  0.00000000000E+00  0.45593999997E+02  0.45594000000E+02  0.51100000000E-03 0. -1.
         11   -1    0    0    0    0 -0.00000000000E+00 -0.00000000000E+00 -0.45593999997E+02  0.45594000000E+02  0.51100000000E-03 0.  1.
    9900012    2    1    2    0    0 -0.14971678670E+01 -0.16198769940E+02 -0.92758248991E+01  0.72461479054E+02  0.69999881143E+02 0.  0.
         12    1    1    2    0    0  0.14971678670E+01  0.16198769940E+02  0.92758248991E+01  0.18726520946E+02  0.00000000000E+00 0. -1.
         11    1    3    3    0    0 -0.11382207532E+02 -0.39026477791E+01  0.64255603336E+01  0.13640862651E+02  0.51100000000E-03 0. -1.
        -11    1    3    3    0    0 -0.11698342432E+02  0.16151611702E+02 -0.33487633309E+00  0.19945874727E+02  0.51100000000E-03 0.  1.
        -12    1    3    3    0    0  0.21583382097E+02 -0.28447733862E+02 -0.15366508900E+02  0.38874741676E+02  0.00000000000E+00 0.  1.
</event>
<event>
 7    1  0.2873608E-013  0.7246159E+02  0.7816164E-02  0.1226708E+00
        -11   -1    0    0    0    0  0.00000000000E+00  0.00000000000E+00  0.45593999997E+02  0.45594000000E+02  0.51100000000E-03 0.  1.
         11   -1    0    0    0    0 -0.00000000000E+00 -0.00000000000E+00 -0.45593999997E+02  0.45594000000E+02  0.51100000000E-03 0. -1.
    9900012    2    1    2    0    0  0.83286287786E+01 -0.42519427477E+01  0.16224469397E+02  0.72461588660E+02  0.70000023924E+02 0.  0.
         12    1    1    2    0    0 -0.83286287786E+01  0.42519427477E+01 -0.16224469397E+02  0.18726411340E+02  0.00000000000E+00 0. -1.
         11    1    3    3    0    0 -0.11171418577E+02 -0.29230847255E+02  0.45008462859E+01  0.31614880070E+02  0.51100000000E-03 0. -1.
        -11    1    3    3    0    0  0.86872523242E+01  0.89185993627E+01  0.16724816574E+02  0.20850162043E+02  0.51100000000E-03 0.  1.
        -12    1    3    3    0    0  0.10812795032E+02  0.16060305145E+02 -0.50011934622E+01  0.19996546547E+02  0.00000000000E+00 0.  1.
</event>
<event>
 7    1  0.2873608E-013  0.7246163E+02  0.7816164E-02  0.1226708E+00
        -11   -1    0    0    0    0  0.00000000000E+00  0.00000000000E+00  0.45593999997E+02  0.45594000000E+02  0.51100000000E-03 0. -1.
         11   -1    0    0    0    0 -0.00000000000E+00 -0.00000000000E+00 -0.45593999997E+02  0.45594000000E+02  0.51100000000E-03 0.  1.
    9900012    2    1    2    0    0 -0.73275660666E+01 -0.12709445573E+02  0.11638453316E+02  0.72461632845E+02  0.70000081483E+02 0.  0.
         12    1    1    2    0    0  0.73275660666E+01  0.12709445573E+02 -0.11638453316E+02  0.18726367155E+02  0.00000000000E+00 0. -1.
         11    1    3    3    0    0  0.15715705307E+01  0.81669252382E+01  0.19853512135E+01  0.85504456891E+01  0.51100000000E-03 0. -1.
        -11    1    3    3    0    0  0.14163787197E+02 -0.11991798565E+02 -0.18667441934E+02  0.26322794100E+02  0.51100000000E-03 0.  1.
         12    1    3    3    0    0 -0.23062923795E+02 -0.88845722461E+01  0.28320544037E+02  0.37588393056E+02  0.00000000000E+00 0. -1.
</event>
<event>
 7    1  0.2873608E-013  0.7246157E+02  0.7816164E-02  0.1226708E+00
        -11   -1    0    0    0    0  0.00000000000E+00  0.00000000000E+00  0.45593999997E+02  0.45594000000E+02  0.51100000000E-03 0. -1.
         11   -1    0    0    0    0 -0.00000000000E+00 -0.00000000000E+00 -0.45593999997E+02  0.45594000000E+02  0.51100000000E-03 0.  1.
    9900012    2    1    2    0    0  0.57722268292E+01  0.39447668531E+01 -0.17372370210E+02  0.72461573891E+02  0.70000004685E+02 0.  0.
         12    1    1    2    0    0 -0.57722268292E+01 -0.39447668531E+01  0.17372370210E+02  0.18726426109E+02  0.00000000000E+00 0. -1.
         11    1    3    3    0    0  0.59725310020E+01  0.40265480109E+01  0.10054870079E+02  0.12368695486E+02  0.51100000000E-03 0. -1.
        -11    1    3    3    0    0  0.23653342342E+02 -0.30791010777E+01 -0.31255256122E+00  0.23854960841E+02  0.51100000000E-03 0.  1.
         12    1    3    3    0    0 -0.23853646515E+02  0.29973199199E+01 -0.27114687728E+02  0.36237917564E+02  0.00000000000E+00 0. -1.
</event>
<event>
 7    1  0.2873608E-013  0.7246159E+02  0.7816164E-02  0.1226708E+00
        -11   -1    0    0    0    0  0.00000000000E+00  0.00000000000E+00  0.45593999997E+02  0.45594000000E+02  0.51100000000E-03 0.  1.
         11   -1    0    0    0    0 -0.00000000000E+00 -0.00000000000E+00 -0.45593999997E+02  0.45594000000E+02  0.51100000000E-03 0. -1.
    9900012    2    1    2    0    0  0.13472506966E+02  0.72257385707E+01  0.10814747827E+02  0.72461587840E+02  0.70000022856E+02 0.  0.
         12    1    1    2    0    0 -0.13472506966E+02 -0.72257385707E+01 -0.10814747827E+02  0.18726412160E+02  0.00000000000E+00 0. -1.
         11    1    3    3    0    0  0.12410537796E+02  0.18153568266E+01  0.92287925918E+01  0.15572012772E+02  0.51100000000E-03 0. -1.
        -11    1    3    3    0    0  0.16455917174E+02 -0.93448685999E+01 -0.19308148582E+02  0.27035687177E+02  0.51100000000E-03 0.  1.
        -12    1    3    3    0    0 -0.15393948005E+02  0.14755250344E+02  0.20894103817E+02  0.29853887891E+02  0.00000000000E+00 0.  1.
</event>
<event>
 7    1  0.2873608E-013  0.7246155E+02  0.7816164E-02  0.1226708E+00
        -11   -1    0    0    0    0  0.00000000000E+00  0.00000000000E+00  0.45593999997E+02  0.45594000000E+02  0.51100000000E-03 0. -1.
         11   -1    0    0    0    0 -0.00000000000E+00 -0.00000000000E+00 -0.45593999997E+02  0.45594000000E+02  0.51100000000E-03 0.  1.
    9900012    2    1    2    0    0 -0.12264999216E+02  0.13132923288E+02  0.52703005489E+01  0.72461549516E+02  0.69999972933E+02 0.  0.
         12    1    1    2    0    0  0.12264999216E+02 -0.13132923288E+02 -0.52703005489E+01  0.18726450484E+02  0.00000000000E+00 0. -1.
         11    1    3    3    0    0 -0.30038577650E+02  0.70041174488E+01  0.83224672297E+01  0.31947414129E+02  0.51100000000E-03 0. -1.
        -11    1    3    3    0    0 -0.68545670229E+00  0.31180560189E+01  0.14510648041E+02  0.14857692656E+02  0.51100000000E-03 0.  1.
        -12    1    3    3    0    0  0.18459035137E+02  0.30107498202E+01 -0.17562814722E+02  0.25656442731E+02  0.00000000000E+00 0.  1.
</event>
<event>
 7    1  0.2873608E-013  0.7246198E+02  0.7816164E-02  0.1226707E+00
        -11   -1    0    0    0    0  0.00000000000E+00  0.00000000000E+00  0.45593999997E+02  0.45594000000E+02  0.51100000000E-03 0. -1.
         11   -1    0    0    0    0 -0.00000000000E+00 -0.00000000000E+00 -0.45593999997E+02  0.45594000000E+02  0.51100000000E-03 0.  1.
    9900012    2    1    2    0    0 -0.57184538518E+01  0.14374848973E+02 -0.10551147985E+02  0.72461982771E+02  0.70000537325E+02 0.  0.
         12    1    1    2    0    0  0.57184538518E+01 -0.14374848973E+02  0.10551147985E+02  0.18726017229E+02  0.00000000000E+00 0. -1.
         11    1    3    3    0    0 -0.18123483546E+02  0.98297988221E+01 -0.17094852288E+01  0.20688352780E+02  0.51100000000E-03 0. -1.
        -11    1    3    3    0    0 -0.14891361725E+02  0.86272998716E+01 -0.15742534361E+02  0.23324029358E+02  0.51100000000E-03 0.  1.
         12    1    3    3    0    0  0.27296391420E+02 -0.40822497206E+01  0.69008716044E+01  0.28449600634E+02  0.00000000000E+00 0. -1.
</event>
<event>
 7    1  0.2873608E-013  0.7246149E+02  0.7816164E-02  0.1226708E+00
        -11   -1    0    0    0    0  0.00000000000E+00  0.00000000000E+00  0.45593999997E+02  0.45594000000E+02  0.51100000000E-03 0.  1.
         11   -1    0    0    0    0 -0.00000000000E+00 -0.00000000000E+00 -0.45593999997E+02  0.45594000000E+02  0.51100000000E-03 0. -1.
    9900012    2    1    2    0    0 -0.16458165116E+02  0.65196625169E+01  0.61077929844E+01  0.72461485816E+02  0.69999889951E+02 0.  0.
         12    1    1    2    0    0  0.16458165116E+02 -0.65196625169E+01 -0.61077929844E+01  0.18726514184E+02  0.00000000000E+00 0. -1.
         11    1    3    3    0    0  0.16860972721E+02  0.12752426266E+01 -0.66479549913E+00  0.16922192476E+02  0.51100000000E-03 0. -1.
        -11    1    3    3    0    0 -0.19979786238E+02  0.33171817832E+01 -0.18156373566E+02  0.27200173794E+02  0.51100000000E-03 0.  1.
        -12    1    3    3    0    0 -0.13339351600E+02  0.19272381071E+01  0.24928962049E+02  0.28339119547E+02  0.00000000000E+00 0.  1.
</event>
<event>
 7    1  0.2873608E-013  0.7246159E+02  0.7816164E-02  0.1226708E+00
        -11   -1    0    0    0    0  0.00000000000E+00  0.00000000000E+00  0.45593999997E+02  0.45594000000E+02  0.51100000000E-03 0. -1.
         11   -1    0    0    0    0 -0.00000000000E+00 -0.00000000000E+00 -0.45593999997E+02  0.45594000000E+02  0.51100000000E-03 0.  1.
    9900012    2    1    2    0    0  0.20013636381E+01 -0.14443910674E+02 -0.11749312762E+02  0.72461591846E+02  0.70000028076E+02 0.  0.
         12    1    1    2    0    0 -0.20013636381E+01  0.14443910674E+02  0.11749312762E+02  0.18726408154E+02  0.00000000000E+00 0. -1.
         11    1    3    3    0    0 -0.24169690444E+01 -0.22954893554E+02 -0.15211041864E+02  0.27643166828E+02  0.51100000000E-03 0. -1.
        -11    1    3    3    0    0 -0.17139732308E+01  0.87747804300E+01 -0.19285772867E+02  0.21257363693E+02  0.51100000000E-03 0.  1.
         12    1    3    3    0    0  0.61323059133E+01 -0.26379754994E+00  0.22747501969E+02  0.23561061326E+02  0.00000000000E+00 0. -1.
</event>
<event>
 7    1  0.2890981E-013  0.7246158E+02  0.7816164E-02  0.1226708E+00
        -11   -1    0    0    0    0  0.00000000000E+00  0.00000000000E+00  0.45593999997E+02  0.45594000000E+02  0.51100000000E-03 0. -1.
         11   -1    0    0    0    0 -0.00000000000E+00 -0.00000000000E+00 -0.45593999997E+02  0.45594000000E+02  0.51100000000E-03 0.  1.
    9900012    2    1    2    0    0  0.25752563731E+01  0.94939316170E+01 -0.15934619553E+02  0.72461580608E+02  0.70000013436E+02 0.  0.
         12    1    1    2    0    0 -0.25752563731E+01 -0.94939316170E+01  0.15934619553E+02  0.18726419392E+02  0.00000000000E+00 0. -1.
         11    1    3    3    0    0 -0.91436293477E+00 -0.14072966270E+02  0.34513793645E+01  0.14518831185E+02  0.51100000000E-03 0. -1.
        -11    1    3    3    0    0 -0.29909195457E+01 -0.55924185779E+01 -0.26490208119E+02  0.27238793507E+02  0.51100000000E-03 0.  1.
         12    1    3    3    0    0  0.64805388535E+01  0.29159316465E+02  0.71042092012E+01  0.30703955916E+02  0.00000000000E+00 0. -1.
</event>
<event>
 7    1  0.2873608E-013  0.7246163E+02  0.7816164E-02  0.1226708E+00
        -11   -1    0    0    0    0  0.00000000000E+00  0.00000000000E+00  0.45593999997E+02  0.45594000000E+02  0.51100000000E-03 0.  1.
         11   -1    0    0    0    0 -0.00000000000E+00 -0.00000000000E+00 -0.45593999997E+02  0.45594000000E+02  0.51100000000E-03 0. -1.
    9900012    2    1    2    0    0 -0.15823315835E+02 -0.96656482297E+01 -0.26220039777E+01  0.72461628633E+02  0.70000075997E+02 0.  0.
         12    1    1    2    0    0  0.15823315835E+02  0.96656482297E+01  0.26220039777E+01  0.18726371367E+02  0.00000000000E+00 0. -1.
         11    1    3    3    0    0 -0.82500681342E+01  0.63637575924E+01  0.76199095661E+01  0.12908294115E+02  0.51100000000E-03 0. -1.
        -11    1    3    3    0    0 -0.12722420807E+02  0.12074546028E+02  0.13716034920E+02  0.22266213579E+02  0.51100000000E-03 0.  1.
         12    1    3    3    0    0  0.51491731063E+01 -0.28103951850E+02 -0.23957948464E+02  0.37287120938E+02  0.00000000000E+00 0. -1.
</event>
<event>
 7    1  0.2873608E-013  0.7246157E+02  0.7816164E-02  0.1226708E+00
        -11   -1    0    0    0    0  0.00000000000E+00  0.00000000000E+00  0.45593999997E+02  0.45594000000E+02  0.51100000000E-03 0.  1.
         11   -1    0    0    0    0 -0.00000000000E+00 -0.00000000000E+00 -0.45593999997E+02  0.45594000000E+02  0.51100000000E-03 0. -1.
    9900012    2    1    2    0    0 -0.10851649117E+02  0.14244616813E+02  0.54783046777E+01  0.72461568977E+02  0.69999998284E+02 0.  0.
         12    1    1    2    0    0  0.10851649117E+02 -0.14244616813E+02 -0.54783046777E+01  0.18726431023E+02  0.00000000000E+00 0. -1.
         11    1    3    3    0    0  0.71620477302E+01  0.13804607347E+02  0.27383450919E+01  0.15791157203E+02  0.51100000000E-03 0. -1.
        -11    1    3    3    0    0 -0.14876633177E+02  0.25792682700E+02 -0.45111410505E+01  0.30115230190E+02  0.51100000000E-03 0.  1.
         12    1    3    3    0    0 -0.31370636703E+01 -0.25352673234E+02  0.72511006364E+01  0.26555181585E+02  0.00000000000E+00 0. -1.
</event>
<event>
 7    1  0.2873608E-013  0.7246157E+02  0.7816164E-02  0.1226708E+00
        -11   -1    0    0    0    0  0.00000000000E+00  0.00000000000E+00  0.45593999997E+02  0.45594000000E+02  0.51100000000E-03 0. -1.
         11   -1    0    0    0    0 -0.00000000000E+00 -0.00000000000E+00 -0.45593999997E+02  0.45594000000E+02  0.51100000000E-03 0.  1.
    9900012    2    1    2    0    0 -0.15617146844E+02  0.10102425092E+02  0.21736949827E+01  0.72461568996E+02  0.69999998308E+02 0.  0.
         12    1    1    2    0    0  0.15617146844E+02 -0.10102425092E+02 -0.21736949827E+01  0.18726431004E+02  0.00000000000E+00 0. -1.
         11    1    3    3    0    0  0.10990593502E+02  0.27686756203E+02 -0.12712374952E+02  0.32387560756E+02  0.51100000000E-03 0. -1.
        -11    1    3    3    0    0 -0.94786768574E+01 -0.89874529433E+00  0.12963362623E+02  0.16084210544E+02  0.51100000000E-03 0.  1.
        -12    1    3    3    0    0 -0.17129063488E+02 -0.16685585817E+02  0.19227073120E+01  0.23989797695E+02  0.00000000000E+00 0.  1.
</event>
<event>
 7    1  0.2873608E-013  0.7246159E+02  0.7816164E-02  0.1226708E+00
        -11   -1    0    0    0    0  0.00000000000E+00  0.00000000000E+00  0.45593999997E+02  0.45594000000E+02  0.51100000000E-03 0.  1.
         11   -1    0    0    0    0 -0.00000000000E+00 -0.00000000000E+00 -0.45593999997E+02  0.45594000000E+02  0.51100000000E-03 0. -1.
    9900012    2    1    2    0    0  0.12568365195E+02 -0.12162422532E+02  0.66925447392E+01  0.72461588689E+02  0.70000023962E+02 0.  0.
         12    1    1    2    0    0 -0.12568365195E+02  0.12162422532E+02 -0.66925447392E+01  0.18726411311E+02  0.00000000000E+00 0. -1.
         11    1    3    3    0    0  0.91191452865E+01  0.52153690944E+01 -0.22902555227E+02  0.25196942706E+02  0.51100000000E-03 0. -1.
        -11    1    3    3    0    0 -0.79272247630E+01 -0.29739677545E+01 -0.37043841325E+01  0.92416361490E+01  0.51100000000E-03 0.  1.
        -12    1    3    3    0    0  0.11376444671E+02 -0.14403823872E+02  0.33299484099E+02  0.38023009833E+02  0.00000000000E+00 0.  1.
</event>
<event>
 7    1  0.2873608E-013  0.7246141E+02  0.7816164E-02  0.1226708E+00
        -11   -1    0    0    0    0  0.00000000000E+00  0.00000000000E+00  0.45593999997E+02  0.45594000000E+02  0.51100000000E-03 0.  1.
         11   -1    0    0    0    0 -0.00000000000E+00 -0.00000000000E+00 -0.45593999997E+02  0.45594000000E+02  0.51100000000E-03 0. -1.
    9900012    2    1    2    0    0  0.11483383931E+02  0.35688030993E+01  0.14355510372E+02  0.72461410879E+02  0.69999792332E+02 0.  0.
         12    1    1    2    0    0 -0.11483383931E+02 -0.35688030993E+01 -0.14355510372E+02  0.18726589121E+02  0.00000000000E+00 0. -1.
         11    1    3    3    0    0 -0.45590739536E+01 -0.21713111294E+00 -0.14764179041E+02  0.15453584835E+02  0.51100000000E-03 0. -1.
        -11    1    3    3    0    0 -0.12584683830E+02 -0.70242450985E+01  0.20784904571E+02  0.25292816067E+02  0.51100000000E-03 0.  1.
         12    1    3    3    0    0  0.28627141715E+02  0.10810179311E+02  0.83347848418E+01  0.31715009977E+02  0.00000000000E+00 0. -1.
</event>
<event>
 7    1  0.2873608E-013  0.7246155E+02  0.7816164E-02  0.1226708E+00
        -11   -1    0    0    0    0  0.00000000000E+00  0.00000000000E+00  0.45593999997E+02  0.45594000000E+02  0.51100000000E-03 0. -1.
         11   -1    0    0    0    0 -0.00000000000E+00 -0.00000000000E+00 -0.45593999997E+02  0.45594000000E+02  0.51100000000E-03 0.  1.
    9900012    2    1    2    0    0  0.10028568789E+02 -0.14349438230E+02  0.66484240759E+01  0.72461545126E+02  0.69999967213E+02 0.  0.
         12    1    1    2    0    0 -0.10028568789E+02  0.14349438230E+02 -0.66484240759E+01  0.18726454874E+02  0.00000000000E+00 0. -1.
         11    1    3    3    0    0  0.10793768759E+02  0.81385602075E+01  0.14062250674E+02  0.19506114441E+02  0.51100000000E-03 0.  1.
        -11    1    3    3    0    0  0.15619435428E+02 -0.13979234154E+01  0.12159760597E+02  0.19843909166E+02  0.51100000000E-03 0. -1.
        -12    1    3    3    0    0 -0.16384635399E+02 -0.21090075022E+02 -0.19573587195E+02  0.33111521519E+02  0.00000000000E+00 0.  1.
</event>
<event>
 7    1  0.3774374E-013  0.7246158E+02  0.7816164E-02  0.1226708E+00
        -11   -1    0    0    0    0  0.00000000000E+00  0.00000000000E+00  0.45593999997E+02  0.45594000000E+02  0.51100000000E-03 0. -1.
         11   -1    0    0    0    0 -0.00000000000E+00 -0.00000000000E+00 -0.45593999997E+02  0.45594000000E+02  0.51100000000E-03 0.  1.
    9900012    2    1    2    0    0 -0.63161737957E+01 -0.27209626460E+01 -0.17417839704E+02  0.72461579384E+02  0.70000011841E+02 0.  0.
         12    1    1    2    0    0  0.63161737957E+01  0.27209626460E+01  0.17417839704E+02  0.18726420616E+02  0.00000000000E+00 0. -1.
         11    1    3    3    0    0 -0.39625087615E+01  0.67803377280E+01  0.38788049170E+01  0.87589715855E+01  0.51100000000E-03 0. -1.
        -11    1    3    3    0    0  0.10970713346E+02  0.10579727809E+02 -0.33415806048E+02  0.36727418721E+02  0.51100000000E-03 0.  1.
         12    1    3    3    0    0 -0.13324378380E+02 -0.20081028183E+02  0.12119161427E+02  0.26975189078E+02  0.00000000000E+00 0. -1.
</event>
<event>
 7    1  0.2873608E-013  0.7246155E+02  0.7816164E-02  0.1226708E+00
        -11   -1    0    0    0    0  0.00000000000E+00  0.00000000000E+00  0.45593999997E+02  0.45594000000E+02  0.51100000000E-03 0.  1.
         11   -1    0    0    0    0 -0.00000000000E+00 -0.00000000000E+00 -0.45593999997E+02  0.45594000000E+02  0.51100000000E-03 0. -1.
    9900012    2    1    2    0    0  0.45223816319E+01  0.20304419254E+01  0.18058382298E+02  0.72461553427E+02  0.69999978027E+02 0.  0.
         12    1    1    2    0    0 -0.45223816319E+01 -0.20304419254E+01 -0.18058382298E+02  0.18726446573E+02  0.00000000000E+00 0. -1.
         11    1    3    3    0    0  0.85257736772E+01 -0.10133083424E+02  0.87942520656E+01  0.15896762756E+02  0.51100000000E-03 0. -1.
        -11    1    3    3    0    0  0.22495860905E+02  0.55151271904E+00  0.15034754124E+02  0.27063106917E+02  0.51100000000E-03 0.  1.
         12    1    3    3    0    0 -0.26499252950E+02  0.11612012630E+02 -0.57706238918E+01  0.29501683754E+02  0.00000000000E+00 0. -1.
</event>
<event>
 7    1  0.2873608E-013  0.7246156E+02  0.7816164E-02  0.1226708E+00
        -11   -1    0    0    0    0  0.00000000000E+00  0.00000000000E+00  0.45593999997E+02  0.45594000000E+02  0.51100000000E-03 0.  1.
         11   -1    0    0    0    0 -0.00000000000E+00 -0.00000000000E+00 -0.45593999997E+02  0.45594000000E+02  0.51100000000E-03 0. -1.
    9900012    2    1    2    0    0 -0.16055831929E+02 -0.93613036427E+01  0.22925624351E+01  0.72461559138E+02  0.69999985467E+02 0.  0.
         12    1    1    2    0    0  0.16055831929E+02  0.93613036427E+01 -0.22925624351E+01  0.18726440862E+02  0.00000000000E+00 0. -1.
         11    1    3    3    0    0 -0.61886891174E+01 -0.14429952535E+02 -0.16365112812E+02  0.22679072308E+02  0.51100000000E-03 0. -1.
        -11    1    3    3    0    0 -0.17155351284E+02 -0.16046258553E+02  0.12514409059E+02  0.26615764606E+02  0.51100000000E-03 0.  1.
         12    1    3    3    0    0  0.72882084717E+01  0.21114907445E+02  0.61432661881E+01  0.23166722224E+02  0.00000000000E+00 0. -1.
</event>
<event>
 7    1  0.2873608E-013  0.7246154E+02  0.7816164E-02  0.1226708E+00
        -11   -1    0    0    0    0  0.00000000000E+00  0.00000000000E+00  0.45593999997E+02  0.45594000000E+02  0.51100000000E-03 0.  1.
         11   -1    0    0    0    0 -0.00000000000E+00 -0.00000000000E+00 -0.45593999997E+02  0.45594000000E+02  0.51100000000E-03 0. -1.
    9900012    2    1    2    0    0 -0.13639363810E+01  0.34323465470E+01  0.18358618943E+02  0.72461542386E+02  0.69999963644E+02 0.  0.
         12    1    1    2    0    0  0.13639363810E+01 -0.34323465470E+01 -0.18358618943E+02  0.18726457614E+02  0.00000000000E+00 0. -1.
         11    1    3    3    0    0 -0.99482183933E-01 -0.96183644571E+00 -0.10507980510E+02  0.10552377965E+02  0.51100000000E-03 0. -1.
        -11    1    3    3    0    0  0.92090387561E+01 -0.18398722426E+02 -0.35937073412E+01  0.20886218289E+02  0.51100000000E-03 0.  1.
         12    1    3    3    0    0 -0.10473492953E+02  0.22792905419E+02  0.32460306795E+02  0.41022946131E+02  0.00000000000E+00 0. -1.
</event>
<event>
 7    1  0.2873608E-013  0.7246158E+02  0.7816164E-02  0.1226708E+00
        -11   -1    0    0    0    0  0.00000000000E+00  0.00000000000E+00  0.45593999997E+02  0.45594000000E+02  0.51100000000E-03 0.  1.
         11   -1    0    0    0    0 -0.00000000000E+00 -0.00000000000E+00 -0.45593999997E+02  0.45594000000E+02  0.51100000000E-03 0. -1.
    9900012    2    1    2    0    0 -0.61090697972E+01 -0.14695151164E+02  0.98696783910E+01  0.72461581414E+02  0.70000014485E+02 0.  0.
         12    1    1    2    0    0  0.61090697972E+01  0.14695151164E+02 -0.98696783910E+01  0.18726418586E+02  0.00000000000E+00 0. -1.
         11    1    3    3    0    0 -0.12391467565E+02 -0.28527129849E+02 -0.10157931168E+02  0.32718942093E+02  0.51100000000E-03 0. -1.
        -11    1    3    3    0    0 -0.12754887390E+01  0.35914843382E+01 -0.80546263378E+01  0.89108157302E+01  0.51100000000E-03 0.  1.
        -12    1    3    3    0    0  0.75578865067E+01  0.10240494346E+02  0.28082235897E+02  0.30831823590E+02  0.00000000000E+00 0.  1.
</event>
<event>
 7    1  0.2873608E-013  0.7246174E+02  0.7816164E-02  0.1226708E+00
        -11   -1    0    0    0    0  0.00000000000E+00  0.00000000000E+00  0.45593999997E+02  0.45594000000E+02  0.51100000000E-03 0. -1.
         11   -1    0    0    0    0 -0.00000000000E+00 -0.00000000000E+00 -0.45593999997E+02  0.45594000000E+02  0.51100000000E-03 0.  1.
    9900012    2    1    2    0    0 -0.51846885110E+01 -0.77326670364E+00 -0.17977592793E+02  0.72461740924E+02  0.70000222276E+02 0.  0.
         12    1    1    2    0    0  0.51846885110E+01  0.77326670364E+00  0.17977592793E+02  0.18726259076E+02  0.00000000000E+00 0. -1.
         11    1    3    3    0    0 -0.77851522426E+01 -0.27743502693E+02  0.86236071526E+01  0.30077851281E+02  0.51100000000E-03 0. -1.
        -11    1    3    3    0    0 -0.24656075981E+01  0.41040373665E+01 -0.15953528073E+02  0.16656452257E+02  0.51100000000E-03 0.  1.
        -12    1    3    3    0    0  0.50660713297E+01  0.22866198622E+02 -0.10647671873E+02  0.25727437386E+02  0.00000000000E+00 0.  1.
</event>
<event>
 7    1  0.2873608E-013  0.7246166E+02  0.7816164E-02  0.1226708E+00
        -11   -1    0    0    0    0  0.00000000000E+00  0.00000000000E+00  0.45593999997E+02  0.45594000000E+02  0.51100000000E-03 0. -1.
         11   -1    0    0    0    0 -0.00000000000E+00 -0.00000000000E+00 -0.45593999997E+02  0.45594000000E+02  0.51100000000E-03 0.  1.
    9900012    2    1    2    0    0  0.13913977532E+02  0.12290087476E+02 -0.24557870973E+01  0.72461657292E+02  0.70000113331E+02 0.  0.
         12    1    1    2    0    0 -0.13913977532E+02 -0.12290087476E+02  0.24557870973E+01  0.18726342708E+02  0.00000000000E+00 0. -1.
         11    1    3    3    0    0  0.93595754313E+01  0.63721114886E+00  0.21711184712E+01  0.96291975771E+01  0.51100000000E-03 0. -1.
        -11    1    3    3    0    0  0.88981421782E+01 -0.24590178347E+02 -0.14107671210E+01  0.26188624811E+02  0.51100000000E-03 0.  1.
         12    1    3    3    0    0 -0.43437400778E+01  0.36243054674E+02 -0.32161384475E+01  0.36643834905E+02  0.00000000000E+00 0. -1.
</event>
<event>
 7    1  0.2873608E-013  0.7246158E+02  0.7816164E-02  0.1226708E+00
        -11   -1    0    0    0    0  0.00000000000E+00  0.00000000000E+00  0.45593999997E+02  0.45594000000E+02  0.51100000000E-03 0.  1.
         11   -1    0    0    0    0 -0.00000000000E+00 -0.00000000000E+00 -0.45593999997E+02  0.45594000000E+02  0.51100000000E-03 0. -1.
    9900012    2    1    2    0    0 -0.27554238505E+01 -0.15581943438E+02  0.10014471835E+02  0.72461575674E+02  0.70000007008E+02 0.  0.
         12    1    1    2    0    0  0.27554238505E+01  0.15581943438E+02 -0.10014471835E+02  0.18726424326E+02  0.00000000000E+00 0. -1.
         11    1    3    3    0    0 -0.11046015115E+02  0.21394007451E+01 -0.46167148264E+01  0.12161642221E+02  0.51100000000E-03 0. -1.
        -11    1    3    3    0    0 -0.22058827341E+02 -0.10701467309E+02 -0.26776767242E+01  0.24663398370E+02  0.51100000000E-03 0.  1.
        -12    1    3    3    0    0  0.30349418605E+02 -0.70198768740E+01  0.17308863386E+02  0.35636535083E+02  0.00000000000E+00 0.  1.
</event>
<event>
 7    1  0.2873608E-013  0.7246154E+02  0.7816164E-02  0.1226708E+00
        -11   -1    0    0    0    0  0.00000000000E+00  0.00000000000E+00  0.45593999997E+02  0.45594000000E+02  0.51100000000E-03 0.  1.
         11   -1    0    0    0    0 -0.00000000000E+00 -0.00000000000E+00 -0.45593999997E+02  0.45594000000E+02  0.51100000000E-03 0. -1.
    9900012    2    1    2    0    0  0.12740992302E+02 -0.20813304552E+01 -0.13565231705E+02  0.72461539242E+02  0.69999959548E+02 0.  0.
         12    1    1    2    0    0 -0.12740992302E+02  0.20813304552E+01  0.13565231705E+02  0.18726460758E+02  0.00000000000E+00 0. -1.
         11    1    3    3    0    0  0.24182262879E+02  0.59204955320E+01 -0.31744322523E+02  0.40342733150E+02  0.51100000000E-03 0. -1.
        -11    1    3    3    0    0  0.63523623065E+01  0.97252603233E-01  0.17702762517E+01  0.65951378462E+01  0.51100000000E-03 0.  1.
        -12    1    3    3    0    0 -0.17793632884E+02 -0.80990785905E+01  0.16408814566E+02  0.25523668245E+02  0.00000000000E+00 0.  1.
</event>
<event>
 7    1  0.2873608E-013  0.7246162E+02  0.7816164E-02  0.1226708E+00
        -11   -1    0    0    0    0  0.00000000000E+00  0.00000000000E+00  0.45593999997E+02  0.45594000000E+02  0.51100000000E-03 0.  1.
         11   -1    0    0    0    0 -0.00000000000E+00 -0.00000000000E+00 -0.45593999997E+02  0.45594000000E+02  0.51100000000E-03 0. -1.
    9900012    2    1    2    0    0 -0.66056048605E+01 -0.17157101960E+02 -0.35604785305E+01  0.72461623666E+02  0.70000069527E+02 0.  0.
         12    1    1    2    0    0  0.66056048605E+01  0.17157101960E+02  0.35604785305E+01  0.18726376334E+02  0.00000000000E+00 0. -1.
         11    1    3    3    0    0 -0.50841113866E+01  0.20782390412E+01 -0.11648530797E+02  0.12878491220E+02  0.51100000000E-03 0. -1.
        -11    1    3    3    0    0 -0.20017100168E+02  0.57320711473E+01 -0.10558452522E+02  0.23345703216E+02  0.51100000000E-03 0.  1.
         12    1    3    3    0    0  0.18495606694E+02 -0.24967412148E+02  0.18646504788E+02  0.36237429230E+02  0.00000000000E+00 0. -1.
</event>
<event>
 7    1  0.2873608E-013  0.7246154E+02  0.7816164E-02  0.1226708E+00
        -11   -1    0    0    0    0  0.00000000000E+00  0.00000000000E+00  0.45593999997E+02  0.45594000000E+02  0.51100000000E-03 0.  1.
         11   -1    0    0    0    0 -0.00000000000E+00 -0.00000000000E+00 -0.45593999997E+02  0.45594000000E+02  0.51100000000E-03 0. -1.
    9900012    2    1    2    0    0  0.67502233262E+01  0.37945030482E+01  0.17050408252E+02  0.72461543050E+02  0.69999964510E+02 0.  0.
         12    1    1    2    0    0 -0.67502233262E+01 -0.37945030482E+01 -0.17050408252E+02  0.18726456950E+02  0.00000000000E+00 0. -1.
         11    1    3    3    0    0 -0.11671112770E+01  0.20200556763E+02 -0.69491281836E+01  0.21394275520E+02  0.51100000000E-03 0. -1.
        -11    1    3    3    0    0  0.16325693180E+02  0.87673430173E+01  0.94928368564E+01  0.20820867254E+02  0.51100000000E-03 0.  1.
         12    1    3    3    0    0 -0.84083585763E+01 -0.25173396732E+02  0.14506699579E+02  0.30246400276E+02  0.00000000000E+00 0. -1.
</event>
<event>
 7    1  0.2873608E-013  0.7246151E+02  0.7816164E-02  0.1226708E+00
        -11   -1    0    0    0    0  0.00000000000E+00  0.00000000000E+00  0.45593999997E+02  0.45594000000E+02  0.51100000000E-03 0. -1.
         11   -1    0    0    0    0 -0.00000000000E+00 -0.00000000000E+00 -0.45593999997E+02  0.45594000000E+02  0.51100000000E-03 0.  1.
    9900012    2    1    2    0    0 -0.58062110662E+01  0.52526973595E+01 -0.17011127853E+02  0.72461511079E+02  0.69999922861E+02 0.  0.
         12    1    1    2    0    0  0.58062110662E+01 -0.52526973595E+01  0.17011127853E+02  0.18726488921E+02  0.00000000000E+00 0. -1.
         11    1    3    3    0    0  0.46839529580E+01 -0.88214766417E+01  0.39118177184E+01  0.10726611001E+02  0.51100000000E-03 0. -1.
        -11    1    3    3    0    0 -0.32137424538E+02  0.53611099485E+00 -0.80181265825E+01  0.33126904852E+02  0.51100000000E-03 0.  1.
         12    1    3    3    0    0  0.21647260514E+02  0.13538063006E+02 -0.12904818988E+02  0.28607995226E+02  0.00000000000E+00 0. -1.
</event>
<event>
 7    1  0.2873608E-013  0.7246155E+02  0.7816164E-02  0.1226708E+00
        -11   -1    0    0    0    0  0.00000000000E+00  0.00000000000E+00  0.45593999997E+02  0.45594000000E+02  0.51100000000E-03 0. -1.
         11   -1    0    0    0    0 -0.00000000000E+00 -0.00000000000E+00 -0.45593999997E+02  0.45594000000E+02  0.51100000000E-03 0.  1.
    9900012    2    1    2    0    0  0.17766328181E+02 -0.59192366365E+01  0.48626062773E-02  0.72461553379E+02  0.69999977965E+02 0.  0.
         12    1    1    2    0    0 -0.17766328181E+02  0.59192366365E+01 -0.48626062773E-02  0.18726446621E+02  0.00000000000E+00 0. -1.
         11    1    3    3    0    0  0.14020324962E+02  0.52522568464E+01  0.10617068064E+02  0.18354232442E+02  0.51100000000E-03 0. -1.
        -11    1    3    3    0    0  0.19501962970E+02  0.13511303897E+02 -0.36025359711E+01  0.23997086456E+02  0.51100000000E-03 0.  1.
        -12    1    3    3    0    0 -0.15755959751E+02 -0.24682797380E+02 -0.70096694862E+01  0.30110234481E+02  0.00000000000E+00 0.  1.
</event>
<event>
 7    1  0.2873608E-013  0.7246161E+02  0.7816164E-02  0.1226708E+00
        -11   -1    0    0    0    0  0.00000000000E+00  0.00000000000E+00  0.45593999997E+02  0.45594000000E+02  0.51100000000E-03 0.  1.
         11   -1    0    0    0    0 -0.00000000000E+00 -0.00000000000E+00 -0.45593999997E+02  0.45594000000E+02  0.51100000000E-03 0. -1.
    9900012    2    1    2    0    0 -0.61275170170E+00 -0.18370730140E+02  0.35802761684E+01  0.72461613056E+02  0.70000055705E+02 0.  0.
         12    1    1    2    0    0  0.61275170170E+00  0.18370730140E+02 -0.35802761684E+01  0.18726386944E+02  0.00000000000E+00 0. -1.
         11    1    3    3    0    0  0.39744913243E+01  0.34699586894E+01  0.10365631192E+02  0.11631143747E+02  0.51100000000E-03 0. -1.
        -11    1    3    3    0    0 -0.16113502261E+02 -0.43943857785E+01  0.20507544060E+02  0.26448344847E+02  0.51100000000E-03 0.  1.
         12    1    3    3    0    0  0.11526259235E+02 -0.17446303051E+02 -0.27292899084E+02  0.34382124462E+02  0.00000000000E+00 0. -1.
</event>
<event>
 7    1  0.2873608E-013  0.7246136E+02  0.7816164E-02  0.1226709E+00
        -11   -1    0    0    0    0  0.00000000000E+00  0.00000000000E+00  0.45593999997E+02  0.45594000000E+02  0.51100000000E-03 0. -1.
         11   -1    0    0    0    0 -0.00000000000E+00 -0.00000000000E+00 -0.45593999997E+02  0.45594000000E+02  0.51100000000E-03 0.  1.
    9900012    2    1    2    0    0 -0.58438810705E+01  0.17698067976E+02 -0.18205286593E+01  0.72461364406E+02  0.69999731792E+02 0.  0.
         12    1    1    2    0    0  0.58438810705E+01 -0.17698067976E+02  0.18205286593E+01  0.18726635594E+02  0.00000000000E+00 0. -1.
         11    1    3    3    0    0  0.23099701523E+02  0.14426203379E+02 -0.12951528253E+02  0.30157149049E+02  0.51100000000E-03 0. -1.
        -11    1    3    3    0    0  0.88694897098E+00 -0.18292208397E+01  0.11858941061E+02  0.12031924647E+02  0.51100000000E-03 0.  1.
        -12    1    3    3    0    0 -0.29830531565E+02  0.51010854371E+01 -0.72794146699E+00  0.30272290711E+02  0.00000000000E+00 0.  1.
</event>
<event>
 7    1  0.2873608E-013  0.7246121E+02  0.7816164E-02  0.1226709E+00
        -11   -1    0    0    0    0  0.00000000000E+00  0.00000000000E+00  0.45593999997E+02  0.45594000000E+02  0.51100000000E-03 0.  1.
         11   -1    0    0    0    0 -0.00000000000E+00 -0.00000000000E+00 -0.45593999997E+02  0.45594000000E+02  0.51100000000E-03 0. -1.
    9900012    2    1    2    0    0 -0.11678344729E+02  0.14445048083E+02  0.23768517490E+01  0.72461212396E+02  0.69999533769E+02 0.  0.
         12    1    1    2    0    0  0.11678344729E+02 -0.14445048083E+02 -0.23768517490E+01  0.18726787604E+02  0.00000000000E+00 0. -1.
         11    1    3    3    0    0 -0.60228818611E+01 -0.83655948414E+01  0.15088539924E+02  0.18273541536E+02  0.51100000000E-03 0. -1.
        -11    1    3    3    0    0  0.41011882061E+01  0.27592520213E+01  0.16621474181E+02  0.17340894459E+02  0.51100000000E-03 0.  1.
         12    1    3    3    0    0 -0.97566510741E+01  0.20051390903E+02 -0.29333162356E+02  0.36846776401E+02  0.00000000000E+00 0. -1.
</event>
<event>
 7    1  0.2873608E-013  0.7246168E+02  0.7816164E-02  0.1226708E+00
        -11   -1    0    0    0    0  0.00000000000E+00  0.00000000000E+00  0.45593999997E+02  0.45594000000E+02  0.51100000000E-03 0.  1.
         11   -1    0    0    0    0 -0.00000000000E+00 -0.00000000000E+00 -0.45593999997E+02  0.45594000000E+02  0.51100000000E-03 0. -1.
    9900012    2    1    2    0    0  0.89405138637E+00  0.17337690100E+02  0.70199969699E+01  0.72461676726E+02  0.70000138647E+02 0.  0.
         12    1    1    2    0    0 -0.89405138637E+00 -0.17337690100E+02 -0.70199969699E+01  0.18726323274E+02  0.00000000000E+00 0. -1.
         11    1    3    3    0    0  0.33317302517E+01  0.59502837156E+01  0.11918209530E+02  0.13731351770E+02  0.51100000000E-03 0. -1.
        -11    1    3    3    0    0  0.16947565153E+02  0.28120440855E+02 -0.43197761605E+01  0.33115549593E+02  0.51100000000E-03 0.  1.
         12    1    3    3    0    0 -0.19385244018E+02 -0.16733034470E+02 -0.57843639980E+00  0.25614775363E+02  0.00000000000E+00 0. -1.
</event>
<event>
 7    1  0.2873608E-013  0.7246161E+02  0.7816164E-02  0.1226708E+00
        -11   -1    0    0    0    0  0.00000000000E+00  0.00000000000E+00  0.45593999997E+02  0.45594000000E+02  0.51100000000E-03 0. -1.
         11   -1    0    0    0    0 -0.00000000000E+00 -0.00000000000E+00 -0.45593999997E+02  0.45594000000E+02  0.51100000000E-03 0.  1.
    9900012    2    1    2    0    0  0.17496592473E+02 -0.65325051225E+01 -0.13686417023E+01  0.72461613497E+02  0.70000056280E+02 0.  0.
         12    1    1    2    0    0 -0.17496592473E+02  0.65325051225E+01  0.13686417023E+01  0.18726386503E+02  0.00000000000E+00 0. -1.
         11    1    3    3    0    0  0.18546054569E+02 -0.30531988286E+02  0.34454308329E+01  0.35889127082E+02  0.51100000000E-03 0. -1.
        -11    1    3    3    0    0 -0.43226723051E+01 -0.52323493741E+01 -0.16775045777E+01  0.69912086008E+01  0.51100000000E-03 0.  1.
        -12    1    3    3    0    0  0.32732102090E+01  0.29231832538E+02 -0.31365679576E+01  0.29581277815E+02  0.00000000000E+00 0.  1.
</event>
<event>
 7    1  0.2873608E-013  0.7246156E+02  0.7816164E-02  0.1226708E+00
        -11   -1    0    0    0    0  0.00000000000E+00  0.00000000000E+00  0.45593999997E+02  0.45594000000E+02  0.51100000000E-03 0. -1.
         11   -1    0    0    0    0 -0.00000000000E+00 -0.00000000000E+00 -0.45593999997E+02  0.45594000000E+02  0.51100000000E-03 0.  1.
    9900012    2    1    2    0    0  0.42838058716E+01 -0.26843439983E+01 -0.18031161514E+02  0.72461561978E+02  0.69999989166E+02 0.  0.
         12    1    1    2    0    0 -0.42838058716E+01  0.26843439983E+01  0.18031161514E+02  0.18726438022E+02  0.00000000000E+00 0. -1.
         11    1    3    3    0    0  0.27889091685E+02  0.12540887715E+02  0.64492997305E+01  0.31251700225E+02  0.51100000000E-03 0. -1.
        -11    1    3    3    0    0  0.27145992800E+01 -0.26189075344E+01 -0.14781449135E+01  0.40512514821E+01  0.51100000000E-03 0.  1.
        -12    1    3    3    0    0 -0.26319885094E+02 -0.12606324179E+02 -0.23002316331E+02  0.37158610271E+02  0.00000000000E+00 0.  1.
</event>
<event>
 7    1  0.2873608E-013  0.7246153E+02  0.7816164E-02  0.1226708E+00
        -11   -1    0    0    0    0  0.00000000000E+00  0.00000000000E+00  0.45593999997E+02  0.45594000000E+02  0.51100000000E-03 0. -1.
         11   -1    0    0    0    0 -0.00000000000E+00 -0.00000000000E+00 -0.45593999997E+02  0.45594000000E+02  0.51100000000E-03 0.  1.
    9900012    2    1    2    0    0 -0.71252035169E+01 -0.99659987030E+01  0.14163015927E+02  0.72461530086E+02  0.69999947621E+02 0.  0.
         12    1    1    2    0    0  0.71252035169E+01  0.99659987030E+01 -0.14163015927E+02  0.18726469914E+02  0.00000000000E+00 0. -1.
         11    1    3    3    0    0  0.68846406871E+01 -0.18715243593E+02 -0.12242144070E+02  0.23399331440E+02  0.51100000000E-03 0. -1.
        -11    1    3    3    0    0 -0.66252382752E+00  0.25650394938E+01 -0.97105979296E+01  0.10065489449E+02  0.51100000000E-03 0.  1.
         12    1    3    3    0    0 -0.13347320376E+02  0.61842053966E+01  0.36115757926E+02  0.38996709197E+02  0.00000000000E+00 0. -1.
</event>
<event>
 7    1  0.2873608E-013  0.7246159E+02  0.7816164E-02  0.1226708E+00
        -11   -1    0    0    0    0  0.00000000000E+00  0.00000000000E+00  0.45593999997E+02  0.45594000000E+02  0.51100000000E-03 0. -1.
         11   -1    0    0    0    0 -0.00000000000E+00 -0.00000000000E+00 -0.45593999997E+02  0.45594000000E+02  0.51100000000E-03 0.  1.
    9900012    2    1    2    0    0 -0.16336453162E+02  0.57335159622E+01 -0.71362183675E+01  0.72461587642E+02  0.70000022599E+02 0.  0.
         12    1    1    2    0    0  0.16336453162E+02 -0.57335159622E+01  0.71362183675E+01  0.18726412358E+02  0.00000000000E+00 0. -1.
         11    1    3    3    0    0 -0.37424827841E+01 -0.14875605555E+02  0.23194028837E+02  0.27807423325E+02  0.51100000000E-03 0. -1.
        -11    1    3    3    0    0 -0.13914004628E+02  0.80272359437E+01 -0.58451101985E+01  0.17093898186E+02  0.51100000000E-03 0.  1.
        -12    1    3    3    0    0  0.13200342499E+01  0.12581885573E+02 -0.24485137006E+02  0.27560266131E+02  0.00000000000E+00 0.  1.
</event>
<event>
 7    1  0.2873608E-013  0.7246153E+02  0.7816164E-02  0.1226708E+00
        -11   -1    0    0    0    0  0.00000000000E+00  0.00000000000E+00  0.45593999997E+02  0.45594000000E+02  0.51100000000E-03 0. -1.
         11   -1    0    0    0    0 -0.00000000000E+00 -0.00000000000E+00 -0.45593999997E+02  0.45594000000E+02  0.51100000000E-03 0.  1.
    9900012    2    1    2    0    0 -0.14469054492E+02 -0.15782608189E+01 -0.11782874917E+02  0.72461532463E+02  0.69999950718E+02 0.  0.
         12    1    1    2    0    0  0.14469054492E+02  0.15782608189E+01  0.11782874917E+02  0.18726467537E+02  0.00000000000E+00 0. -1.
         11    1    3    3    0    0  0.88127442785E+01  0.13243760397E+02 -0.97402586070E+01  0.18652996788E+02  0.51100000000E-03 0. -1.
        -11    1    3    3    0    0 -0.18048525484E+01 -0.66053830071E+01  0.20496096052E+02  0.21609686047E+02  0.51100000000E-03 0.  1.
        -12    1    3    3    0    0 -0.21476946222E+02 -0.82166382085E+01 -0.22538712362E+02  0.32198849629E+02  0.00000000000E+00 0.  1.
</event>
<event>
 7    1  0.2873608E-013  0.7246160E+02  0.7816164E-02  0.1226708E+00
        -11   -1    0    0    0    0  0.00000000000E+00  0.00000000000E+00  0.45593999997E+02  0.45594000000E+02  0.51100000000E-03 0. -1.
         11   -1    0    0    0    0 -0.00000000000E+00 -0.00000000000E+00 -0.45593999997E+02  0.45594000000E+02  0.51100000000E-03 0.  1.
    9900012    2    1    2    0    0  0.81711853369E+01  0.11909654379E+02 -0.11919311978E+02  0.72461597910E+02  0.70000035974E+02 0.  0.
         12    1    1    2    0    0 -0.81711853369E+01 -0.11909654379E+02  0.11919311978E+02  0.18726402090E+02  0.00000000000E+00 0. -1.
         11    1    3    3    0    0  0.23487386775E+02 -0.99398550155E+01 -0.74589601402E+00  0.25514984154E+02  0.51100000000E-03 0. -1.
        -11    1    3    3    0    0  0.83642182278E+01 -0.63455695317E+00  0.57478095515E+01  0.10168585152E+02  0.51100000000E-03 0.  1.
        -12    1    3    3    0    0 -0.23680419666E+02  0.22484066347E+02 -0.16921225515E+02  0.36778028604E+02  0.00000000000E+00 0.  1.
</event>
<event>
 7    1  0.2873608E-013  0.7246151E+02  0.7816164E-02  0.1226708E+00
        -11   -1    0    0    0    0  0.00000000000E+00  0.00000000000E+00  0.45593999997E+02  0.45594000000E+02  0.51100000000E-03 0. -1.
         11   -1    0    0    0    0 -0.00000000000E+00 -0.00000000000E+00 -0.45593999997E+02  0.45594000000E+02  0.51100000000E-03 0.  1.
    9900012    2    1    2    0    0 -0.17729500395E+02  0.55529457514E+01  0.23475458021E+01  0.72461511753E+02  0.69999923739E+02 0.  0.
         12    1    1    2    0    0  0.17729500395E+02 -0.55529457514E+01 -0.23475458021E+01  0.18726488247E+02  0.00000000000E+00 0. -1.
         11    1    3    3    0    0 -0.98314401405E+01  0.30054119211E+01 -0.55343464669E+01  0.11675560249E+02  0.51100000000E-03 0. -1.
        -11    1    3    3    0    0 -0.13238715574E+02  0.19802544162E+02 -0.17553621821E+02  0.29589423527E+02  0.51100000000E-03 0.  1.
         12    1    3    3    0    0  0.53406553192E+01 -0.17255010332E+02  0.25435514090E+02  0.31196527977E+02  0.00000000000E+00 0. -1.
</event>
<event>
 7    1  0.2873608E-013  0.7246161E+02  0.7816164E-02  0.1226708E+00
        -11   -1    0    0    0    0  0.00000000000E+00  0.00000000000E+00  0.45593999997E+02  0.45594000000E+02  0.51100000000E-03 0. -1.
         11   -1    0    0    0    0 -0.00000000000E+00 -0.00000000000E+00 -0.45593999997E+02  0.45594000000E+02  0.51100000000E-03 0.  1.
    9900012    2    1    2    0    0  0.58173012504E+01  0.15876343918E+02 -0.80485084340E+01  0.72461607447E+02  0.70000048398E+02 0.  0.
         12    1    1    2    0    0 -0.58173012504E+01 -0.15876343918E+02  0.80485084340E+01  0.18726392553E+02  0.00000000000E+00 0. -1.
         11    1    3    3    0    0  0.11629351578E+02 -0.94081261059E+01 -0.98940594219E+01  0.17934521656E+02  0.51100000000E-03 0. -1.
        -11    1    3    3    0    0  0.14054151615E+02  0.32152252891E+01  0.16080830668E+02  0.21597452778E+02  0.51100000000E-03 0.  1.
        -12    1    3    3    0    0 -0.19866201942E+02  0.22069244735E+02 -0.14235279680E+02  0.32929633012E+02  0.00000000000E+00 0.  1.
</event>
<event>
 7    1  0.2873608E-013  0.7246163E+02  0.7816164E-02  0.1226708E+00
        -11   -1    0    0    0    0  0.00000000000E+00  0.00000000000E+00  0.45593999997E+02  0.45594000000E+02  0.51100000000E-03 0.  1.
         11   -1    0    0    0    0 -0.00000000000E+00 -0.00000000000E+00 -0.45593999997E+02  0.45594000000E+02  0.51100000000E-03 0. -1.
    9900012    2    1    2    0    0 -0.11749624532E+02  0.11356757170E+02  0.91458857113E+01  0.72461632613E+02  0.70000081181E+02 0.  0.
         12    1    1    2    0    0  0.11749624532E+02 -0.11356757170E+02 -0.91458857113E+01  0.18726367387E+02  0.00000000000E+00 0. -1.
         11    1    3    3    0    0 -0.72555694215E+01  0.37116574089E+00 -0.55422082733E+01  0.91376760965E+01  0.51100000000E-03 0. -1.
        -11    1    3    3    0    0 -0.74628960989E+01  0.61798135643E+01  0.38062613827E+02  0.39276551344E+02  0.51100000000E-03 0.  1.
         12    1    3    3    0    0  0.29688409880E+01  0.48057778650E+01 -0.23374519842E+02  0.24047405173E+02  0.00000000000E+00 0. -1.
</event>
<event>
 7    1  0.2873608E-013  0.7246147E+02  0.7816164E-02  0.1226708E+00
        -11   -1    0    0    0    0  0.00000000000E+00  0.00000000000E+00  0.45593999997E+02  0.45594000000E+02  0.51100000000E-03 0.  1.
         11   -1    0    0    0    0 -0.00000000000E+00 -0.00000000000E+00 -0.45593999997E+02  0.45594000000E+02  0.51100000000E-03 0. -1.
    9900012    2    1    2    0    0  0.13406743747E+02 -0.55125110483E+01  0.11855563230E+02  0.72461469743E+02  0.69999869013E+02 0.  0.
         12    1    1    2    0    0 -0.13406743747E+02  0.55125110483E+01 -0.11855563230E+02  0.18726530257E+02  0.00000000000E+00 0. -1.
         11    1    3    3    0    0 -0.22711745877E+01  0.12925937070E+01 -0.75130835782E+01  0.79545872057E+01  0.51100000000E-03 0. -1.
        -11    1    3    3    0    0  0.27571546230E+02 -0.35021773706E+01 -0.12393002415E+02  0.30430936840E+02  0.51100000000E-03 0.  1.
         12    1    3    3    0    0 -0.11893627895E+02 -0.33029273848E+01  0.31761649223E+02  0.34075945698E+02  0.00000000000E+00 0. -1.
</event>
<event>
 7    1  0.2873608E-013  0.7246144E+02  0.7816164E-02  0.1226708E+00
        -11   -1    0    0    0    0  0.00000000000E+00  0.00000000000E+00  0.45593999997E+02  0.45594000000E+02  0.51100000000E-03 0.  1.
         11   -1    0    0    0    0 -0.00000000000E+00 -0.00000000000E+00 -0.45593999997E+02  0.45594000000E+02  0.51100000000E-03 0. -1.
    9900012    2    1    2    0    0  0.54215376726E+01  0.16356482800E+02 -0.73318902512E+01  0.72461435580E+02  0.69999824509E+02 0.  0.
         12    1    1    2    0    0 -0.54215376726E+01 -0.16356482800E+02  0.73318902512E+01  0.18726564420E+02  0.00000000000E+00 0. -1.
         11    1    3    3    0    0  0.85617195049E+01  0.20348970549E+02 -0.63924133631E+01  0.22983615733E+02  0.51100000000E-03 0. -1.
        -11    1    3    3    0    0  0.20416704075E+02 -0.67924819410E+01  0.95480692722E+01  0.23540289787E+02  0.51100000000E-03 0.  1.
        -12    1    3    3    0    0 -0.23556885907E+02  0.27999941917E+01 -0.10487546160E+02  0.25937530059E+02  0.00000000000E+00 0.  1.
</event>
<event>
 7    1  0.2873608E-013  0.7246150E+02  0.7816164E-02  0.1226708E+00
        -11   -1    0    0    0    0  0.00000000000E+00  0.00000000000E+00  0.45593999997E+02  0.45594000000E+02  0.51100000000E-03 0. -1.
         11   -1    0    0    0    0 -0.00000000000E+00 -0.00000000000E+00 -0.45593999997E+02  0.45594000000E+02  0.51100000000E-03 0.  1.
    9900012    2    1    2    0    0 -0.68448847876E+01  0.10488629212E+02 -0.13921855308E+02  0.72461498840E+02  0.69999906917E+02 0.  0.
         12    1    1    2    0    0  0.68448847876E+01 -0.10488629212E+02  0.13921855308E+02  0.18726501160E+02  0.00000000000E+00 0. -1.
         11    1    3    3    0    0 -0.64458948898E+01 -0.12575867204E+01 -0.56306616783E+01  0.86507477414E+01  0.51100000000E-03 0. -1.
        -11    1    3    3    0    0 -0.20415582529E+02 -0.18129953586E+02 -0.39485318490E+01  0.27587717032E+02  0.51100000000E-03 0.  1.
         12    1    3    3    0    0  0.20016592631E+02  0.29876169518E+02 -0.43426617806E+01  0.36223034066E+02  0.00000000000E+00 0. -1.
</event>
<event>
 7    1  0.2873608E-013  0.7246162E+02  0.7816164E-02  0.1226708E+00
        -11   -1    0    0    0    0  0.00000000000E+00  0.00000000000E+00  0.45593999997E+02  0.45594000000E+02  0.51100000000E-03 0.  1.
         11   -1    0    0    0    0 -0.00000000000E+00 -0.00000000000E+00 -0.45593999997E+02  0.45594000000E+02  0.51100000000E-03 0. -1.
    9900012    2    1    2    0    0  0.18015787552E+02  0.50003872023E+01 -0.10511873759E+01  0.72461615720E+02  0.70000059176E+02 0.  0.
         12    1    1    2    0    0 -0.18015787552E+02 -0.50003872023E+01  0.10511873759E+01  0.18726384280E+02  0.00000000000E+00 0. -1.
         11    1    3    3    0    0 -0.12944035157E+02 -0.84770674185E+01  0.90916674051E+01  0.17946228981E+02  0.51100000000E-03 0. -1.
        -11    1    3    3    0    0 -0.37012446311E+01  0.11362402560E+02 -0.15294914939E+02  0.19409735367E+02  0.51100000000E-03 0.  1.
        -12    1    3    3    0    0  0.34661067340E+02  0.21150520605E+01  0.51520601583E+01  0.35105651372E+02  0.00000000000E+00 0.  1.
</event>
<event>
 7    1  0.2873608E-013  0.7246183E+02  0.7816164E-02  0.1226707E+00
        -11   -1    0    0    0    0  0.00000000000E+00  0.00000000000E+00  0.45593999997E+02  0.45594000000E+02  0.51100000000E-03 0.  1.
         11   -1    0    0    0    0 -0.00000000000E+00 -0.00000000000E+00 -0.45593999997E+02  0.45594000000E+02  0.51100000000E-03 0. -1.
    9900012    2    1    2    0    0  0.37156622738E+01  0.11821729878E+02  0.14039584758E+02  0.72461831582E+02  0.70000340375E+02 0.  0.
         12    1    1    2    0    0 -0.37156622738E+01 -0.11821729878E+02 -0.14039584758E+02  0.18726168418E+02  0.00000000000E+00 0. -1.
         11    1    3    3    0    0 -0.16398872848E+02  0.19419035505E+02  0.14701018393E+02  0.29362253195E+02  0.51100000000E-03 0. -1.
        -11    1    3    3    0    0  0.14142293693E+02  0.39540118017E-01  0.17507464361E+02  0.22505940169E+02  0.51100000000E-03 0.  1.
         12    1    3    3    0    0  0.59722414295E+01 -0.76368457448E+01 -0.18168897996E+02  0.20593638217E+02  0.00000000000E+00 0. -1.
</event>
<event>
 7    1  0.2873608E-013  0.7246135E+02  0.7816164E-02  0.1226709E+00
        -11   -1    0    0    0    0  0.00000000000E+00  0.00000000000E+00  0.45593999997E+02  0.45594000000E+02  0.51100000000E-03 0. -1.
         11   -1    0    0    0    0 -0.00000000000E+00 -0.00000000000E+00 -0.45593999997E+02  0.45594000000E+02  0.51100000000E-03 0.  1.
    9900012    2    1    2    0    0  0.93669328143E+01  0.13218141240E+02 -0.93930125770E+01  0.72461351248E+02  0.69999714651E+02 0.  0.
         12    1    1    2    0    0 -0.93669328143E+01 -0.13218141240E+02  0.93930125770E+01  0.18726648752E+02  0.00000000000E+00 0. -1.
         11    1    3    3    0    0 -0.28032121421E+02  0.11400852209E+02 -0.17472519895E+01  0.30312244263E+02  0.51100000000E-03 0. -1.
        -11    1    3    3    0    0  0.15728379094E+02 -0.49695067525E+01  0.34856432521E+01  0.16859051440E+02  0.51100000000E-03 0.  1.
        -12    1    3    3    0    0  0.21670675141E+02  0.67867957837E+01 -0.11131403840E+02  0.25290055546E+02  0.00000000000E+00 0.  1.
</event>
<event>
 7    1  0.2873608E-013  0.7246162E+02  0.7816164E-02  0.1226708E+00
        -11   -1    0    0    0    0  0.00000000000E+00  0.00000000000E+00  0.45593999997E+02  0.45594000000E+02  0.51100000000E-03 0. -1.
         11   -1    0    0    0    0 -0.00000000000E+00 -0.00000000000E+00 -0.45593999997E+02  0.45594000000E+02  0.51100000000E-03 0.  1.
    9900012    2    1    2    0    0 -0.38100414237E+01 -0.12385594981E+02 -0.13518802415E+02  0.72461617609E+02  0.70000061637E+02 0.  0.
         12    1    1    2    0    0  0.38100414237E+01  0.12385594981E+02  0.13518802415E+02  0.18726382391E+02  0.00000000000E+00 0. -1.
         11    1    3    3    0    0  0.24952484410E+02 -0.10410760859E+02 -0.60861797742E+01  0.27713751178E+02  0.51100000000E-03 0. -1.
        -11    1    3    3    0    0  0.11441609843E+01 -0.93492787453E+01  0.59745223904E+01  0.11154059148E+02  0.51100000000E-03 0.  1.
        -12    1    3    3    0    0 -0.29906686818E+02  0.73744446224E+01 -0.13407145031E+02  0.33593807283E+02  0.00000000000E+00 0.  1.
</event>
<event>
 7    1  0.2873608E-013  0.7246151E+02  0.7816164E-02  0.1226708E+00
        -11   -1    0    0    0    0  0.00000000000E+00  0.00000000000E+00  0.45593999997E+02  0.45594000000E+02  0.51100000000E-03 0. -1.
         11   -1    0    0    0    0 -0.00000000000E+00 -0.00000000000E+00 -0.45593999997E+02  0.45594000000E+02  0.51100000000E-03 0.  1.
    9900012    2    1    2    0    0 -0.18656396554E+02  0.15690760766E+01  0.39786831612E+00  0.72461509904E+02  0.69999921331E+02 0.  0.
         12    1    1    2    0    0  0.18656396554E+02 -0.15690760766E+01 -0.39786831612E+00  0.18726490096E+02  0.00000000000E+00 0. -1.
         11    1    3    3    0    0  0.18252003809E+01 -0.18805223098E+02 -0.12709726563E+02  0.22770703146E+02  0.51100000000E-03 0.  1.
        -11    1    3    3    0    0  0.24273126564E+01 -0.31450672725E+01  0.16230860997E+02  0.16710001312E+02  0.51100000000E-03 0. -1.
         12    1    3    3    0    0 -0.22908909591E+02  0.23519366447E+02 -0.31232661179E+01  0.32980805447E+02  0.00000000000E+00 0. -1.
</event>
<event>
 7    1  0.2873608E-013  0.7246156E+02  0.7816164E-02  0.1226708E+00
        -11   -1    0    0    0    0  0.00000000000E+00  0.00000000000E+00  0.45593999997E+02  0.45594000000E+02  0.51100000000E-03 0.  1.
         11   -1    0    0    0    0 -0.00000000000E+00 -0.00000000000E+00 -0.45593999997E+02  0.45594000000E+02  0.51100000000E-03 0. -1.
    9900012    2    1    2    0    0 -0.11228067730E+02  0.10932309090E+02 -0.10251562366E+02  0.72461563662E+02  0.69999991360E+02 0.  0.
         12    1    1    2    0    0  0.11228067730E+02 -0.10932309090E+02  0.10251562366E+02  0.18726436338E+02  0.00000000000E+00 0. -1.
         11    1    3    3    0    0 -0.10016515580E+02  0.92661807157E+00 -0.35044754281E+02  0.36459895890E+02  0.51100000000E-03 0. -1.
        -11    1    3    3    0    0 -0.37226363129E+01  0.66384094556E+01 -0.27856973919E+01  0.81047277215E+01  0.51100000000E-03 0.  1.
        -12    1    3    3    0    0  0.25110841635E+01  0.33672815628E+01  0.27578889307E+02  0.27896940051E+02  0.00000000000E+00 0.  1.
</event>
<event>
 7    1  0.2873608E-013  0.7246158E+02  0.7816164E-02  0.1226708E+00
        -11   -1    0    0    0    0  0.00000000000E+00  0.00000000000E+00  0.45593999997E+02  0.45594000000E+02  0.51100000000E-03 0.  1.
         11   -1    0    0    0    0 -0.00000000000E+00 -0.00000000000E+00 -0.45593999997E+02  0.45594000000E+02  0.51100000000E-03 0. -1.
    9900012    2    1    2    0    0 -0.10891524246E+02  0.13399312995E+02  0.72465120962E+01  0.72461579447E+02  0.70000011924E+02 0.  0.
         12    1    1    2    0    0  0.10891524246E+02 -0.13399312995E+02 -0.72465120962E+01  0.18726420553E+02  0.00000000000E+00 0. -1.
         11    1    3    3    0    0 -0.15489844184E+02  0.17038504827E+01 -0.16080684272E+02  0.22392560957E+02  0.51100000000E-03 0. -1.
        -11    1    3    3    0    0 -0.15186186451E+02 -0.12238761200E+01  0.21524985173E+02  0.26371255538E+02  0.51100000000E-03 0.  1.
         12    1    3    3    0    0  0.19784506389E+02  0.12919338633E+02  0.18022111948E+01  0.23697762952E+02  0.00000000000E+00 0. -1.
</event>
<event>
 7    1  0.2873608E-013  0.7246155E+02  0.7816164E-02  0.1226708E+00
        -11   -1    0    0    0    0  0.00000000000E+00  0.00000000000E+00  0.45593999997E+02  0.45594000000E+02  0.51100000000E-03 0.  1.
         11   -1    0    0    0    0 -0.00000000000E+00 -0.00000000000E+00 -0.45593999997E+02  0.45594000000E+02  0.51100000000E-03 0. -1.
    9900012    2    1    2    0    0  0.80124266534E+01 -0.10827756409E+02  0.13009246687E+02  0.72461553751E+02  0.69999978450E+02 0.  0.
         12    1    1    2    0    0 -0.80124266534E+01  0.10827756409E+02 -0.13009246687E+02  0.18726446249E+02  0.00000000000E+00 0. -1.
         11    1    3    3    0    0 -0.23554334862E+01  0.31280007063E+01 -0.49769375178E+01  0.63326426272E+01  0.51100000000E-03 0. -1.
        -11    1    3    3    0    0  0.43700936282E+01 -0.21192198792E+02  0.38162914888E+02  0.43870435158E+02  0.51100000000E-03 0.  1.
         12    1    3    3    0    0  0.59977665114E+01  0.72364416771E+01 -0.20176730683E+02  0.22258475966E+02  0.00000000000E+00 0. -1.
</event>
<event>
 7    1  0.2873608E-013  0.7246157E+02  0.7816164E-02  0.1226708E+00
        -11   -1    0    0    0    0  0.00000000000E+00  0.00000000000E+00  0.45593999997E+02  0.45594000000E+02  0.51100000000E-03 0.  1.
         11   -1    0    0    0    0 -0.00000000000E+00 -0.00000000000E+00 -0.45593999997E+02  0.45594000000E+02  0.51100000000E-03 0. -1.
    9900012    2    1    2    0    0 -0.10106322740E+02 -0.11342248285E+02  0.10949641644E+02  0.72461574617E+02  0.70000005631E+02 0.  0.
         12    1    1    2    0    0  0.10106322740E+02  0.11342248285E+02 -0.10949641644E+02  0.18726425383E+02  0.00000000000E+00 0. -1.
         11    1    3    3    0    0 -0.45103895534E+01 -0.18469454383E+02 -0.24667881362E+02  0.31144320996E+02  0.51100000000E-03 0. -1.
        -11    1    3    3    0    0  0.27561715976E+01 -0.30323386935E+01  0.90467554550E+00  0.41964268052E+01  0.51100000000E-03 0.  1.
        -12    1    3    3    0    0 -0.83521047845E+01  0.10159544791E+02  0.34712847460E+02  0.37120826816E+02  0.00000000000E+00 0.  1.
</event>
<event>
 7    1  0.2873608E-013  0.7246156E+02  0.7816164E-02  0.1226708E+00
        -11   -1    0    0    0    0  0.00000000000E+00  0.00000000000E+00  0.45593999997E+02  0.45594000000E+02  0.51100000000E-03 0.  1.
         11   -1    0    0    0    0 -0.00000000000E+00 -0.00000000000E+00 -0.45593999997E+02  0.45594000000E+02  0.51100000000E-03 0. -1.
    9900012    2    1    2    0    0 -0.97924960930E+01  0.45815732765E+01  0.15290377955E+02  0.72461562767E+02  0.69999990194E+02 0.  0.
         12    1    1    2    0    0  0.97924960930E+01 -0.45815732765E+01 -0.15290377955E+02  0.18726437233E+02  0.00000000000E+00 0. -1.
         11    1    3    3    0    0  0.19304116249E+02 -0.69780540133E+01  0.20865823758E+02  0.29269860665E+02  0.51100000000E-03 0. -1.
        -11    1    3    3    0    0  0.61711718869E+00 -0.57380517454E+01 -0.66347026427E+01  0.87934834323E+01  0.51100000000E-03 0.  1.
         12    1    3    3    0    0 -0.29713729530E+02  0.17297679035E+02  0.10592568396E+01  0.34398218670E+02  0.00000000000E+00 0. -1.
</event>
<event>
 7    1  0.2873608E-013  0.7246160E+02  0.7816164E-02  0.1226708E+00
        -11   -1    0    0    0    0  0.00000000000E+00  0.00000000000E+00  0.45593999997E+02  0.45594000000E+02  0.51100000000E-03 0.  1.
         11   -1    0    0    0    0 -0.00000000000E+00 -0.00000000000E+00 -0.45593999997E+02  0.45594000000E+02  0.51100000000E-03 0. -1.
    9900012    2    1    2    0    0  0.11063068780E+02  0.14271066186E+02 -0.49621746359E+01  0.72461601573E+02  0.70000040746E+02 0.  0.
         12    1    1    2    0    0 -0.11063068780E+02 -0.14271066186E+02  0.49621746359E+01  0.18726398427E+02  0.00000000000E+00 0. -1.
         11    1    3    3    0    0  0.13275322747E+02  0.85592101503E+01 -0.15130299701E+01  0.15867688313E+02  0.51100000000E-03 0. -1.
        -11    1    3    3    0    0  0.60365305397E+01 -0.12455987960E+02  0.20928567405E+02  0.25091757031E+02  0.51100000000E-03 0.  1.
         12    1    3    3    0    0 -0.82487845069E+01  0.18167843996E+02 -0.24377712071E+02  0.31502156229E+02  0.00000000000E+00 0. -1.
</event>
<event>
 7    1  0.2873608E-013  0.7246165E+02  0.7816164E-02  0.1226708E+00
        -11   -1    0    0    0    0  0.00000000000E+00  0.00000000000E+00  0.45593999997E+02  0.45594000000E+02  0.51100000000E-03 0. -1.
         11   -1    0    0    0    0 -0.00000000000E+00 -0.00000000000E+00 -0.45593999997E+02  0.45594000000E+02  0.51100000000E-03 0.  1.
    9900012    2    1    2    0    0 -0.16690220785E+02 -0.10942425611E+01 -0.84211149471E+01  0.72461654558E+02  0.70000109770E+02 0.  0.
         12    1    1    2    0    0  0.16690220785E+02  0.10942425611E+01  0.84211149471E+01  0.18726345442E+02  0.00000000000E+00 0. -1.
         11    1    3    3    0    0 -0.30872969597E+02 -0.16338814226E+02  0.60403035368E+01  0.35448305589E+02  0.51100000000E-03 0. -1.
        -11    1    3    3    0    0 -0.65333824128E+01  0.10982254244E+02 -0.71009264847E+01  0.14619102272E+02  0.51100000000E-03 0.  1.
        -12    1    3    3    0    0  0.20716131224E+02  0.42623174205E+01 -0.73604919993E+01  0.22394246698E+02  0.00000000000E+00 0.  1.
</event>
<event>
 7    1  0.2873608E-013  0.7246169E+02  0.7816164E-02  0.1226708E+00
        -11   -1    0    0    0    0  0.00000000000E+00  0.00000000000E+00  0.45593999997E+02  0.45594000000E+02  0.51100000000E-03 0. -1.
         11   -1    0    0    0    0 -0.00000000000E+00 -0.00000000000E+00 -0.45593999997E+02  0.45594000000E+02  0.51100000000E-03 0.  1.
    9900012    2    1    2    0    0 -0.32840182872E+01  0.10150264266E+02 -0.15390323015E+02  0.72461690079E+02  0.70000156041E+02 0.  0.
         12    1    1    2    0    0  0.32840182872E+01 -0.10150264266E+02  0.15390323015E+02  0.18726309921E+02  0.00000000000E+00 0. -1.
         11    1    3    3    0    0  0.83582513202E+01  0.30091545647E+02 -0.18488911791E+02  0.36293268577E+02  0.51100000000E-03 0. -1.
        -11    1    3    3    0    0 -0.39626178115E+01  0.14858808594E+01 -0.93224519220E+01  0.10238080482E+02  0.51100000000E-03 0.  1.
        -12    1    3    3    0    0 -0.76796517958E+01 -0.21427162240E+02  0.12421040699E+02  0.25930341020E+02  0.00000000000E+00 0.  1.
</event>
<event>
 7    1  0.2873608E-013  0.7246159E+02  0.7816164E-02  0.1226708E+00
        -11   -1    0    0    0    0  0.00000000000E+00  0.00000000000E+00  0.45593999997E+02  0.45594000000E+02  0.51100000000E-03 0.  1.
         11   -1    0    0    0    0 -0.00000000000E+00 -0.00000000000E+00 -0.45593999997E+02  0.45594000000E+02  0.51100000000E-03 0. -1.
    9900012    2    1    2    0    0  0.96220219182E+01 -0.15040659972E+02  0.56456744942E+01  0.72461590876E+02  0.70000026812E+02 0.  0.
         12    1    1    2    0    0 -0.96220219182E+01  0.15040659972E+02 -0.56456744942E+01  0.18726409124E+02  0.00000000000E+00 0. -1.
         11    1    3    3    0    0 -0.12647844298E+02  0.41876667519E+01 -0.15942453895E+02  0.20776581881E+02  0.51100000000E-03 0. -1.
        -11    1    3    3    0    0 -0.79732728938E+01 -0.55205256396E+01 -0.32394768944E+01  0.10224651328E+02  0.51100000000E-03 0.  1.
        -12    1    3    3    0    0  0.30243139110E+02 -0.13707801084E+02  0.24827605283E+02  0.41460357667E+02  0.00000000000E+00 0.  1.
</event>
<event>
 7    1  0.2873608E-013  0.7246163E+02  0.7816164E-02  0.1226708E+00
        -11   -1    0    0    0    0  0.00000000000E+00  0.00000000000E+00  0.45593999997E+02  0.45594000000E+02  0.51100000000E-03 0.  1.
         11   -1    0    0    0    0 -0.00000000000E+00 -0.00000000000E+00 -0.45593999997E+02  0.45594000000E+02  0.51100000000E-03 0. -1.
    9900012    2    1    2    0    0 -0.12637874635E+02 -0.19152607274E+01  0.13685490840E+02  0.72461634670E+02  0.70000083861E+02 0.  0.
         12    1    1    2    0    0  0.12637874635E+02  0.19152607274E+01 -0.13685490840E+02  0.18726365330E+02  0.00000000000E+00 0. -1.
         11    1    3    3    0    0 -0.16047950253E+02  0.22816084510E+02  0.88275599201E+00  0.27908595057E+02  0.51100000000E-03 0. -1.
        -11    1    3    3    0    0  0.65779060149E+01  0.65094552909E+01 -0.25508665949E+01  0.95994154182E+01  0.51100000000E-03 0.  1.
        -12    1    3    3    0    0 -0.31678303967E+01 -0.31240800528E+02  0.15353601443E+02  0.34953624194E+02  0.00000000000E+00 0.  1.
</event>
<event>
 7    1  0.2873608E-013  0.7246158E+02  0.7816164E-02  0.1226708E+00
        -11   -1    0    0    0    0  0.00000000000E+00  0.00000000000E+00  0.45593999997E+02  0.45594000000E+02  0.51100000000E-03 0.  1.
         11   -1    0    0    0    0 -0.00000000000E+00 -0.00000000000E+00 -0.45593999997E+02  0.45594000000E+02  0.51100000000E-03 0. -1.
    9900012    2    1    2    0    0  0.15962556772E+02 -0.50560312346E+01  0.83852364347E+01  0.72461578542E+02  0.70000010745E+02 0.  0.
         12    1    1    2    0    0 -0.15962556772E+02  0.50560312346E+01 -0.83852364347E+01  0.18726421458E+02  0.00000000000E+00 0. -1.
         11    1    3    3    0    0 -0.31499347928E+01  0.10214640669E+02 -0.49432956151E+01  0.11776975206E+02  0.51100000000E-03 0. -1.
        -11    1    3    3    0    0  0.31789856559E+02 -0.56219715871E+01 -0.87596155833E+01  0.33450447082E+02  0.51100000000E-03 0.  1.
         12    1    3    3    0    0 -0.12677364994E+02 -0.96487003170E+01  0.22088147633E+02  0.27234156254E+02  0.00000000000E+00 0. -1.
</event>
<event>
 7    1  0.2873608E-013  0.7246154E+02  0.7816164E-02  0.1226708E+00
        -11   -1    0    0    0    0  0.00000000000E+00  0.00000000000E+00  0.45593999997E+02  0.45594000000E+02  0.51100000000E-03 0.  1.
         11   -1    0    0    0    0 -0.00000000000E+00 -0.00000000000E+00 -0.45593999997E+02  0.45594000000E+02  0.51100000000E-03 0. -1.
    9900012    2    1    2    0    0  0.13075601945E+02 -0.13400992548E+02 -0.34985645531E+00  0.72461538320E+02  0.69999958348E+02 0.  0.
         12    1    1    2    0    0 -0.13075601945E+02  0.13400992548E+02  0.34985645531E+00  0.18726461680E+02  0.00000000000E+00 0. -1.
         11    1    3    3    0    0 -0.21668004396E+02  0.30891018714E+01  0.55320178283E+01  0.22575388953E+02  0.51100000000E-03 0. -1.
        -11    1    3    3    0    0 -0.65741733246E-01  0.33228790137E+01  0.70525556894E+01  0.77964343727E+01  0.51100000000E-03 0.  1.
         12    1    3    3    0    0  0.34809348074E+02 -0.19812973434E+02 -0.12934429973E+02  0.42089714995E+02  0.00000000000E+00 0. -1.
</event>
<event>
 7    1  0.2873608E-013  0.7246158E+02  0.7816164E-02  0.1226708E+00
        -11   -1    0    0    0    0  0.00000000000E+00  0.00000000000E+00  0.45593999997E+02  0.45594000000E+02  0.51100000000E-03 0.  1.
         11   -1    0    0    0    0 -0.00000000000E+00 -0.00000000000E+00 -0.45593999997E+02  0.45594000000E+02  0.51100000000E-03 0. -1.
    9900012    2    1    2    0    0  0.17176888656E+02 -0.23194337420E+01 -0.70889698059E+01  0.72461580970E+02  0.70000013907E+02 0.  0.
         12    1    1    2    0    0 -0.17176888656E+02  0.23194337420E+01  0.70889698059E+01  0.18726419030E+02  0.00000000000E+00 0. -1.
         11    1    3    3    0    0  0.86003234064E+01 -0.13352263827E+02 -0.16186629016E+02  0.22677201573E+02  0.51100000000E-03 0. -1.
        -11    1    3    3    0    0  0.12764186418E+02 -0.19270358477E+01  0.25429781376E+02  0.28518620289E+02  0.51100000000E-03 0.  1.
         12    1    3    3    0    0 -0.41876211687E+01  0.12959865933E+02 -0.16332122165E+02  0.21265759109E+02  0.00000000000E+00 0. -1.
</event>
<event>
 7    1  0.2873608E-013  0.7246220E+02  0.7816164E-02  0.1226706E+00
        -11   -1    0    0    0    0  0.00000000000E+00  0.00000000000E+00  0.45593999997E+02  0.45594000000E+02  0.51100000000E-03 0. -1.
         11   -1    0    0    0    0 -0.00000000000E+00 -0.00000000000E+00 -0.45593999997E+02  0.45594000000E+02  0.51100000000E-03 0.  1.
    9900012    2    1    2    0    0 -0.13404457327E+02 -0.51807108860E+01  0.12005685060E+02  0.72462196538E+02  0.70000815794E+02 0.  0.
         12    1    1    2    0    0  0.13404457327E+02  0.51807108860E+01 -0.12005685060E+02  0.18725803462E+02  0.00000000000E+00 0. -1.
         11    1    3    3    0    0  0.16486072178E+02 -0.70085494966E+01  0.43727970125E+01  0.18439948370E+02  0.51100000000E-03 0. -1.
        -11    1    3    3    0    0  0.49428766439E+01 -0.13990136056E+02  0.50694364345E+01  0.15679767932E+02  0.51100000000E-03 0.  1.
         12    1    3    3    0    0 -0.34833406150E+02  0.15817974666E+02  0.25634516126E+01  0.38342480237E+02  0.00000000000E+00 0. -1.
</event>
<event>
 7    1  0.2873608E-013  0.7246140E+02  0.7816164E-02  0.1226708E+00
        -11   -1    0    0    0    0  0.00000000000E+00  0.00000000000E+00  0.45593999997E+02  0.45594000000E+02  0.51100000000E-03 0.  1.
         11   -1    0    0    0    0 -0.00000000000E+00 -0.00000000000E+00 -0.45593999997E+02  0.45594000000E+02  0.51100000000E-03 0. -1.
    9900012    2    1    2    0    0 -0.11054754768E+01 -0.15809764942E+01  0.18626966220E+02  0.72461403051E+02  0.69999782134E+02 0.  0.
         12    1    1    2    0    0  0.11054754768E+01  0.15809764942E+01 -0.18626966220E+02  0.18726596949E+02  0.00000000000E+00 0. -1.
         11    1    3    3    0    0  0.23863745196E+01  0.84838305009E+01  0.92814766761E+01  0.12799061406E+02  0.51100000000E-03 0. -1.
        -11    1    3    3    0    0  0.22997159522E+02 -0.61440184563E+01  0.19754149649E+02  0.30932907032E+02  0.51100000000E-03 0.  1.
         12    1    3    3    0    0 -0.26489009518E+02 -0.39207885388E+01 -0.10408660104E+02  0.28729434613E+02  0.00000000000E+00 0. -1.
</event>
<event>
 7    1  0.2873608E-013  0.7246153E+02  0.7816164E-02  0.1226708E+00
        -11   -1    0    0    0    0  0.00000000000E+00  0.00000000000E+00  0.45593999997E+02  0.45594000000E+02  0.51100000000E-03 0.  1.
         11   -1    0    0    0    0 -0.00000000000E+00 -0.00000000000E+00 -0.45593999997E+02  0.45594000000E+02  0.51100000000E-03 0. -1.
    9900012    2    1    2    0    0  0.16397716245E+02 -0.81580757791E+01  0.39040289351E+01  0.72461528351E+02  0.69999945362E+02 0.  0.
         12    1    1    2    0    0 -0.16397716245E+02  0.81580757791E+01 -0.39040289351E+01  0.18726471649E+02  0.00000000000E+00 0. -1.
         11    1    3    3    0    0  0.78800012112E+01 -0.17849046688E+02 -0.14386590723E+02  0.24241635251E+02  0.51100000000E-03 0. -1.
        -11    1    3    3    0    0  0.11041372394E+02 -0.15342799764E+02  0.41320680043E+01  0.19349092878E+02  0.51100000000E-03 0.  1.
        -12    1    3    3    0    0 -0.25236573600E+01  0.25033770673E+02  0.14158551654E+02  0.28870800223E+02  0.00000000000E+00 0.  1.
</event>
<event>
 7    1  0.2873608E-013  0.7246158E+02  0.7816164E-02  0.1226708E+00
        -11   -1    0    0    0    0  0.00000000000E+00  0.00000000000E+00  0.45593999997E+02  0.45594000000E+02  0.51100000000E-03 0.  1.
         11   -1    0    0    0    0 -0.00000000000E+00 -0.00000000000E+00 -0.45593999997E+02  0.45594000000E+02  0.51100000000E-03 0. -1.
    9900012    2    1    2    0    0 -0.10646140103E+02 -0.56176529965E+01 -0.14345046703E+02  0.72461583120E+02  0.70000016707E+02 0.  0.
         12    1    1    2    0    0  0.10646140103E+02  0.56176529965E+01  0.14345046703E+02  0.18726416880E+02  0.00000000000E+00 0. -1.
         11    1    3    3    0    0 -0.30180291662E+02  0.44922919388E+01 -0.14706344096E+02  0.33871924194E+02  0.51100000000E-03 0. -1.
        -11    1    3    3    0    0 -0.59618221804E+01 -0.62569388072E+01 -0.76983158522E+01  0.11573965361E+02  0.51100000000E-03 0.  1.
        -12    1    3    3    0    0  0.25495973740E+02 -0.38530061281E+01  0.80596132455E+01  0.27015693565E+02  0.00000000000E+00 0.  1.
</event>
<event>
 7    1  0.2873608E-013  0.7246169E+02  0.7816164E-02  0.1226708E+00
        -11   -1    0    0    0    0  0.00000000000E+00  0.00000000000E+00  0.45593999997E+02  0.45594000000E+02  0.51100000000E-03 0. -1.
         11   -1    0    0    0    0 -0.00000000000E+00 -0.00000000000E+00 -0.45593999997E+02  0.45594000000E+02  0.51100000000E-03 0.  1.
    9900012    2    1    2    0    0 -0.13876215901E+02  0.12271566148E+02 -0.27448132346E+01  0.72461689548E+02  0.70000155350E+02 0.  0.
         12    1    1    2    0    0  0.13876215901E+02 -0.12271566148E+02  0.27448132346E+01  0.18726310452E+02  0.00000000000E+00 0. -1.
         11    1    3    3    0    0 -0.13245321344E+02 -0.10845302884E+02 -0.11739877501E+02  0.20757742077E+02  0.51100000000E-03 0. -1.
        -11    1    3    3    0    0 -0.38671130975E+01 -0.37045339898E+01 -0.14777495059E+02  0.15717903685E+02  0.51100000000E-03 0.  1.
         12    1    3    3    0    0  0.32362185403E+01  0.26821403021E+02  0.23772559325E+02  0.35986043786E+02  0.00000000000E+00 0. -1.
</event>
<event>
 7    1  0.2873608E-013  0.7246190E+02  0.7816164E-02  0.1226707E+00
        -11   -1    0    0    0    0  0.00000000000E+00  0.00000000000E+00  0.45593999997E+02  0.45594000000E+02  0.51100000000E-03 0.  1.
         11   -1    0    0    0    0 -0.00000000000E+00 -0.00000000000E+00 -0.45593999997E+02  0.45594000000E+02  0.51100000000E-03 0. -1.
    9900012    2    1    2    0    0  0.17113538618E+02 -0.68824211042E+00  0.75709943797E+01  0.72461899575E+02  0.70000428948E+02 0.  0.
         12    1    1    2    0    0 -0.17113538618E+02  0.68824211042E+00 -0.75709943797E+01  0.18726100425E+02  0.00000000000E+00 0. -1.
         11    1    3    3    0    0  0.97228774463E+01 -0.14383214757E+02 -0.10391477664E+02  0.20233487610E+02  0.51100000000E-03 0.  1.
        -11    1    3    3    0    0  0.42856654790E+01  0.20332771788E+01 -0.15735378601E+02  0.16434819277E+02  0.51100000000E-03 0. -1.
         12    1    3    3    0    0  0.31049956928E+01  0.11661695468E+02  0.33697850645E+02  0.35793592688E+02  0.00000000000E+00 0. -1.
</event>
<event>
 7    1  0.2873608E-013  0.7246150E+02  0.7816164E-02  0.1226708E+00
        -11   -1    0    0    0    0  0.00000000000E+00  0.00000000000E+00  0.45593999997E+02  0.45594000000E+02  0.51100000000E-03 0.  1.
         11   -1    0    0    0    0 -0.00000000000E+00 -0.00000000000E+00 -0.45593999997E+02  0.45594000000E+02  0.51100000000E-03 0. -1.
    9900012    2    1    2    0    0  0.10688167651E+02  0.14129278636E+02  0.60669769739E+01  0.72461504009E+02  0.69999913651E+02 0.  0.
         12    1    1    2    0    0 -0.10688167651E+02 -0.14129278636E+02 -0.60669769739E+01  0.18726495991E+02  0.00000000000E+00 0. -1.
         11    1    3    3    0    0  0.10057315154E+02 -0.11867545117E+02  0.11398031650E+02  0.19284795591E+02  0.51100000000E-03 0. -1.
        -11    1    3    3    0    0 -0.20698440184E+02  0.85600485407E+01  0.63071531805E+01  0.23269723646E+02  0.51100000000E-03 0.  1.
        -12    1    3    3    0    0  0.21329292681E+02  0.17436775212E+02 -0.11638207857E+02  0.29906984772E+02  0.00000000000E+00 0.  1.
</event>
<event>
 7    1  0.2873608E-013  0.7246159E+02  0.7816164E-02  0.1226708E+00
        -11   -1    0    0    0    0  0.00000000000E+00  0.00000000000E+00  0.45593999997E+02  0.45594000000E+02  0.51100000000E-03 0.  1.
         11   -1    0    0    0    0 -0.00000000000E+00 -0.00000000000E+00 -0.45593999997E+02  0.45594000000E+02  0.51100000000E-03 0. -1.
    9900012    2    1    2    0    0 -0.81725578396E+01 -0.57760040749E+01  0.15827994063E+02  0.72461592956E+02  0.70000029521E+02 0.  0.
         12    1    1    2    0    0  0.81725578396E+01  0.57760040749E+01 -0.15827994063E+02  0.18726407044E+02  0.00000000000E+00 0. -1.
         11    1    3    3    0    0 -0.19914117039E+01 -0.23414726787E+01 -0.22596330222E+00  0.30820893164E+01  0.51100000000E-03 0. -1.
        -11    1    3    3    0    0 -0.28360315824E+02  0.18437049523E+02 -0.10508415839E+01  0.33842821647E+02  0.51100000000E-03 0.  1.
         12    1    3    3    0    0  0.22179169688E+02 -0.21871580919E+02  0.17104798949E+02  0.35536681993E+02  0.00000000000E+00 0. -1.
</event>
<event>
 7    1  0.2873608E-013  0.7246164E+02  0.7816164E-02  0.1226708E+00
        -11   -1    0    0    0    0  0.00000000000E+00  0.00000000000E+00  0.45593999997E+02  0.45594000000E+02  0.51100000000E-03 0.  1.
         11   -1    0    0    0    0 -0.00000000000E+00 -0.00000000000E+00 -0.45593999997E+02  0.45594000000E+02  0.51100000000E-03 0. -1.
    9900012    2    1    2    0    0  0.36441816663E+01  0.16185425230E+02  0.86849502540E+01  0.72461643952E+02  0.70000095953E+02 0.  0.
         12    1    1    2    0    0 -0.36441816663E+01 -0.16185425230E+02 -0.86849502540E+01  0.18726356048E+02  0.00000000000E+00 0. -1.
         11    1    3    3    0    0  0.16769524856E+02  0.61785848018E+01  0.16850038149E+02  0.24562484808E+02  0.51100000000E-03 0. -1.
        -11    1    3    3    0    0  0.15190978929E+02  0.11146620124E+02 -0.38920597549E+01  0.19239571472E+02  0.51100000000E-03 0.  1.
        -12    1    3    3    0    0 -0.28316322119E+02 -0.11397796954E+01 -0.42730281404E+01  0.28659587673E+02  0.00000000000E+00 0.  1.
</event>
<event>
 7    1  0.2873608E-013  0.7246157E+02  0.7816164E-02  0.1226708E+00
        -11   -1    0    0    0    0  0.00000000000E+00  0.00000000000E+00  0.45593999997E+02  0.45594000000E+02  0.51100000000E-03 0. -1.
         11   -1    0    0    0    0 -0.00000000000E+00 -0.00000000000E+00 -0.45593999997E+02  0.45594000000E+02  0.51100000000E-03 0.  1.
    9900012    2    1    2    0    0 -0.99130527027E+01  0.61564701624E+01 -0.14646111124E+02  0.72461566549E+02  0.69999995121E+02 0.  0.
         12    1    1    2    0    0  0.99130527027E+01 -0.61564701624E+01  0.14646111124E+02  0.18726433451E+02  0.00000000000E+00 0. -1.
         11    1    3    3    0    0 -0.78858322177E+01 -0.89455602541E+01 -0.58188245894E+01  0.13269066203E+02  0.51100000000E-03 0. -1.
        -11    1    3    3    0    0  0.15029217364E+02 -0.16317514438E+02 -0.74982628684E+01  0.23417143257E+02  0.51100000000E-03 0.  1.
         12    1    3    3    0    0 -0.17056437850E+02  0.31419544854E+02 -0.13290236658E+01  0.35775357089E+02  0.00000000000E+00 0. -1.
</event>
<event>
 7    1  0.2873608E-013  0.7246161E+02  0.7816164E-02  0.1226708E+00
        -11   -1    0    0    0    0  0.00000000000E+00  0.00000000000E+00  0.45593999997E+02  0.45594000000E+02  0.51100000000E-03 0. -1.
         11   -1    0    0    0    0 -0.00000000000E+00 -0.00000000000E+00 -0.45593999997E+02  0.45594000000E+02  0.51100000000E-03 0.  1.
    9900012    2    1    2    0    0  0.55486625714E+01 -0.13483677312E+02 -0.11750769576E+02  0.72461606973E+02  0.70000047781E+02 0.  0.
         12    1    1    2    0    0 -0.55486625714E+01  0.13483677312E+02  0.11750769576E+02  0.18726393027E+02  0.00000000000E+00 0. -1.
         11    1    3    3    0    0 -0.10783530965E+02  0.16389539450E+02 -0.26597838319E+02  0.33050666361E+02  0.51100000000E-03 0. -1.
        -11    1    3    3    0    0  0.39564073156E+01 -0.35271961490E+00 -0.32940640342E+00  0.39857344133E+01  0.51100000000E-03 0.  1.
        -12    1    3    3    0    0  0.12375786221E+02 -0.29520497146E+02  0.15176475146E+02  0.35425206198E+02  0.00000000000E+00 0.  1.
</event>
<event>
 7    1  0.2873608E-013  0.7246134E+02  0.7816164E-02  0.1226709E+00
        -11   -1    0    0    0    0  0.00000000000E+00  0.00000000000E+00  0.45593999997E+02  0.45594000000E+02  0.51100000000E-03 0. -1.
         11   -1    0    0    0    0 -0.00000000000E+00 -0.00000000000E+00 -0.45593999997E+02  0.45594000000E+02  0.51100000000E-03 0.  1.
    9900012    2    1    2    0    0 -0.85483461038E+01 -0.13054656400E+02 -0.10353235874E+02  0.72461340718E+02  0.69999700933E+02 0.  0.
         12    1    1    2    0    0  0.85483461038E+01  0.13054656400E+02  0.10353235874E+02  0.18726659282E+02  0.00000000000E+00 0. -1.
         11    1    3    3    0    0 -0.11600152703E+02  0.12791601226E+02  0.46646790203E+01  0.17887085712E+02  0.51100000000E-03 0. -1.
        -11    1    3    3    0    0 -0.17869076911E+02 -0.87508896114E+01  0.55069786808E+01  0.20644824850E+02  0.51100000000E-03 0.  1.
         12    1    3    3    0    0  0.20920883510E+02 -0.17095368014E+02 -0.20524893575E+02  0.33929430155E+02  0.00000000000E+00 0. -1.
</event>
<event>
 7    1  0.2873608E-013  0.7246158E+02  0.7816164E-02  0.1226708E+00
        -11   -1    0    0    0    0  0.00000000000E+00  0.00000000000E+00  0.45593999997E+02  0.45594000000E+02  0.51100000000E-03 0. -1.
         11   -1    0    0    0    0 -0.00000000000E+00 -0.00000000000E+00 -0.45593999997E+02  0.45594000000E+02  0.51100000000E-03 0.  1.
    9900012    2    1    2    0    0  0.76947853509E+01 -0.15373783189E+02 -0.74240125087E+01  0.72461577681E+02  0.70000009623E+02 0.  0.
         12    1    1    2    0    0 -0.76947853509E+01  0.15373783189E+02  0.74240125087E+01  0.18726422319E+02  0.00000000000E+00 0. -1.
         11    1    3    3    0    0  0.15312399772E+01 -0.14031626535E+02 -0.22893162108E+02  0.26894759911E+02  0.51100000000E-03 0. -1.
        -11    1    3    3    0    0  0.16748268299E+02  0.16455949567E+01 -0.87497392885E+01  0.18967614812E+02  0.51100000000E-03 0.  1.
         12    1    3    3    0    0 -0.10584722925E+02 -0.29877516106E+01  0.24218888888E+02  0.26599202959E+02  0.00000000000E+00 0. -1.
</event>
<event>
 7    1  0.2873608E-013  0.7246163E+02  0.7816164E-02  0.1226708E+00
        -11   -1    0    0    0    0  0.00000000000E+00  0.00000000000E+00  0.45593999997E+02  0.45594000000E+02  0.51100000000E-03 0.  1.
         11   -1    0    0    0    0 -0.00000000000E+00 -0.00000000000E+00 -0.45593999997E+02  0.45594000000E+02  0.51100000000E-03 0. -1.
    9900012    2    1    2    0    0 -0.11067444527E+02 -0.23102866412E+01 -0.14928194627E+02  0.72461634962E+02  0.70000084242E+02 0.  0.
         12    1    1    2    0    0  0.11067444527E+02  0.23102866412E+01  0.14928194627E+02  0.18726365038E+02  0.00000000000E+00 0. -1.
         11    1    3    3    0    0 -0.90067078194E+00 -0.17220464300E+01  0.37921496161E+01  0.42611090970E+01  0.51100000000E-03 0. -1.
        -11    1    3    3    0    0 -0.92079188194E+01  0.15100925478E+02  0.19828311357E+02  0.26570390490E+02  0.51100000000E-03 0.  1.
         12    1    3    3    0    0 -0.95885492577E+00 -0.15689165689E+02 -0.38548655600E+02  0.41630135375E+02  0.00000000000E+00 0. -1.
</event>
<event>
 7    1  0.2873608E-013  0.7246156E+02  0.7816164E-02  0.1226708E+00
        -11   -1    0    0    0    0  0.00000000000E+00  0.00000000000E+00  0.45593999997E+02  0.45594000000E+02  0.51100000000E-03 0.  1.
         11   -1    0    0    0    0 -0.00000000000E+00 -0.00000000000E+00 -0.45593999997E+02  0.45594000000E+02  0.51100000000E-03 0. -1.
    9900012    2    1    2    0    0 -0.63160122370E+01 -0.14497523412E+02  0.10030429792E+02  0.72461555664E+02  0.69999980941E+02 0.  0.
         12    1    1    2    0    0  0.63160122370E+01  0.14497523412E+02 -0.10030429792E+02  0.18726444336E+02  0.00000000000E+00 0. -1.
         11    1    3    3    0    0 -0.26695542521E+02 -0.10306739344E+01  0.30030982520E+02  0.40194205933E+02  0.51100000000E-03 0.  1.
        -11    1    3    3    0    0  0.10817504492E+02 -0.57719508849E+01 -0.60059367516E+01  0.13653025195E+02  0.51100000000E-03 0. -1.
        -12    1    3    3    0    0  0.95620257915E+01 -0.76948985928E+01 -0.13994615977E+02  0.18614324536E+02  0.00000000000E+00 0.  1.
</event>
<event>
 7    1  0.2873608E-013  0.7246155E+02  0.7816164E-02  0.1226708E+00
        -11   -1    0    0    0    0  0.00000000000E+00  0.00000000000E+00  0.45593999997E+02  0.45594000000E+02  0.51100000000E-03 0. -1.
         11   -1    0    0    0    0 -0.00000000000E+00 -0.00000000000E+00 -0.45593999997E+02  0.45594000000E+02  0.51100000000E-03 0.  1.
    9900012    2    1    2    0    0  0.11155793951E+02  0.48306988033E+01 -0.14244036485E+02  0.72461549055E+02  0.69999972331E+02 0.  0.
         12    1    1    2    0    0 -0.11155793951E+02 -0.48306988033E+01  0.14244036485E+02  0.18726450945E+02  0.00000000000E+00 0. -1.
         11    1    3    3    0    0  0.18022380505E+01 -0.93796943783E+01 -0.30539459284E+01  0.10027627567E+02  0.51100000000E-03 0. -1.
        -11    1    3    3    0    0  0.19699160839E+02 -0.17479605456E+02  0.23763267908E+01  0.26443155522E+02  0.51100000000E-03 0.  1.
         12    1    3    3    0    0 -0.10345604938E+02  0.31689998638E+02 -0.13566417348E+02  0.35990765966E+02  0.00000000000E+00 0. -1.
</event>
<event>
 7    1  0.2873608E-013  0.7246159E+02  0.7816164E-02  0.1226708E+00
        -11   -1    0    0    0    0  0.00000000000E+00  0.00000000000E+00  0.45593999997E+02  0.45594000000E+02  0.51100000000E-03 0.  1.
         11   -1    0    0    0    0 -0.00000000000E+00 -0.00000000000E+00 -0.45593999997E+02  0.45594000000E+02  0.51100000000E-03 0. -1.
    9900012    2    1    2    0    0 -0.28301592694E+01 -0.25851068105E+00  0.18509507571E+02  0.72461588176E+02  0.70000023295E+02 0.  0.
         12    1    1    2    0    0  0.28301592694E+01  0.25851068105E+00 -0.18509507571E+02  0.18726411824E+02  0.00000000000E+00 0. -1.
         11    1    3    3    0    0  0.65596791800E+01 -0.98873830245E+01 -0.64167075421E+01  0.13489398428E+02  0.51100000000E-03 0. -1.
        -11    1    3    3    0    0 -0.67753926299E+01  0.55772309932E+01 -0.15740012000E+02  0.18021082899E+02  0.51100000000E-03 0.  1.
        -12    1    3    3    0    0 -0.26144458196E+01  0.40516413503E+01  0.40666227113E+02  0.40951106849E+02  0.00000000000E+00 0.  1.
</event>
<event>
 7    1  0.2873608E-013  0.7246154E+02  0.7816164E-02  0.1226708E+00
        -11   -1    0    0    0    0  0.00000000000E+00  0.00000000000E+00  0.45593999997E+02  0.45594000000E+02  0.51100000000E-03 0. -1.
         11   -1    0    0    0    0 -0.00000000000E+00 -0.00000000000E+00 -0.45593999997E+02  0.45594000000E+02  0.51100000000E-03 0.  1.
    9900012    2    1    2    0    0 -0.11489795885E+02 -0.59912981983E+01 -0.13519216785E+02  0.72461540482E+02  0.69999961164E+02 0.  0.
         12    1    1    2    0    0  0.11489795885E+02  0.59912981983E+01  0.13519216785E+02  0.18726459518E+02  0.00000000000E+00 0. -1.
         11    1    3    3    0    0 -0.15750728293E+02  0.66601404104E+00 -0.18117444545E+02  0.24016053247E+02  0.51100000000E-03 0. -1.
        -11    1    3    3    0    0 -0.20519544851E+00 -0.92037830927E+01 -0.20686967136E+02  0.22642931302E+02  0.51100000000E-03 0.  1.
         12    1    3    3    0    0  0.44661278567E+01  0.25464708534E+01  0.25285194895E+02  0.25802555934E+02  0.00000000000E+00 0. -1.
</event>
<event>
 7    1  0.2873608E-013  0.7246158E+02  0.7816164E-02  0.1226708E+00
        -11   -1    0    0    0    0  0.00000000000E+00  0.00000000000E+00  0.45593999997E+02  0.45594000000E+02  0.51100000000E-03 0. -1.
         11   -1    0    0    0    0 -0.00000000000E+00 -0.00000000000E+00 -0.45593999997E+02  0.45594000000E+02  0.51100000000E-03 0.  1.
    9900012    2    1    2    0    0 -0.77097154571E+01  0.17032393834E+02 -0.10662245492E+01  0.72461575169E+02  0.70000006351E+02 0.  0.
         12    1    1    2    0    0  0.77097154571E+01 -0.17032393834E+02  0.10662245492E+01  0.18726424831E+02  0.00000000000E+00 0. -1.
         11    1    3    3    0    0 -0.10396539875E+02  0.88344854778E+01  0.19245365771E+01  0.13778244312E+02  0.51100000000E-03 0. -1.
        -11    1    3    3    0    0  0.29827404271E+02 -0.49116893409E+00 -0.43833226089E+01  0.30151762964E+02  0.51100000000E-03 0.  1.
         12    1    3    3    0    0 -0.27140579853E+02  0.86890772904E+01  0.13925614826E+01  0.28531567893E+02  0.00000000000E+00 0. -1.
</event>
<event>
 7    1  0.2873608E-013  0.7246156E+02  0.7816164E-02  0.1226708E+00
        -11   -1    0    0    0    0  0.00000000000E+00  0.00000000000E+00  0.45593999997E+02  0.45594000000E+02  0.51100000000E-03 0.  1.
         11   -1    0    0    0    0 -0.00000000000E+00 -0.00000000000E+00 -0.45593999997E+02  0.45594000000E+02  0.51100000000E-03 0. -1.
    9900012    2    1    2    0    0 -0.15452861191E+02  0.99772951098E+01 -0.35131372444E+01  0.72461562272E+02  0.69999989549E+02 0.  0.
         12    1    1    2    0    0  0.15452861191E+02 -0.99772951098E+01  0.35131372444E+01  0.18726437728E+02  0.00000000000E+00 0. -1.
         11    1    3    3    0    0  0.86122733073E+01 -0.72154233116E+01  0.93819534321E+01  0.14637439515E+02  0.51100000000E-03 0. -1.
        -11    1    3    3    0    0 -0.29333343608E+02 -0.34398074217E+01 -0.19661678446E+02  0.35480401940E+02  0.51100000000E-03 0.  1.
         12    1    3    3    0    0  0.52682091093E+01  0.20632525843E+02  0.67665877691E+01  0.22343720816E+02  0.00000000000E+00 0. -1.
</event>
<event>
 7    1  0.2873608E-013  0.7246156E+02  0.7816164E-02  0.1226708E+00
        -11   -1    0    0    0    0  0.00000000000E+00  0.00000000000E+00  0.45593999997E+02  0.45594000000E+02  0.51100000000E-03 0. -1.
         11   -1    0    0    0    0 -0.00000000000E+00 -0.00000000000E+00 -0.45593999997E+02  0.45594000000E+02  0.51100000000E-03 0.  1.
    9900012    2    1    2    0    0  0.43565731838E+01  0.16108074559E+02 -0.84988149768E+01  0.72461557415E+02  0.69999983222E+02 0.  0.
         12    1    1    2    0    0 -0.43565731838E+01 -0.16108074559E+02  0.84988149768E+01  0.18726442585E+02  0.00000000000E+00 0. -1.
         11    1    3    3    0    0 -0.67967787168E+00  0.12393211629E+01 -0.83167179173E+01  0.84359751144E+01  0.51100000000E-03 0. -1.
        -11    1    3    3    0    0 -0.17459068088E+02  0.18652556009E+02 -0.21054334839E+02  0.33106221771E+02  0.51100000000E-03 0.  1.
         12    1    3    3    0    0  0.22495319144E+02 -0.37838026129E+01  0.20872237780E+02  0.30919360529E+02  0.00000000000E+00 0. -1.
</event>
<event>
 7    1  0.2873608E-013  0.7246156E+02  0.7816164E-02  0.1226708E+00
        -11   -1    0    0    0    0  0.00000000000E+00  0.00000000000E+00  0.45593999997E+02  0.45594000000E+02  0.51100000000E-03 0.  1.
         11   -1    0    0    0    0 -0.00000000000E+00 -0.00000000000E+00 -0.45593999997E+02  0.45594000000E+02  0.51100000000E-03 0. -1.
    9900012    2    1    2    0    0 -0.15522522311E+02  0.10133063288E+01  0.10426126022E+02  0.72461559002E+02  0.69999985290E+02 0.  0.
         12    1    1    2    0    0  0.15522522311E+02 -0.10133063288E+01 -0.10426126022E+02  0.18726440998E+02  0.00000000000E+00 0. -1.
         11    1    3    3    0    0  0.34121926387E+01  0.16874531401E+02 -0.10000125795E+02  0.19909680680E+02  0.51100000000E-03 0. -1.
        -11    1    3    3    0    0  0.12363595492E+02  0.14898983039E+00  0.99434616136E+01  0.15866729990E+02  0.51100000000E-03 0.  1.
        -12    1    3    3    0    0 -0.31298310442E+02 -0.16010214902E+02  0.10482790203E+02  0.36685148332E+02  0.00000000000E+00 0.  1.
</event>
<event>
 7    1  0.2873608E-013  0.7246158E+02  0.7816164E-02  0.1226708E+00
        -11   -1    0    0    0    0  0.00000000000E+00  0.00000000000E+00  0.45593999997E+02  0.45594000000E+02  0.51100000000E-03 0.  1.
         11   -1    0    0    0    0 -0.00000000000E+00 -0.00000000000E+00 -0.45593999997E+02  0.45594000000E+02  0.51100000000E-03 0. -1.
    9900012    2    1    2    0    0 -0.40086416804E+01  0.44891185126E+01  0.17732946032E+02  0.72461581012E+02  0.70000013962E+02 0.  0.
         12    1    1    2    0    0  0.40086416804E+01 -0.44891185126E+01 -0.17732946032E+02  0.18726418988E+02  0.00000000000E+00 0. -1.
         11    1    3    3    0    0  0.99648943738E+00 -0.31720951121E+00 -0.20026358191E+02  0.20053643951E+02  0.51100000000E-03 0. -1.
        -11    1    3    3    0    0 -0.25868782331E+01  0.66718594318E+01 -0.55097506961E+01  0.90312236305E+01  0.51100000000E-03 0.  1.
        -12    1    3    3    0    0 -0.24182528847E+01 -0.18655314080E+01  0.43269054919E+02  0.43376713430E+02  0.00000000000E+00 0.  1.
</event>
<event>
 7    1  0.2873608E-013  0.7246153E+02  0.7816164E-02  0.1226708E+00
        -11   -1    0    0    0    0  0.00000000000E+00  0.00000000000E+00  0.45593999997E+02  0.45594000000E+02  0.51100000000E-03 0.  1.
         11   -1    0    0    0    0 -0.00000000000E+00 -0.00000000000E+00 -0.45593999997E+02  0.45594000000E+02  0.51100000000E-03 0. -1.
    9900012    2    1    2    0    0  0.14437718807E+02  0.84121447314E+00 -0.11896440133E+02  0.72461530659E+02  0.69999948367E+02 0.  0.
         12    1    1    2    0    0 -0.14437718807E+02 -0.84121447314E+00  0.11896440133E+02  0.18726469341E+02  0.00000000000E+00 0. -1.
         11    1    3    3    0    0 -0.16915920570E+02  0.20512392544E+02  0.21187214773E+01  0.26672000254E+02  0.51100000000E-03 0. -1.
        -11    1    3    3    0    0 -0.15465192943E+01 -0.30286238375E+01  0.35788235018E+01  0.49368271385E+01  0.51100000000E-03 0.  1.
         12    1    3    3    0    0  0.32900158671E+02 -0.16642554234E+02 -0.17593985112E+02  0.40852703266E+02  0.00000000000E+00 0. -1.
</event>
<event>
 7    1  0.2873608E-013  0.7246156E+02  0.7816164E-02  0.1226708E+00
        -11   -1    0    0    0    0  0.00000000000E+00  0.00000000000E+00  0.45593999997E+02  0.45594000000E+02  0.51100000000E-03 0. -1.
         11   -1    0    0    0    0 -0.00000000000E+00 -0.00000000000E+00 -0.45593999997E+02  0.45594000000E+02  0.51100000000E-03 0.  1.
    9900012    2    1    2    0    0  0.88952777311E+01  0.13325844061E+02 -0.96940980358E+01  0.72461558198E+02  0.69999984242E+02 0.  0.
         12    1    1    2    0    0 -0.88952777311E+01 -0.13325844061E+02  0.96940980358E+01  0.18726441802E+02  0.00000000000E+00 0. -1.
         11    1    3    3    0    0  0.44607792790E+01  0.23297943206E+02 -0.13037962935E+02  0.27068084291E+02  0.51100000000E-03 0. -1.
        -11    1    3    3    0    0 -0.19349633427E+02 -0.37213342385E+01  0.61509668968E+01  0.20641972684E+02  0.51100000000E-03 0.  1.
         12    1    3    3    0    0  0.23784131879E+02 -0.62507649069E+01 -0.28071019975E+01  0.24751501223E+02  0.00000000000E+00 0. -1.
</event>
<event>
 7    1  0.2873608E-013  0.7246157E+02  0.7816164E-02  0.1226708E+00
        -11   -1    0    0    0    0  0.00000000000E+00  0.00000000000E+00  0.45593999997E+02  0.45594000000E+02  0.51100000000E-03 0. -1.
         11   -1    0    0    0    0 -0.00000000000E+00 -0.00000000000E+00 -0.45593999997E+02  0.45594000000E+02  0.51100000000E-03 0.  1.
    9900012    2    1    2    0    0 -0.13299081026E+02  0.12732883498E+02 -0.34186784090E+01  0.72461568402E+02  0.69999997535E+02 0.  0.
         12    1    1    2    0    0  0.13299081026E+02 -0.12732883498E+02  0.34186784090E+01  0.18726431598E+02  0.00000000000E+00 0. -1.
         11    1    3    3    0    0 -0.26926319246E+02  0.25273156744E+02 -0.24378137559E+02  0.44249889390E+02  0.51100000000E-03 0.  1.
        -11    1    3    3    0    0  0.76498579887E+01 -0.71996496967E+01  0.91056153306E+01  0.13902068688E+02  0.51100000000E-03 0. -1.
        -12    1    3    3    0    0  0.59773802309E+01 -0.53406235489E+01  0.11853843819E+02  0.14309610324E+02  0.00000000000E+00 0.  1.
</event>
<event>
 7    1  0.2873608E-013  0.7246157E+02  0.7816164E-02  0.1226708E+00
        -11   -1    0    0    0    0  0.00000000000E+00  0.00000000000E+00  0.45593999997E+02  0.45594000000E+02  0.51100000000E-03 0. -1.
         11   -1    0    0    0    0 -0.00000000000E+00 -0.00000000000E+00 -0.45593999997E+02  0.45594000000E+02  0.51100000000E-03 0.  1.
    9900012    2    1    2    0    0 -0.25779699797E+01  0.81885845409E+00 -0.18530047703E+02  0.72461571449E+02  0.70000001504E+02 0.  0.
         12    1    1    2    0    0  0.25779699797E+01 -0.81885845409E+00  0.18530047703E+02  0.18726428551E+02  0.00000000000E+00 0. -1.
         11    1    3    3    0    0  0.18222902370E+01 -0.12710148603E+02  0.18302223995E+02  0.22357102286E+02  0.51100000000E-03 0. -1.
        -11    1    3    3    0    0 -0.72833330885E+01 -0.29880678037E+01  0.17251413501E+01  0.80592557359E+01  0.51100000000E-03 0.  1.
        -12    1    3    3    0    0  0.28830728719E+01  0.16517074861E+02 -0.38557413048E+02  0.42045213427E+02  0.00000000000E+00 0.  1.
</event>
<event>
 7    1  0.2873608E-013  0.7246164E+02  0.7816164E-02  0.1226708E+00
        -11   -1    0    0    0    0  0.00000000000E+00  0.00000000000E+00  0.45593999997E+02  0.45594000000E+02  0.51100000000E-03 0.  1.
         11   -1    0    0    0    0 -0.00000000000E+00 -0.00000000000E+00 -0.45593999997E+02  0.45594000000E+02  0.51100000000E-03 0. -1.
    9900012    2    1    2    0    0  0.59780454536E+01  0.28866997448E+01  0.17510184125E+02  0.72461638608E+02  0.70000088992E+02 0.  0.
         12    1    1    2    0    0 -0.59780454536E+01 -0.28866997448E+01 -0.17510184125E+02  0.18726361392E+02  0.00000000000E+00 0. -1.
         11    1    3    3    0    0  0.12705709800E+02 -0.44288711138E+01 -0.22748398082E+02  0.26429899289E+02  0.51100000000E-03 0. -1.
        -11    1    3    3    0    0  0.31661779969E+01 -0.45511790197E+01  0.47246463603E+01  0.72842430676E+01  0.51100000000E-03 0.  1.
        -12    1    3    3    0    0 -0.98938423434E+01  0.11866749878E+02  0.35533935847E+02  0.38747496252E+02  0.00000000000E+00 0.  1.
</event>
<event>
 7    1  0.2873608E-013  0.7246148E+02  0.7816164E-02  0.1226708E+00
        -11   -1    0    0    0    0  0.00000000000E+00  0.00000000000E+00  0.45593999997E+02  0.45594000000E+02  0.51100000000E-03 0.  1.
         11   -1    0    0    0    0 -0.00000000000E+00 -0.00000000000E+00 -0.45593999997E+02  0.45594000000E+02  0.51100000000E-03 0. -1.
    9900012    2    1    2    0    0 -0.12308110336E+02 -0.13225246839E+02  0.49280727893E+01  0.72461477755E+02  0.69999879450E+02 0.  0.
         12    1    1    2    0    0  0.12308110336E+02  0.13225246839E+02 -0.49280727893E+01  0.18726522245E+02  0.00000000000E+00 0. -1.
         11    1    3    3    0    0 -0.21895494014E+02  0.11144785585E+01 -0.12166591796E+02  0.25073505474E+02  0.51100000000E-03 0. -1.
        -11    1    3    3    0    0 -0.31451692097E+01 -0.12059058914E+02 -0.10895332504E+02  0.16553587583E+02  0.51100000000E-03 0.  1.
        -12    1    3    3    0    0  0.12732552887E+02 -0.22806664830E+01  0.27989997089E+02  0.30834384698E+02  0.00000000000E+00 0.  1.
</event>
<event>
 7    1  0.2873608E-013  0.7246161E+02  0.7816164E-02  0.1226708E+00
        -11   -1    0    0    0    0  0.00000000000E+00  0.00000000000E+00  0.45593999997E+02  0.45594000000E+02  0.51100000000E-03 0.  1.
         11   -1    0    0    0    0 -0.00000000000E+00 -0.00000000000E+00 -0.45593999997E+02  0.45594000000E+02  0.51100000000E-03 0. -1.
    9900012    2    1    2    0    0  0.62285881951E+01  0.12815316769E+02  0.12151130036E+02  0.72461611775E+02  0.70000054036E+02 0.  0.
         12    1    1    2    0    0 -0.62285881951E+01 -0.12815316769E+02 -0.12151130036E+02  0.18726388225E+02  0.00000000000E+00 0. -1.
         11    1    3    3    0    0 -0.30875887633E+02  0.77391427758E+01  0.11455416100E+02  0.33829592465E+02  0.51100000000E-03 0. -1.
        -11    1    3    3    0    0  0.15388264098E+01 -0.15827815526E+01 -0.96731951228E+00  0.24101641983E+01  0.51100000000E-03 0.  1.
        -12    1    3    3    0    0  0.35565649418E+02  0.66589555458E+01  0.16630334484E+01  0.36221855112E+02  0.00000000000E+00 0.  1.
</event>
<event>
 7    1  0.2873608E-013  0.7246158E+02  0.7816164E-02  0.1226708E+00
        -11   -1    0    0    0    0  0.00000000000E+00  0.00000000000E+00  0.45593999997E+02  0.45594000000E+02  0.51100000000E-03 0.  1.
         11   -1    0    0    0    0 -0.00000000000E+00 -0.00000000000E+00 -0.45593999997E+02  0.45594000000E+02  0.51100000000E-03 0. -1.
    9900012    2    1    2    0    0 -0.41297229541E+01  0.15966973210E+02 -0.88701729609E+01  0.72461579800E+02  0.70000012383E+02 0.  0.
         12    1    1    2    0    0  0.41297229541E+01 -0.15966973210E+02  0.88701729609E+01  0.18726420200E+02  0.00000000000E+00 0. -1.
         11    1    3    3    0    0 -0.45352054070E+01  0.10175221289E+02  0.11691201237E+02  0.16148913369E+02  0.51100000000E-03 0.  1.
        -11    1    3    3    0    0 -0.12008070651E+02  0.20213489012E+02  0.54010928047E+01  0.24123654419E+02  0.51100000000E-03 0. -1.
         12    1    3    3    0    0  0.12413553104E+02 -0.14421737091E+02 -0.25962467003E+02  0.32189012011E+02  0.00000000000E+00 0. -1.
</event>
<event>
 7    1  0.2873608E-013  0.7246159E+02  0.7816164E-02  0.1226708E+00
        -11   -1    0    0    0    0  0.00000000000E+00  0.00000000000E+00  0.45593999997E+02  0.45594000000E+02  0.51100000000E-03 0. -1.
         11   -1    0    0    0    0 -0.00000000000E+00 -0.00000000000E+00 -0.45593999997E+02  0.45594000000E+02  0.51100000000E-03 0.  1.
    9900012    2    1    2    0    0  0.13474568103E+02  0.10023062177E+01 -0.12965719954E+02  0.72461588244E+02  0.70000023383E+02 0.  0.
         12    1    1    2    0    0 -0.13474568103E+02 -0.10023062177E+01  0.12965719954E+02  0.18726411756E+02  0.00000000000E+00 0. -1.
         11    1    3    3    0    0  0.10487822151E+02  0.16270484737E+02 -0.23010815330E+02  0.30070262876E+02  0.51100000000E-03 0.  1.
        -11    1    3    3    0    0 -0.10344724905E+02 -0.23140402336E+02  0.35217310407E+01  0.25590899621E+02  0.51100000000E-03 0. -1.
         12    1    3    3    0    0  0.13331470857E+02  0.78722238164E+01  0.65233643343E+01  0.16800425746E+02  0.00000000000E+00 0. -1.
</event>
<event>
 7    1  0.2873608E-013  0.7246170E+02  0.7816164E-02  0.1226708E+00
        -11   -1    0    0    0    0  0.00000000000E+00  0.00000000000E+00  0.45593999997E+02  0.45594000000E+02  0.51100000000E-03 0. -1.
         11   -1    0    0    0    0 -0.00000000000E+00 -0.00000000000E+00 -0.45593999997E+02  0.45594000000E+02  0.51100000000E-03 0.  1.
    9900012    2    1    2    0    0 -0.13276382648E+02  0.36892931144E+01 -0.12680740092E+02  0.72461697931E+02  0.70000166270E+02 0.  0.
         12    1    1    2    0    0  0.13276382648E+02 -0.36892931144E+01  0.12680740092E+02  0.18726302069E+02  0.00000000000E+00 0. -1.
         11    1    3    3    0    0 -0.11941807695E+02 -0.19846718850E+01 -0.13685871941E+02  0.18271529344E+02  0.51100000000E-03 0. -1.
        -11    1    3    3    0    0  0.21149485685E+02  0.71523225290E+01 -0.14694093530E+02  0.26727754250E+02  0.51100000000E-03 0.  1.
         12    1    3    3    0    0 -0.22484060638E+02 -0.14783575296E+01  0.15699225379E+02  0.27462414338E+02  0.00000000000E+00 0. -1.
</event>
<event>
 7    1  0.2873608E-013  0.7246180E+02  0.7816164E-02  0.1226707E+00
        -11   -1    0    0    0    0  0.00000000000E+00  0.00000000000E+00  0.45593999997E+02  0.45594000000E+02  0.51100000000E-03 0.  1.
         11   -1    0    0    0    0 -0.00000000000E+00 -0.00000000000E+00 -0.45593999997E+02  0.45594000000E+02  0.51100000000E-03 0. -1.
    9900012    2    1    2    0    0 -0.19795244566E+01 -0.64097624522E+01  0.17483336078E+02  0.72461798779E+02  0.70000297643E+02 0.  0.
         12    1    1    2    0    0  0.19795244566E+01  0.64097624522E+01 -0.17483336078E+02  0.18726201221E+02  0.00000000000E+00 0. -1.
         11    1    3    3    0    0  0.52458388248E+01  0.11353178933E+02  0.63290709993E+01  0.14016798380E+02  0.51100000000E-03 0. -1.
        -11    1    3    3    0    0  0.10134031036E+01 -0.60170180810E+01  0.32311115410E+02  0.32882209046E+02  0.51100000000E-03 0.  1.
         12    1    3    3    0    0 -0.82387663851E+01 -0.11745923304E+02 -0.21156850332E+02  0.25562791353E+02  0.00000000000E+00 0. -1.
</event>
