<event>
 7    1  0.1333056E-013  0.7246165E+02  0.7816164E-02  0.1226708E+00
        -11   -1    0    0    0    0  0.00000000000E+00  0.00000000000E+00  0.45593999997E+02  0.45594000000E+02  0.51100000000E-03 0. -1.
         11   -1    0    0    0    0 -0.00000000000E+00 -0.00000000000E+00 -0.45593999997E+02  0.45594000000E+02  0.51100000000E-03 0.  1.
    9900012    2    1    2    0    0  0.48411779212E+01  0.17623418240E+02 -0.40809682133E+01  0.72461650231E+02  0.70000104132E+02 0.  0.
         12    1    1    2    0    0 -0.48411779212E+01 -0.17623418240E+02  0.40809682133E+01  0.18726349769E+02  0.00000000000E+00 0. -1.
         11    1    3    3    0    0  0.93199920478E+01  0.18272471458E+02  0.28802363655E+02  0.35359887123E+02  0.51100000000E-03 0. -1.
        -11    1    3    3    0    0 -0.52349254539E+01 -0.80915210170E+01 -0.20086051643E+02  0.22278389254E+02  0.51100000000E-03 0.  1.
        -12    1    3    3    0    0  0.75611132733E+00  0.74424677984E+01 -0.12797280225E+02  0.14823373854E+02  0.00000000000E+00 0.  1.
</event>
<event>
 7    1  0.1333056E-013  0.7246136E+02  0.7816164E-02  0.1226709E+00
        -11   -1    0    0    0    0  0.00000000000E+00  0.00000000000E+00  0.45593999997E+02  0.45594000000E+02  0.51100000000E-03 0.  1.
         11   -1    0    0    0    0 -0.00000000000E+00 -0.00000000000E+00 -0.45593999997E+02  0.45594000000E+02  0.51100000000E-03 0. -1.
    9900012    2    1    2    0    0 -0.93284639780E+01 -0.13858228603E+02  0.84626348127E+01  0.72461363138E+02  0.69999730139E+02 0.  0.
         12    1    1    2    0    0  0.93284639780E+01  0.13858228603E+02 -0.84626348127E+01  0.18726636862E+02  0.00000000000E+00 0. -1.
         11    1    3    3    0    0 -0.11670494000E+02 -0.12571166982E+02  0.29941912806E+02  0.34507286364E+02  0.51100000000E-03 0.  1.
        -11    1    3    3    0    0 -0.69820167125E+01 -0.24359540255E+01 -0.26352796616E+02  0.27370647035E+02  0.51100000000E-03 0. -1.
         12    1    3    3    0    0  0.93240467342E+01  0.11488924047E+01  0.48735186225E+01  0.10583429738E+02  0.00000000000E+00 0. -1.
</event>
<event>
 7    1  0.1333056E-013  0.7246157E+02  0.7816164E-02  0.1226708E+00
        -11   -1    0    0    0    0  0.00000000000E+00  0.00000000000E+00  0.45593999997E+02  0.45594000000E+02  0.51100000000E-03 0.  1.
         11   -1    0    0    0    0 -0.00000000000E+00 -0.00000000000E+00 -0.45593999997E+02  0.45594000000E+02  0.51100000000E-03 0. -1.
    9900012    2    1    2    0    0  0.16732186885E+02  0.22550692734E+00 -0.84060788112E+01  0.72461572356E+02  0.70000002686E+02 0.  0.
         12    1    1    2    0    0 -0.16732186885E+02 -0.22550692734E+00  0.84060788112E+01  0.18726427644E+02  0.00000000000E+00 0. -1.
         11    1    3    3    0    0  0.84127452743E+01 -0.24519616232E+02  0.10687115524E+02  0.28039263572E+02  0.51100000000E-03 0. -1.
        -11    1    3    3    0    0  0.28967707198E+01  0.17259220261E+02 -0.27055487151E+02  0.32222218264E+02  0.51100000000E-03 0.  1.
        -12    1    3    3    0    0  0.54226708910E+01  0.74859028982E+01  0.79622928161E+01  0.12200090519E+02  0.00000000000E+00 0.  1.
</event>
<event>
 7    1  0.1333056E-013  0.7246155E+02  0.7816164E-02  0.1226708E+00
        -11   -1    0    0    0    0  0.00000000000E+00  0.00000000000E+00  0.45593999997E+02  0.45594000000E+02  0.51100000000E-03 0.  1.
         11   -1    0    0    0    0 -0.00000000000E+00 -0.00000000000E+00 -0.45593999997E+02  0.45594000000E+02  0.51100000000E-03 0. -1.
    9900012    2    1    2    0    0  0.16573778613E+02  0.64231180469E+01  0.58935096512E+01  0.72461547080E+02  0.69999969759E+02 0.  0.
         12    1    1    2    0    0 -0.16573778613E+02 -0.64231180469E+01 -0.58935096512E+01  0.18726452920E+02  0.00000000000E+00 0. -1.
         11    1    3    3    0    0 -0.53726270925E+01  0.25914328255E+02  0.47935236020E+01  0.26896010848E+02  0.51100000000E-03 0.  1.
        -11    1    3    3    0    0  0.38587822744E+00 -0.14453869919E+02 -0.12893664503E+02  0.19372915171E+02  0.51100000000E-03 0. -1.
         12    1    3    3    0    0  0.21560527478E+02 -0.50373402887E+01  0.13993650552E+02  0.26192621061E+02  0.00000000000E+00 0. -1.
</event>
<event>
 7    1  0.1333056E-013  0.7246170E+02  0.7816164E-02  0.1226708E+00
        -11   -1    0    0    0    0  0.00000000000E+00  0.00000000000E+00  0.45593999997E+02  0.45594000000E+02  0.51100000000E-03 0.  1.
         11   -1    0    0    0    0 -0.00000000000E+00 -0.00000000000E+00 -0.45593999997E+02  0.45594000000E+02  0.51100000000E-03 0. -1.
    9900012    2    1    2    0    0  0.10409317925E+02 -0.84772521138E+01  0.13055896175E+02  0.72461704905E+02  0.70000175355E+02 0.  0.
         12    1    1    2    0    0 -0.10409317925E+02  0.84772521138E+01 -0.13055896175E+02  0.18726295095E+02  0.00000000000E+00 0. -1.
         11    1    3    3    0    0 -0.29838796282E+01  0.18180860272E+02 -0.71124425725E+01  0.19749279923E+02  0.51100000000E-03 0. -1.
        -11    1    3    3    0    0  0.22848297913E+02 -0.29206658860E+01  0.77480634447E+01  0.24302417454E+02  0.51100000000E-03 0.  1.
         12    1    3    3    0    0 -0.94551003597E+01 -0.23737446500E+02  0.12420275302E+02  0.28410007528E+02  0.00000000000E+00 0. -1.
</event>
<event>
 7    1  0.1333056E-013  0.7246158E+02  0.7816164E-02  0.1226708E+00
        -11   -1    0    0    0    0  0.00000000000E+00  0.00000000000E+00  0.45593999997E+02  0.45594000000E+02  0.51100000000E-03 0.  1.
         11   -1    0    0    0    0 -0.00000000000E+00 -0.00000000000E+00 -0.45593999997E+02  0.45594000000E+02  0.51100000000E-03 0. -1.
    9900012    2    1    2    0    0 -0.25413243000E+01  0.53549961987E+01  0.17763573756E+02  0.72461578397E+02  0.70000010555E+02 0.  0.
         12    1    1    2    0    0  0.25413243000E+01 -0.53549961987E+01 -0.17763573756E+02  0.18726421603E+02  0.00000000000E+00 0. -1.
         11    1    3    3    0    0  0.76390324100E+01 -0.25454188083E+02 -0.10671198726E+02  0.28638173644E+02  0.51100000000E-03 0. -1.
        -11    1    3    3    0    0  0.92754779821E+00  0.61098983525E+01  0.41170949421E+01  0.74257439910E+01  0.51100000000E-03 0.  1.
         12    1    3    3    0    0 -0.11107904508E+02  0.24699285930E+02  0.24317677540E+02  0.36397660762E+02  0.00000000000E+00 0. -1.
</event>
<event>
 7    1  0.1333056E-013  0.7246179E+02  0.7816164E-02  0.1226707E+00
        -11   -1    0    0    0    0  0.00000000000E+00  0.00000000000E+00  0.45593999997E+02  0.45594000000E+02  0.51100000000E-03 0. -1.
         11   -1    0    0    0    0 -0.00000000000E+00 -0.00000000000E+00 -0.45593999997E+02  0.45594000000E+02  0.51100000000E-03 0.  1.
    9900012    2    1    2    0    0  0.24600933620E+01 -0.41321300771E+00 -0.18559316546E+02  0.72461787490E+02  0.70000282937E+02 0.  0.
         12    1    1    2    0    0 -0.24600933620E+01  0.41321300771E+00  0.18559316546E+02  0.18726212510E+02  0.00000000000E+00 0. -1.
         11    1    3    3    0    0 -0.17337807493E+02 -0.15563555243E+00 -0.69136592384E+01  0.18666078201E+02  0.51100000000E-03 0. -1.
        -11    1    3    3    0    0  0.19320101159E+02  0.19083631136E+02 -0.18951529440E+02  0.33115128786E+02  0.51100000000E-03 0.  1.
        -12    1    3    3    0    0  0.47779969557E+00 -0.19341208591E+02  0.73058721325E+01  0.20680580502E+02  0.00000000000E+00 0.  1.
</event>
<event>
 7    1  0.1333056E-013  0.7246160E+02  0.7816164E-02  0.1226708E+00
        -11   -1    0    0    0    0  0.00000000000E+00  0.00000000000E+00  0.45593999997E+02  0.45594000000E+02  0.51100000000E-03 0.  1.
         11   -1    0    0    0    0 -0.00000000000E+00 -0.00000000000E+00 -0.45593999997E+02  0.45594000000E+02  0.51100000000E-03 0. -1.
    9900012    2    1    2    0    0  0.81633135727E+01 -0.35700013791E+01  0.16470991569E+02  0.72461597206E+02  0.70000035058E+02 0.  0.
         12    1    1    2    0    0 -0.81633135727E+01  0.35700013791E+01 -0.16470991569E+02  0.18726402794E+02  0.00000000000E+00 0. -1.
         11    1    3    3    0    0 -0.16219523284E+02 -0.23271769150E+02  0.27137673019E+00  0.28367619225E+02  0.51100000000E-03 0. -1.
        -11    1    3    3    0    0  0.19437405216E+02  0.11708576722E+02  0.23140465370E+02  0.32409637891E+02  0.51100000000E-03 0.  1.
         12    1    3    3    0    0  0.49454316404E+01  0.79931910482E+01 -0.69408505316E+01  0.11684340090E+02  0.00000000000E+00 0. -1.
</event>
<event>
 7    1  0.1333056E-013  0.7246185E+02  0.7816164E-02  0.1226707E+00
        -11   -1    0    0    0    0  0.00000000000E+00  0.00000000000E+00  0.45593999997E+02  0.45594000000E+02  0.51100000000E-03 0. -1.
         11   -1    0    0    0    0 -0.00000000000E+00 -0.00000000000E+00 -0.45593999997E+02  0.45594000000E+02  0.51100000000E-03 0.  1.
    9900012    2    1    2    0    0  0.26017044672E+01  0.92404724658E+00 -0.18521502181E+02  0.72461847899E+02  0.70000361631E+02 0.  0.
         12    1    1    2    0    0 -0.26017044672E+01 -0.92404724658E+00  0.18521502181E+02  0.18726152101E+02  0.00000000000E+00 0. -1.
         11    1    3    3    0    0  0.22529580690E+02  0.17306085943E+02  0.48305908347E+00  0.28413306092E+02  0.51100000000E-03 0. -1.
        -11    1    3    3    0    0 -0.25087648705E+02 -0.11006611203E+02 -0.45288255922E+01  0.27767712712E+02  0.51100000000E-03 0.  1.
        -12    1    3    3    0    0  0.51597724819E+01 -0.53754274925E+01 -0.14475735672E+02  0.16280829096E+02  0.00000000000E+00 0.  1.
</event>
<event>
 7    1  0.1333056E-013  0.7246155E+02  0.7816164E-02  0.1226708E+00
        -11   -1    0    0    0    0  0.00000000000E+00  0.00000000000E+00  0.45593999997E+02  0.45594000000E+02  0.51100000000E-03 0.  1.
         11   -1    0    0    0    0 -0.00000000000E+00 -0.00000000000E+00 -0.45593999997E+02  0.45594000000E+02  0.51100000000E-03 0. -1.
    9900012    2    1    2    0    0  0.18491064645E+02  0.28967744609E+01  0.60769375110E+00  0.72461546367E+02  0.69999968830E+02 0.  0.
         12    1    1    2    0    0 -0.18491064645E+02 -0.28967744609E+01 -0.60769375110E+00  0.18726453633E+02  0.00000000000E+00 0. -1.
         11    1    3    3    0    0 -0.13107284450E+01 -0.24066780114E+02  0.42726546759E+01  0.24478224861E+02  0.51100000000E-03 0. -1.
        -11    1    3    3    0    0  0.19307580707E+02  0.17370407449E+02 -0.17371759649E+02  0.31245667880E+02  0.51100000000E-03 0.  1.
        -12    1    3    3    0    0  0.49421238266E+00  0.95931471258E+01  0.13706798724E+02  0.16737653626E+02  0.00000000000E+00 0.  1.
</event>
<event>
 7    1  0.1333056E-013  0.7246147E+02  0.7816164E-02  0.1226708E+00
        -11   -1    0    0    0    0  0.00000000000E+00  0.00000000000E+00  0.45593999997E+02  0.45594000000E+02  0.51100000000E-03 0. -1.
         11   -1    0    0    0    0 -0.00000000000E+00 -0.00000000000E+00 -0.45593999997E+02  0.45594000000E+02  0.51100000000E-03 0.  1.
    9900012    2    1    2    0    0  0.14814256655E+01 -0.11690875460E+02 -0.14553748177E+02  0.72461473974E+02  0.69999874524E+02 0.  0.
         12    1    1    2    0    0 -0.14814256655E+01  0.11690875460E+02  0.14553748177E+02  0.18726526026E+02  0.00000000000E+00 0. -1.
         11    1    3    3    0    0  0.17772298793E+02 -0.74335802032E+01  0.47616522529E+01  0.19844043224E+02  0.51100000000E-03 0. -1.
        -11    1    3    3    0    0 -0.30659083475E+02 -0.71384307182E+01 -0.21038393627E+02  0.37862258244E+02  0.51100000000E-03 0.  1.
        -12    1    3    3    0    0  0.14368210347E+02  0.28811354614E+01  0.17229931975E+01  0.14755172506E+02  0.00000000000E+00 0.  1.
</event>
<event>
 7    1  0.1333056E-013  0.7246154E+02  0.7816164E-02  0.1226708E+00
        -11   -1    0    0    0    0  0.00000000000E+00  0.00000000000E+00  0.45593999997E+02  0.45594000000E+02  0.51100000000E-03 0.  1.
         11   -1    0    0    0    0 -0.00000000000E+00 -0.00000000000E+00 -0.45593999997E+02  0.45594000000E+02  0.51100000000E-03 0. -1.
    9900012    2    1    2    0    0  0.11448812986E+02  0.87289048929E+01  0.11975441277E+02  0.72461540291E+02  0.69999960916E+02 0.  0.
         12    1    1    2    0    0 -0.11448812986E+02 -0.87289048929E+01 -0.11975441277E+02  0.18726459709E+02  0.00000000000E+00 0. -1.
         11    1    3    3    0    0 -0.21084789172E+01 -0.10438814306E+02 -0.10333648779E+01  0.10699643484E+02  0.51100000000E-03 0. -1.
        -11    1    3    3    0    0  0.10947906849E+02  0.23996184790E+02 -0.16918534956E+02  0.31335449162E+02  0.51100000000E-03 0.  1.
        -12    1    3    3    0    0  0.26093850548E+01 -0.48284655908E+01  0.29927341111E+02  0.30426447645E+02  0.00000000000E+00 0.  1.
</event>
<event>
 7    1  0.1333056E-013  0.7246140E+02  0.7816164E-02  0.1226708E+00
        -11   -1    0    0    0    0  0.00000000000E+00  0.00000000000E+00  0.45593999997E+02  0.45594000000E+02  0.51100000000E-03 0.  1.
         11   -1    0    0    0    0 -0.00000000000E+00 -0.00000000000E+00 -0.45593999997E+02  0.45594000000E+02  0.51100000000E-03 0. -1.
    9900012    2    1    2    0    0  0.48787407203E+01 -0.10993159992E+01 -0.18046466870E+02  0.72461399316E+02  0.69999777269E+02 0.  0.
         12    1    1    2    0    0 -0.48787407203E+01  0.10993159992E+01  0.18046466870E+02  0.18726600684E+02  0.00000000000E+00 0. -1.
         11    1    3    3    0    0 -0.21248215157E+01  0.31020420561E+02 -0.21988721500E+02  0.38082610621E+02  0.51100000000E-03 0.  1.
        -11    1    3    3    0    0  0.26639743330E+01 -0.25101663314E+02  0.20021249511E-01  0.25242635787E+02  0.51100000000E-03 0. -1.
        -12    1    3    3    0    0  0.43395879030E+01 -0.70180732469E+01  0.39222333810E+01  0.91361529082E+01  0.00000000000E+00 0.  1.
</event>
<event>
 7    1  0.1333056E-013  0.7246154E+02  0.7816164E-02  0.1226708E+00
        -11   -1    0    0    0    0  0.00000000000E+00  0.00000000000E+00  0.45593999997E+02  0.45594000000E+02  0.51100000000E-03 0. -1.
         11   -1    0    0    0    0 -0.00000000000E+00 -0.00000000000E+00 -0.45593999997E+02  0.45594000000E+02  0.51100000000E-03 0.  1.
    9900012    2    1    2    0    0 -0.46491001336E+01  0.48154634979E+01 -0.17489352242E+02  0.72461541109E+02  0.69999961980E+02 0.  0.
         12    1    1    2    0    0  0.46491001336E+01 -0.48154634979E+01  0.17489352242E+02  0.18726458891E+02  0.00000000000E+00 0. -1.
         11    1    3    3    0    0 -0.17494371542E+02 -0.24868196134E+02 -0.15787931940E+02  0.34259874632E+02  0.51100000000E-03 0. -1.
        -11    1    3    3    0    0  0.89470325057E+01  0.30754431473E+02 -0.56805343256E+01  0.32529262463E+02  0.51100000000E-03 0.  1.
         12    1    3    3    0    0  0.38982389026E+01 -0.10707718412E+01  0.39791140236E+01  0.56724040133E+01  0.00000000000E+00 0. -1.
</event>
<event>
 7    1  0.1333056E-013  0.7246158E+02  0.7816164E-02  0.1226708E+00
        -11   -1    0    0    0    0  0.00000000000E+00  0.00000000000E+00  0.45593999997E+02  0.45594000000E+02  0.51100000000E-03 0.  1.
         11   -1    0    0    0    0 -0.00000000000E+00 -0.00000000000E+00 -0.45593999997E+02  0.45594000000E+02  0.51100000000E-03 0. -1.
    9900012    2    1    2    0    0 -0.13932218217E+00 -0.74274336208E+01  0.17189902809E+02  0.72461576438E+02  0.70000008003E+02 0.  0.
         12    1    1    2    0    0  0.13932218217E+00  0.74274336208E+01 -0.17189902809E+02  0.18726423562E+02  0.00000000000E+00 0. -1.
         11    1    3    3    0    0 -0.13932337065E+02 -0.25137233809E+02 -0.53271909889E+01  0.29229599788E+02  0.51100000000E-03 0. -1.
        -11    1    3    3    0    0  0.64376388864E+01  0.14239855203E+02  0.28925967441E+02  0.32877473493E+02  0.51100000000E-03 0.  1.
        -12    1    3    3    0    0  0.73553759961E+01  0.34699449853E+01 -0.64088736439E+01  0.10354503157E+02  0.00000000000E+00 0.  1.
</event>
<event>
 7    1  0.1333056E-013  0.7246140E+02  0.7816164E-02  0.1226708E+00
        -11   -1    0    0    0    0  0.00000000000E+00  0.00000000000E+00  0.45593999997E+02  0.45594000000E+02  0.51100000000E-03 0.  1.
         11   -1    0    0    0    0 -0.00000000000E+00 -0.00000000000E+00 -0.45593999997E+02  0.45594000000E+02  0.51100000000E-03 0. -1.
    9900012    2    1    2    0    0  0.14405315286E+02 -0.11705397654E+02 -0.24811206255E+01  0.72461403878E+02  0.69999783212E+02 0.  0.
         12    1    1    2    0    0 -0.14405315286E+02  0.11705397654E+02  0.24811206255E+01  0.18726596122E+02  0.00000000000E+00 0. -1.
         11    1    3    3    0    0  0.12692916921E+01 -0.78680657585E-03 -0.33707754325E+02  0.33731643955E+02  0.51100000000E-03 0. -1.
        -11    1    3    3    0    0  0.43630174250E+01  0.20916570096E+01  0.14728170519E+02  0.15502579050E+02  0.51100000000E-03 0.  1.
         12    1    3    3    0    0  0.87730061691E+01 -0.13796267857E+02  0.16498463180E+02  0.23227180874E+02  0.00000000000E+00 0. -1.
</event>
<event>
 7    1  0.1333056E-013  0.7246174E+02  0.7816164E-02  0.1226708E+00
        -11   -1    0    0    0    0  0.00000000000E+00  0.00000000000E+00  0.45593999997E+02  0.45594000000E+02  0.51100000000E-03 0. -1.
         11   -1    0    0    0    0 -0.00000000000E+00 -0.00000000000E+00 -0.45593999997E+02  0.45594000000E+02  0.51100000000E-03 0.  1.
    9900012    2    1    2    0    0  0.38217326675E+01 -0.20910081524E+01 -0.18212490653E+02  0.72461741124E+02  0.70000222537E+02 0.  0.
         12    1    1    2    0    0 -0.38217326675E+01  0.20910081524E+01  0.18212490653E+02  0.18726258876E+02  0.00000000000E+00 0. -1.
         11    1    3    3    0    0  0.41294983155E+01 -0.15935948210E+02  0.12330045491E+02  0.20567868722E+02  0.51100000000E-03 0. -1.
        -11    1    3    3    0    0  0.36733820444E+01  0.27488861366E+02 -0.19719006101E+02  0.34028964673E+02  0.51100000000E-03 0.  1.
         12    1    3    3    0    0 -0.39811476925E+01 -0.13643921308E+02 -0.10823530043E+02  0.17864907730E+02  0.00000000000E+00 0. -1.
</event>
<event>
 7    1  0.1333056E-013  0.7246134E+02  0.7816164E-02  0.1226709E+00
        -11   -1    0    0    0    0  0.00000000000E+00  0.00000000000E+00  0.45593999997E+02  0.45594000000E+02  0.51100000000E-03 0. -1.
         11   -1    0    0    0    0 -0.00000000000E+00 -0.00000000000E+00 -0.45593999997E+02  0.45594000000E+02  0.51100000000E-03 0.  1.
    9900012    2    1    2    0    0 -0.72204166391E+01  0.17271764690E+02  0.48953204452E+00  0.72461336828E+02  0.69999695866E+02 0.  0.
         12    1    1    2    0    0  0.72204166391E+01 -0.17271764690E+02 -0.48953204452E+00  0.18726663172E+02  0.00000000000E+00 0. -1.
         11    1    3    3    0    0  0.11764818010E+02 -0.23595193314E+01 -0.86803618959E+01  0.14809691326E+02  0.51100000000E-03 0. -1.
        -11    1    3    3    0    0 -0.25367162537E+02  0.22410432203E+02  0.23848524039E+02  0.41406189221E+02  0.51100000000E-03 0.  1.
        -12    1    3    3    0    0  0.63819278875E+01 -0.27791481820E+01 -0.14678630099E+02  0.16245456280E+02  0.00000000000E+00 0.  1.
</event>
<event>
 7    1  0.1333056E-013  0.7246157E+02  0.7816164E-02  0.1226708E+00
        -11   -1    0    0    0    0  0.00000000000E+00  0.00000000000E+00  0.45593999997E+02  0.45594000000E+02  0.51100000000E-03 0.  1.
         11   -1    0    0    0    0 -0.00000000000E+00 -0.00000000000E+00 -0.45593999997E+02  0.45594000000E+02  0.51100000000E-03 0. -1.
    9900012    2    1    2    0    0  0.77875681959E+01  0.15877679208E+02  0.61589105591E+01  0.72461572292E+02  0.70000002602E+02 0.  0.
         12    1    1    2    0    0 -0.77875681959E+01 -0.15877679208E+02 -0.61589105591E+01  0.18726427708E+02  0.00000000000E+00 0. -1.
         11    1    3    3    0    0 -0.45863922489E+00  0.16263672696E+02 -0.27066416559E+02  0.31580188491E+02  0.51100000000E-03 0. -1.
        -11    1    3    3    0    0 -0.35453315600E+00 -0.89068982609E+01  0.24173678962E+02  0.25764807106E+02  0.51100000000E-03 0.  1.
         12    1    3    3    0    0  0.86007405767E+01  0.85209047731E+01  0.90516481562E+01  0.15116576695E+02  0.00000000000E+00 0. -1.
</event>
<event>
 7    1  0.1333056E-013  0.7246157E+02  0.7816164E-02  0.1226708E+00
        -11   -1    0    0    0    0  0.00000000000E+00  0.00000000000E+00  0.45593999997E+02  0.45594000000E+02  0.51100000000E-03 0. -1.
         11   -1    0    0    0    0 -0.00000000000E+00 -0.00000000000E+00 -0.45593999997E+02  0.45594000000E+02  0.51100000000E-03 0.  1.
    9900012    2    1    2    0    0  0.82891519083E+01  0.16734665691E+02 -0.13856936156E+01  0.72461568895E+02  0.69999998177E+02 0.  0.
         12    1    1    2    0    0 -0.82891519083E+01 -0.16734665691E+02  0.13856936156E+01  0.18726431105E+02  0.00000000000E+00 0. -1.
         11    1    3    3    0    0 -0.10630600069E+01  0.29644526887E+02  0.85902043568E+01  0.30882352276E+02  0.51100000000E-03 0. -1.
        -11    1    3    3    0    0  0.17832423969E+02 -0.48058453942E+01  0.79901971159E+01  0.20122990453E+02  0.51100000000E-03 0.  1.
        -12    1    3    3    0    0 -0.84802120533E+01 -0.81040158017E+01 -0.17966095088E+02  0.21456226166E+02  0.00000000000E+00 0.  1.
</event>
<event>
 7    1  0.1333056E-013  0.7246161E+02  0.7816164E-02  0.1226708E+00
        -11   -1    0    0    0    0  0.00000000000E+00  0.00000000000E+00  0.45593999997E+02  0.45594000000E+02  0.51100000000E-03 0.  1.
         11   -1    0    0    0    0 -0.00000000000E+00 -0.00000000000E+00 -0.45593999997E+02  0.45594000000E+02  0.51100000000E-03 0. -1.
    9900012    2    1    2    0    0  0.60072150387E+01  0.77146109631E+01  0.15971087922E+02  0.72461614758E+02  0.70000057922E+02 0.  0.
         12    1    1    2    0    0 -0.60072150387E+01 -0.77146109631E+01 -0.15971087922E+02  0.18726385242E+02  0.00000000000E+00 0. -1.
         11    1    3    3    0    0  0.25712709791E+01  0.18993471057E+01 -0.16283539289E+00  0.32008544956E+01  0.51100000000E-03 0. -1.
        -11    1    3    3    0    0 -0.14364813783E+02 -0.15947448819E+02 -0.15846131597E+02  0.26678997089E+02  0.51100000000E-03 0.  1.
        -12    1    3    3    0    0  0.17800757843E+02  0.21762712676E+02  0.31980054911E+02  0.42581763173E+02  0.00000000000E+00 0.  1.
</event>
<event>
 7    1  0.1333056E-013  0.7246163E+02  0.7816164E-02  0.1226708E+00
        -11   -1    0    0    0    0  0.00000000000E+00  0.00000000000E+00  0.45593999997E+02  0.45594000000E+02  0.51100000000E-03 0.  1.
         11   -1    0    0    0    0 -0.00000000000E+00 -0.00000000000E+00 -0.45593999997E+02  0.45594000000E+02  0.51100000000E-03 0. -1.
    9900012    2    1    2    0    0  0.18610442120E+02 -0.11901685327E+01 -0.17064626861E+01  0.72461626300E+02  0.70000072958E+02 0.  0.
         12    1    1    2    0    0 -0.18610442120E+02  0.11901685327E+01  0.17064626861E+01  0.18726373700E+02  0.00000000000E+00 0. -1.
         11    1    3    3    0    0  0.13582797941E+02  0.45972112451E+01 -0.91690637037E+01  0.17020531149E+02  0.51100000000E-03 0. -1.
        -11    1    3    3    0    0  0.13368428318E+01 -0.28805581052E+02 -0.45866358857E+01  0.29199073231E+02  0.51100000000E-03 0.  1.
        -12    1    3    3    0    0  0.36908013475E+01  0.23018201275E+02  0.12049236903E+02  0.26242021920E+02  0.00000000000E+00 0.  1.
</event>
<event>
 7    1  0.1333056E-013  0.7246179E+02  0.7816164E-02  0.1226707E+00
        -11   -1    0    0    0    0  0.00000000000E+00  0.00000000000E+00  0.45593999997E+02  0.45594000000E+02  0.51100000000E-03 0. -1.
         11   -1    0    0    0    0 -0.00000000000E+00 -0.00000000000E+00 -0.45593999997E+02  0.45594000000E+02  0.51100000000E-03 0.  1.
    9900012    2    1    2    0    0 -0.16755728971E+02 -0.60453281579E+01 -0.57767122843E+01  0.72461792410E+02  0.70000289346E+02 0.  0.
         12    1    1    2    0    0  0.16755728971E+02  0.60453281579E+01  0.57767122843E+01  0.18726207590E+02  0.00000000000E+00 0. -1.
         11    1    3    3    0    0  0.18868300821E+01  0.10275172937E+02 -0.37314823787E+01  0.11093388465E+02  0.51100000000E-03 0.  1.
        -11    1    3    3    0    0 -0.41149430949E+01 -0.27742030488E+02  0.18605901514E+02  0.33656092817E+02  0.51100000000E-03 0. -1.
        -12    1    3    3    0    0 -0.14527615959E+02  0.11421529393E+02 -0.20651131420E+02  0.27712311128E+02  0.00000000000E+00 0.  1.
</event>
<event>
 7    1  0.1333056E-013  0.7246157E+02  0.7816164E-02  0.1226708E+00
        -11   -1    0    0    0    0  0.00000000000E+00  0.00000000000E+00  0.45593999997E+02  0.45594000000E+02  0.51100000000E-03 0. -1.
         11   -1    0    0    0    0 -0.00000000000E+00 -0.00000000000E+00 -0.45593999997E+02  0.45594000000E+02  0.51100000000E-03 0.  1.
    9900012    2    1    2    0    0 -0.75947219482E+01  0.10925085985E+02 -0.13177330683E+02  0.72461565497E+02  0.69999993751E+02 0.  0.
         12    1    1    2    0    0  0.75947219482E+01 -0.10925085985E+02  0.13177330683E+02  0.18726434503E+02  0.00000000000E+00 0. -1.
         11    1    3    3    0    0 -0.24347610738E+02  0.24265544795E+02 -0.40135310256E+01  0.34608253992E+02  0.51100000000E-03 0.  1.
        -11    1    3    3    0    0  0.57853218417E+01 -0.16818168931E+02 -0.16456629009E+02  0.24231000673E+02  0.51100000000E-03 0. -1.
         12    1    3    3    0    0  0.10967566948E+02  0.34777101217E+01  0.72928293517E+01  0.13622310832E+02  0.00000000000E+00 0. -1.
</event>
<event>
 7    1  0.1333056E-013  0.7246147E+02  0.7816164E-02  0.1226708E+00
        -11   -1    0    0    0    0  0.00000000000E+00  0.00000000000E+00  0.45593999997E+02  0.45594000000E+02  0.51100000000E-03 0.  1.
         11   -1    0    0    0    0 -0.00000000000E+00 -0.00000000000E+00 -0.45593999997E+02  0.45594000000E+02  0.51100000000E-03 0. -1.
    9900012    2    1    2    0    0 -0.60151552091E+01  0.13053572664E+02  0.12004369806E+02  0.72461474803E+02  0.69999875605E+02 0.  0.
         12    1    1    2    0    0  0.60151552091E+01 -0.13053572664E+02 -0.12004369806E+02  0.18726525197E+02  0.00000000000E+00 0. -1.
         11    1    3    3    0    0 -0.17504521642E+02  0.19052657058E+02  0.63555672360E+01  0.26642170596E+02  0.51100000000E-03 0. -1.
        -11    1    3    3    0    0  0.19581010435E+02  0.56935695901E+01 -0.11603609042E+02  0.23462234492E+02  0.51100000000E-03 0.  1.
        -12    1    3    3    0    0 -0.80916440017E+01 -0.11692653984E+02  0.17252411612E+02  0.22357069715E+02  0.00000000000E+00 0.  1.
</event>
<event>
 7    1  0.1333056E-013  0.7246155E+02  0.7816164E-02  0.1226708E+00
        -11   -1    0    0    0    0  0.00000000000E+00  0.00000000000E+00  0.45593999997E+02  0.45594000000E+02  0.51100000000E-03 0. -1.
         11   -1    0    0    0    0 -0.00000000000E+00 -0.00000000000E+00 -0.45593999997E+02  0.45594000000E+02  0.51100000000E-03 0.  1.
    9900012    2    1    2    0    0 -0.21223656368E+01  0.16136037155E+02 -0.92630430311E+01  0.72461545526E+02  0.69999967735E+02 0.  0.
         12    1    1    2    0    0  0.21223656368E+01 -0.16136037155E+02  0.92630430311E+01  0.18726454474E+02  0.00000000000E+00 0. -1.
         11    1    3    3    0    0 -0.84773457761E+01  0.15087120714E+02 -0.47666508469E+01  0.17950141041E+02  0.51100000000E-03 0. -1.
        -11    1    3    3    0    0  0.20906504953E+02  0.12835595657E+01  0.18067262097E+02  0.27661443101E+02  0.51100000000E-03 0.  1.
        -12    1    3    3    0    0 -0.14551524814E+02 -0.23464312460E+00 -0.22563654281E+02  0.26849961384E+02  0.00000000000E+00 0.  1.
</event>
<event>
 7    1  0.1333056E-013  0.7246152E+02  0.7816164E-02  0.1226708E+00
        -11   -1    0    0    0    0  0.00000000000E+00  0.00000000000E+00  0.45593999997E+02  0.45594000000E+02  0.51100000000E-03 0.  1.
         11   -1    0    0    0    0 -0.00000000000E+00 -0.00000000000E+00 -0.45593999997E+02  0.45594000000E+02  0.51100000000E-03 0. -1.
    9900012    2    1    2    0    0 -0.92625490660E+01  0.14940680900E+02 -0.64546321805E+01  0.72461520418E+02  0.69999935026E+02 0.  0.
         12    1    1    2    0    0  0.92625490660E+01 -0.14940680900E+02  0.64546321805E+01  0.18726479582E+02  0.00000000000E+00 0. -1.
         11    1    3    3    0    0 -0.15867368599E+02  0.15580631765E+02 -0.16712666801E+02  0.27818028404E+02  0.51100000000E-03 0. -1.
        -11    1    3    3    0    0  0.11855119682E+02  0.79214467076E+01  0.23823937391E+02  0.27764602891E+02  0.51100000000E-03 0.  1.
         12    1    3    3    0    0 -0.52503001491E+01 -0.85613975720E+01 -0.13565902770E+02  0.16878889123E+02  0.00000000000E+00 0. -1.
</event>
<event>
 7    1  0.1333056E-013  0.7246158E+02  0.7816164E-02  0.1226708E+00
        -11   -1    0    0    0    0  0.00000000000E+00  0.00000000000E+00  0.45593999997E+02  0.45594000000E+02  0.51100000000E-03 0.  1.
         11   -1    0    0    0    0 -0.00000000000E+00 -0.00000000000E+00 -0.45593999997E+02  0.45594000000E+02  0.51100000000E-03 0. -1.
    9900012    2    1    2    0    0  0.11389005228E+02  0.37145189731E+01  0.14393458433E+02  0.72461581844E+02  0.70000015046E+02 0.  0.
         12    1    1    2    0    0 -0.11389005228E+02 -0.37145189731E+01 -0.14393458433E+02  0.18726418156E+02  0.00000000000E+00 0. -1.
         11    1    3    3    0    0 -0.21320350747E+02 -0.22414752834E+01  0.22862669739E+01  0.21559419852E+02  0.51100000000E-03 0. -1.
        -11    1    3    3    0    0  0.29293232545E+02  0.19620033797E+02  0.10102597993E+02  0.36675627951E+02  0.51100000000E-03 0.  1.
         12    1    3    3    0    0  0.34161234306E+01 -0.13664039540E+02  0.20045934661E+01  0.14226534041E+02  0.00000000000E+00 0. -1.
</event>
<event>
 7    1  0.1333056E-013  0.7246154E+02  0.7816164E-02  0.1226708E+00
        -11   -1    0    0    0    0  0.00000000000E+00  0.00000000000E+00  0.45593999997E+02  0.45594000000E+02  0.51100000000E-03 0.  1.
         11   -1    0    0    0    0 -0.00000000000E+00 -0.00000000000E+00 -0.45593999997E+02  0.45594000000E+02  0.51100000000E-03 0. -1.
    9900012    2    1    2    0    0 -0.12512860688E+02 -0.36356047057E+00  0.13927545150E+02  0.72461538168E+02  0.69999958150E+02 0.  0.
         12    1    1    2    0    0  0.12512860688E+02  0.36356047057E+00 -0.13927545150E+02  0.18726461832E+02  0.00000000000E+00 0. -1.
         11    1    3    3    0    0 -0.18361659371E+02 -0.20124076599E+02 -0.16485560746E+02  0.31841838942E+02  0.51100000000E-03 0. -1.
        -11    1    3    3    0    0  0.11756286476E+02  0.98705578166E+01  0.18654338682E+02  0.24158280884E+02  0.51100000000E-03 0.  1.
        -12    1    3    3    0    0 -0.59074877939E+01  0.98899583120E+01  0.11758767215E+02  0.16461418343E+02  0.00000000000E+00 0.  1.
</event>
<event>
 7    1  0.1333056E-013  0.7246160E+02  0.7816164E-02  0.1226708E+00
        -11   -1    0    0    0    0  0.00000000000E+00  0.00000000000E+00  0.45593999997E+02  0.45594000000E+02  0.51100000000E-03 0.  1.
         11   -1    0    0    0    0 -0.00000000000E+00 -0.00000000000E+00 -0.45593999997E+02  0.45594000000E+02  0.51100000000E-03 0. -1.
    9900012    2    1    2    0    0 -0.11130388497E+02 -0.42857489562E+01  0.14436931512E+02  0.72461596616E+02  0.70000034289E+02 0.  0.
         12    1    1    2    0    0  0.11130388497E+02  0.42857489562E+01 -0.14436931512E+02  0.18726403384E+02  0.00000000000E+00 0. -1.
         11    1    3    3    0    0 -0.12782454851E+02 -0.71290369587E+01  0.15475537265E+02  0.21300389054E+02  0.51100000000E-03 0.  1.
        -11    1    3    3    0    0  0.11113570352E+01  0.26258305572E+02  0.54856844961E+01  0.26848211498E+02  0.51100000000E-03 0. -1.
        -12    1    3    3    0    0  0.54070931802E+00 -0.23415017570E+02 -0.65242902488E+01  0.24312996064E+02  0.00000000000E+00 0.  1.
</event>
<event>
 7    1  0.1333056E-013  0.7246159E+02  0.7816164E-02  0.1226708E+00
        -11   -1    0    0    0    0  0.00000000000E+00  0.00000000000E+00  0.45593999997E+02  0.45594000000E+02  0.51100000000E-03 0. -1.
         11   -1    0    0    0    0 -0.00000000000E+00 -0.00000000000E+00 -0.45593999997E+02  0.45594000000E+02  0.51100000000E-03 0.  1.
    9900012    2    1    2    0    0  0.70026956712E+01 -0.17343401775E+02  0.92032865035E+00  0.72461592533E+02  0.70000028970E+02 0.  0.
         12    1    1    2    0    0 -0.70026956712E+01  0.17343401775E+02 -0.92032865035E+00  0.18726407467E+02  0.00000000000E+00 0. -1.
         11    1    3    3    0    0  0.58501691273E+01 -0.38281951418E+02  0.37116623164E+01  0.38903839407E+02  0.51100000000E-03 0. -1.
        -11    1    3    3    0    0  0.12980038597E+02  0.15990814145E+02 -0.23502436411E+01  0.20729476222E+02  0.51100000000E-03 0.  1.
        -12    1    3    3    0    0 -0.11827512053E+02  0.49477354974E+01 -0.44109002494E+00  0.12828276904E+02  0.00000000000E+00 0.  1.
</event>
<event>
 7    1  0.1604863E-013  0.7246155E+02  0.7816164E-02  0.1226708E+00
        -11   -1    0    0    0    0  0.00000000000E+00  0.00000000000E+00  0.45593999997E+02  0.45594000000E+02  0.51100000000E-03 0. -1.
         11   -1    0    0    0    0 -0.00000000000E+00 -0.00000000000E+00 -0.45593999997E+02  0.45594000000E+02  0.51100000000E-03 0.  1.
    9900012    2    1    2    0    0 -0.93033891965E+01 -0.15717259003E+01 -0.16175804285E+02  0.72461547664E+02  0.69999970520E+02 0.  0.
         12    1    1    2    0    0  0.93033891965E+01  0.15717259003E+01  0.16175804285E+02  0.18726452336E+02  0.00000000000E+00 0. -1.
         11    1    3    3    0    0 -0.89031901055E+01  0.56970157516E+01  0.13999200218E+02  0.17541390753E+02  0.51100000000E-03 0. -1.
        -11    1    3    3    0    0 -0.20786860917E+02 -0.12326231939E+02 -0.20933083829E+02  0.31972231381E+02  0.51100000000E-03 0.  1.
        -12    1    3    3    0    0  0.20386661826E+02  0.50574902870E+01 -0.92419206735E+01  0.22947925530E+02  0.00000000000E+00 0.  1.
</event>
<event>
 7    1  0.1333056E-013  0.7246155E+02  0.7816164E-02  0.1226708E+00
        -11   -1    0    0    0    0  0.00000000000E+00  0.00000000000E+00  0.45593999997E+02  0.45594000000E+02  0.51100000000E-03 0.  1.
         11   -1    0    0    0    0 -0.00000000000E+00 -0.00000000000E+00 -0.45593999997E+02  0.45594000000E+02  0.51100000000E-03 0. -1.
    9900012    2    1    2    0    0 -0.18254031301E+02  0.39888930789E+01  0.12486099791E+01  0.72461549359E+02  0.69999972728E+02 0.  0.
         12    1    1    2    0    0  0.18254031301E+02 -0.39888930789E+01 -0.12486099791E+01  0.18726450641E+02  0.00000000000E+00 0. -1.
         11    1    3    3    0    0  0.17146326914E+02 -0.12993224896E+02  0.10173746752E+02  0.23797595321E+02  0.51100000000E-03 0. -1.
        -11    1    3    3    0    0 -0.16566684236E+02  0.62731804210E+01  0.96086185104E+01  0.20152750907E+02  0.51100000000E-03 0.  1.
         12    1    3    3    0    0 -0.18833673979E+02  0.10708937554E+02 -0.18533755283E+02  0.28511203131E+02  0.00000000000E+00 0. -1.
</event>
<event>
 8    1  0.1333056E-013  0.7246188E+02  0.7816164E-02  0.1226707E+00
        -11   -1    0    0    0    0  0.00000000000E+00  0.00000000000E+00  0.45593999997E+02  0.45594000000E+02  0.51100000000E-03 0. -1.
         11   -1    0    0    0    0 -0.00000000000E+00 -0.00000000000E+00 -0.45593999997E+02  0.45594000000E+02  0.51100000000E-03 0.  1.
    9900012    2    1    2    0    0  0.49482438797E+01  0.16856337874E+02 -0.64843183796E+01  0.72461878435E+02  0.70000401410E+02 0.  0.
        -24    2    3    3    0    0  0.12442723043E+02  0.24592169021E+00 -0.39254897198E+01  0.54060227747E+02  0.52461575656E+02 0.  0.
         12    1    1    2    0    0 -0.49482438797E+01 -0.16856337874E+02  0.64843183796E+01  0.18726121565E+02  0.00000000000E+00 0. -1.
         11    1    4    4    0    0 -0.11805677005E+02 -0.17024415879E+02  0.76985089545E+01  0.22101397828E+02  0.51100000000E-03 0. -1.
        -11    1    3    3    0    0 -0.74944791629E+01  0.16610416183E+02 -0.25588286598E+01  0.18401650689E+02  0.51100000000E-03 0.  1.
        -12    1    4    4    0    0  0.24248400047E+02  0.17270337569E+02 -0.11623998674E+02  0.31958829919E+02  0.00000000000E+00 0.  1.
</event>
<event>
 7    1  0.1333056E-013  0.7246148E+02  0.7816164E-02  0.1226708E+00
        -11   -1    0    0    0    0  0.00000000000E+00  0.00000000000E+00  0.45593999997E+02  0.45594000000E+02  0.51100000000E-03 0.  1.
         11   -1    0    0    0    0 -0.00000000000E+00 -0.00000000000E+00 -0.45593999997E+02  0.45594000000E+02  0.51100000000E-03 0. -1.
    9900012    2    1    2    0    0  0.97926394132E+01 -0.63132554741E+01  0.14660471732E+02  0.72461483699E+02  0.69999887194E+02 0.  0.
         12    1    1    2    0    0 -0.97926394132E+01  0.63132554741E+01 -0.14660471732E+02  0.18726516301E+02  0.00000000000E+00 0. -1.
         11    1    3    3    0    0 -0.41285365240E+01 -0.17069441062E+02  0.21300008185E+01  0.17690323223E+02  0.51100000000E-03 0. -1.
        -11    1    3    3    0    0  0.36163586083E+01  0.22013315831E+02 -0.12412944640E+02  0.25529303131E+02  0.51100000000E-03 0.  1.
        -12    1    3    3    0    0  0.10304817329E+02 -0.11257130244E+02  0.24943415554E+02  0.29241857345E+02  0.00000000000E+00 0.  1.
</event>
<event>
 8    1  0.1333056E-013  0.7246156E+02  0.7816164E-02  0.1226708E+00
        -11   -1    0    0    0    0  0.00000000000E+00  0.00000000000E+00  0.45593999997E+02  0.45594000000E+02  0.51100000000E-03 0.  1.
         11   -1    0    0    0    0 -0.00000000000E+00 -0.00000000000E+00 -0.45593999997E+02  0.45594000000E+02  0.51100000000E-03 0. -1.
    9900012    2    1    2    0    0 -0.11330446445E+02  0.92343228192E+01  0.11705883586E+02  0.72461562936E+02  0.69999990415E+02 0.  0.
         24    2    3    3    0    0 -0.10516385682E+02  0.23105829061E+02  0.10746147405E+02  0.58533085843E+02  0.51634956666E+02 0.  0.
         12    1    1    2    0    0  0.11330446445E+02 -0.92343228192E+01 -0.11705883586E+02  0.18726437064E+02  0.00000000000E+00 0. -1.
         11    1    3    3    0    0 -0.81406076373E+00 -0.13871506242E+02  0.95973618063E+00  0.13928477093E+02  0.51100000000E-03 0. -1.
        -11    1    4    4    0    0 -0.15959151566E+02  0.32284723204E+02 -0.80650439889E+01  0.36905864112E+02  0.51100000000E-03 0.  1.
         12    1    4    4    0    0  0.54427658839E+01 -0.91788941429E+01  0.18811191394E+02  0.21627221731E+02  0.00000000000E+00 0. -1.
</event>
<event>
 7    1  0.1333056E-013  0.7246159E+02  0.7816164E-02  0.1226708E+00
        -11   -1    0    0    0    0  0.00000000000E+00  0.00000000000E+00  0.45593999997E+02  0.45594000000E+02  0.51100000000E-03 0.  1.
         11   -1    0    0    0    0 -0.00000000000E+00 -0.00000000000E+00 -0.45593999997E+02  0.45594000000E+02  0.51100000000E-03 0. -1.
    9900012    2    1    2    0    0  0.49624867029E+01 -0.15551937090E+02  0.91754721855E+01  0.72461593208E+02  0.70000029849E+02 0.  0.
         12    1    1    2    0    0 -0.49624867029E+01  0.15551937090E+02 -0.91754721855E+01  0.18726406792E+02  0.00000000000E+00 0. -1.
         11    1    3    3    0    0  0.18044476758E+02 -0.17454222622E+02  0.83310435066E+01  0.26451073985E+02  0.51100000000E-03 0.  1.
        -11    1    3    3    0    0 -0.15349422860E+02 -0.42205384264E+01 -0.19193267058E+02  0.24935902377E+02  0.51100000000E-03 0. -1.
        -12    1    3    3    0    0  0.22674328053E+01  0.61228239583E+01  0.20037695737E+02  0.21074616846E+02  0.00000000000E+00 0.  1.
</event>
<event>
 7    1  0.1333056E-013  0.7246157E+02  0.7816164E-02  0.1226708E+00
        -11   -1    0    0    0    0  0.00000000000E+00  0.00000000000E+00  0.45593999997E+02  0.45594000000E+02  0.51100000000E-03 0.  1.
         11   -1    0    0    0    0 -0.00000000000E+00 -0.00000000000E+00 -0.45593999997E+02  0.45594000000E+02  0.51100000000E-03 0. -1.
    9900012    2    1    2    0    0 -0.91599754054E+01 -0.95070512289E+01  0.13281183220E+02  0.72461574814E+02  0.70000005888E+02 0.  0.
         12    1    1    2    0    0  0.91599754054E+01  0.95070512289E+01 -0.13281183220E+02  0.18726425186E+02  0.00000000000E+00 0. -1.
         11    1    3    3    0    0  0.17476067572E+02 -0.69507922366E+01  0.32466799778E+02  0.37520921345E+02  0.51100000000E-03 0. -1.
        -11    1    3    3    0    0 -0.79073388273E+01 -0.55278929568E+01 -0.32801957831E+01  0.10190352914E+02  0.51100000000E-03 0.  1.
         12    1    3    3    0    0 -0.18728704151E+02  0.29716339645E+01 -0.15905420774E+02  0.24750300555E+02  0.00000000000E+00 0. -1.
</event>
<event>
 7    1  0.1333056E-013  0.7246152E+02  0.7816164E-02  0.1226708E+00
        -11   -1    0    0    0    0  0.00000000000E+00  0.00000000000E+00  0.45593999997E+02  0.45594000000E+02  0.51100000000E-03 0. -1.
         11   -1    0    0    0    0 -0.00000000000E+00 -0.00000000000E+00 -0.45593999997E+02  0.45594000000E+02  0.51100000000E-03 0.  1.
    9900012    2    1    2    0    0  0.18277998645E+02 -0.35986293974E+01  0.19093527386E+01  0.72461521530E+02  0.69999936475E+02 0.  0.
         12    1    1    2    0    0 -0.18277998645E+02  0.35986293974E+01 -0.19093527386E+01  0.18726478470E+02  0.00000000000E+00 0. -1.
         11    1    3    3    0    0  0.50393441309E+01 -0.15161060582E+02  0.32379451902E+02  0.36106531999E+02  0.51100000000E-03 0. -1.
        -11    1    3    3    0    0  0.97716937450E+01  0.72828111909E+01 -0.12086933987E+02  0.17164478173E+02  0.51100000000E-03 0.  1.
         12    1    3    3    0    0  0.34669607692E+01  0.42796199938E+01 -0.18383165177E+02  0.19190511358E+02  0.00000000000E+00 0. -1.
</event>
<event>
 7    1  0.1333056E-013  0.7246157E+02  0.7816164E-02  0.1226708E+00
        -11   -1    0    0    0    0  0.00000000000E+00  0.00000000000E+00  0.45593999997E+02  0.45594000000E+02  0.51100000000E-03 0.  1.
         11   -1    0    0    0    0 -0.00000000000E+00 -0.00000000000E+00 -0.45593999997E+02  0.45594000000E+02  0.51100000000E-03 0. -1.
    9900012    2    1    2    0    0 -0.15508947386E+02 -0.13687829746E+01  0.10405673173E+02  0.72461573485E+02  0.70000004156E+02 0.  0.
         12    1    1    2    0    0  0.15508947386E+02  0.13687829746E+01 -0.10405673173E+02  0.18726426515E+02  0.00000000000E+00 0. -1.
         11    1    3    3    0    0  0.23300811258E+02 -0.89879378022E+01 -0.16606807906E+01  0.25029356607E+02  0.51100000000E-03 0. -1.
        -11    1    3    3    0    0 -0.23087802513E+02  0.15700901789E+02  0.98932315625E+01  0.29621630153E+02  0.51100000000E-03 0.  1.
         12    1    3    3    0    0 -0.15721956131E+02 -0.80817469618E+01  0.21731224009E+01  0.17810586725E+02  0.00000000000E+00 0. -1.
</event>
<event>
 7    1  0.1333056E-013  0.7246157E+02  0.7816164E-02  0.1226708E+00
        -11   -1    0    0    0    0  0.00000000000E+00  0.00000000000E+00  0.45593999997E+02  0.45594000000E+02  0.51100000000E-03 0.  1.
         11   -1    0    0    0    0 -0.00000000000E+00 -0.00000000000E+00 -0.45593999997E+02  0.45594000000E+02  0.51100000000E-03 0. -1.
    9900012    2    1    2    0    0  0.12194529877E+02 -0.13254173765E+02 -0.51282904405E+01  0.72461573647E+02  0.70000004367E+02 0.  0.
         12    1    1    2    0    0 -0.12194529877E+02  0.13254173765E+02  0.51282904405E+01  0.18726426353E+02  0.00000000000E+00 0. -1.
         11    1    3    3    0    0  0.22615161352E+02 -0.14446013447E+02 -0.31154697875E+01  0.27015532194E+02  0.51100000000E-03 0.  1.
        -11    1    3    3    0    0 -0.22368523888E+02  0.61846849131E+00 -0.15649628852E+02  0.27306487282E+02  0.51100000000E-03 0. -1.
         12    1    3    3    0    0  0.11947892413E+02  0.57337119083E+00  0.13636808199E+02  0.18139554170E+02  0.00000000000E+00 0. -1.
</event>
<event>
 7    1  0.1333056E-013  0.7246159E+02  0.7816164E-02  0.1226708E+00
        -11   -1    0    0    0    0  0.00000000000E+00  0.00000000000E+00  0.45593999997E+02  0.45594000000E+02  0.51100000000E-03 0.  1.
         11   -1    0    0    0    0 -0.00000000000E+00 -0.00000000000E+00 -0.45593999997E+02  0.45594000000E+02  0.51100000000E-03 0. -1.
    9900012    2    1    2    0    0  0.33667415915E+01 -0.11039197089E+02  0.14747191837E+02  0.72461588481E+02  0.70000023691E+02 0.  0.
         12    1    1    2    0    0 -0.33667415915E+01  0.11039197089E+02 -0.14747191837E+02  0.18726411519E+02  0.00000000000E+00 0. -1.
         11    1    3    3    0    0 -0.47168362525E+00  0.14340942068E+02 -0.33619444775E+01  0.14737292009E+02  0.51100000000E-03 0. -1.
        -11    1    3    3    0    0 -0.12992176399E+01 -0.38651953478E+02  0.62007384922E+01  0.39167724369E+02  0.51100000000E-03 0.  1.
        -12    1    3    3    0    0  0.51376428566E+01  0.13271814321E+02  0.11908397822E+02  0.18556572102E+02  0.00000000000E+00 0.  1.
</event>
<event>
 7    1  0.1333056E-013  0.7246156E+02  0.7816164E-02  0.1226708E+00
        -11   -1    0    0    0    0  0.00000000000E+00  0.00000000000E+00  0.45593999997E+02  0.45594000000E+02  0.51100000000E-03 0.  1.
         11   -1    0    0    0    0 -0.00000000000E+00 -0.00000000000E+00 -0.45593999997E+02  0.45594000000E+02  0.51100000000E-03 0. -1.
    9900012    2    1    2    0    0  0.13631273727E+02  0.11793094234E+02  0.50784524272E+01  0.72461564832E+02  0.69999992885E+02 0.  0.
         12    1    1    2    0    0 -0.13631273727E+02 -0.11793094234E+02 -0.50784524272E+01  0.18726435168E+02  0.00000000000E+00 0. -1.
         11    1    3    3    0    0  0.28533334237E+01 -0.14479245220E+02  0.95559276241E+01  0.17581405142E+02  0.51100000000E-03 0. -1.
        -11    1    3    3    0    0 -0.37415506705E+01  0.35450467576E+02  0.37317597778E+01  0.35842166286E+02  0.51100000000E-03 0.  1.
        -12    1    3    3    0    0  0.14519490974E+02 -0.91781281226E+01 -0.82092349748E+01  0.19037993404E+02  0.00000000000E+00 0.  1.
</event>
<event>
 7    1  0.1333056E-013  0.7246155E+02  0.7816164E-02  0.1226708E+00
        -11   -1    0    0    0    0  0.00000000000E+00  0.00000000000E+00  0.45593999997E+02  0.45594000000E+02  0.51100000000E-03 0.  1.
         11   -1    0    0    0    0 -0.00000000000E+00 -0.00000000000E+00 -0.45593999997E+02  0.45594000000E+02  0.51100000000E-03 0. -1.
    9900012    2    1    2    0    0 -0.20736438783E+01 -0.14002007928E+02  0.12260650463E+02  0.72461554135E+02  0.69999978950E+02 0.  0.
         12    1    1    2    0    0  0.20736438783E+01  0.14002007928E+02 -0.12260650463E+02  0.18726445865E+02  0.00000000000E+00 0. -1.
         11    1    3    3    0    0 -0.80550859545E+01 -0.20291238046E+02  0.14469823998E+02  0.26191497819E+02  0.51100000000E-03 0. -1.
        -11    1    3    3    0    0  0.15376547795E+02  0.72919154519E+01 -0.19918154114E+02  0.26198151015E+02  0.51100000000E-03 0.  1.
         12    1    3    3    0    0 -0.93951057185E+01 -0.10026853341E+01  0.17708980578E+02  0.20071905302E+02  0.00000000000E+00 0. -1.
</event>
<event>
 7    1  0.1333056E-013  0.7246155E+02  0.7816164E-02  0.1226708E+00
        -11   -1    0    0    0    0  0.00000000000E+00  0.00000000000E+00  0.45593999997E+02  0.45594000000E+02  0.51100000000E-03 0.  1.
         11   -1    0    0    0    0 -0.00000000000E+00 -0.00000000000E+00 -0.45593999997E+02  0.45594000000E+02  0.51100000000E-03 0. -1.
    9900012    2    1    2    0    0  0.83785586085E+01  0.14802017942E+02  0.78345327138E+01  0.72461551262E+02  0.69999975207E+02 0.  0.
         12    1    1    2    0    0 -0.83785586085E+01 -0.14802017942E+02 -0.78345327138E+01  0.18726448738E+02  0.00000000000E+00 0. -1.
         11    1    3    3    0    0  0.62801657442E+01 -0.24613604836E+01 -0.11338184802E+02  0.13192922802E+02  0.51100000000E-03 0. -1.
        -11    1    3    3    0    0 -0.69325081442E+01  0.16903414673E+02  0.35885500568E+02  0.40268526768E+02  0.51100000000E-03 0.  1.
        -12    1    3    3    0    0  0.90309010085E+01  0.35996375205E+00 -0.16712783053E+02  0.19000101692E+02  0.00000000000E+00 0.  1.
</event>
<event>
 7    1  0.1333056E-013  0.7246158E+02  0.7816164E-02  0.1226708E+00
        -11   -1    0    0    0    0  0.00000000000E+00  0.00000000000E+00  0.45593999997E+02  0.45594000000E+02  0.51100000000E-03 0.  1.
         11   -1    0    0    0    0 -0.00000000000E+00 -0.00000000000E+00 -0.45593999997E+02  0.45594000000E+02  0.51100000000E-03 0. -1.
    9900012    2    1    2    0    0 -0.62227361919E+01 -0.13794910545E+02  0.11029821954E+02  0.72461575489E+02  0.70000006767E+02 0.  0.
         12    1    1    2    0    0  0.62227361919E+01  0.13794910545E+02 -0.11029821954E+02  0.18726424511E+02  0.00000000000E+00 0. -1.
         11    1    3    3    0    0 -0.13474613768E+02  0.12813966457E+02 -0.11918692399E+02  0.22086606379E+02  0.51100000000E-03 0.  1.
        -11    1    3    3    0    0  0.63496546916E+01 -0.33622045264E+02  0.10043848296E+02  0.35660046709E+02  0.51100000000E-03 0. -1.
        -12    1    3    3    0    0  0.90222288474E+00  0.70131682627E+01  0.12904666057E+02  0.14714922401E+02  0.00000000000E+00 0.  1.
</event>
<event>
 7    1  0.1333056E-013  0.7246158E+02  0.7816164E-02  0.1226708E+00
        -11   -1    0    0    0    0  0.00000000000E+00  0.00000000000E+00  0.45593999997E+02  0.45594000000E+02  0.51100000000E-03 0. -1.
         11   -1    0    0    0    0 -0.00000000000E+00 -0.00000000000E+00 -0.45593999997E+02  0.45594000000E+02  0.51100000000E-03 0.  1.
    9900012    2    1    2    0    0  0.12031038391E+02  0.11653764727E+02 -0.83739341464E+01  0.72461577753E+02  0.70000009717E+02 0.  0.
         12    1    1    2    0    0 -0.12031038391E+02 -0.11653764727E+02  0.83739341464E+01  0.18726422247E+02  0.00000000000E+00 0. -1.
         11    1    3    3    0    0  0.15427623713E+02 -0.17161480574E+02 -0.41306931367E+01  0.23443349056E+02  0.51100000000E-03 0. -1.
        -11    1    3    3    0    0  0.13663393669E+02  0.28333468546E+02 -0.10143161073E+00  0.31456065473E+02  0.51100000000E-03 0.  1.
         12    1    3    3    0    0 -0.17059978991E+02  0.48177675454E+00 -0.41418093989E+01  0.17562163224E+02  0.00000000000E+00 0. -1.
</event>
<event>
 7    1  0.1333056E-013  0.7246158E+02  0.7816164E-02  0.1226708E+00
        -11   -1    0    0    0    0  0.00000000000E+00  0.00000000000E+00  0.45593999997E+02  0.45594000000E+02  0.51100000000E-03 0.  1.
         11   -1    0    0    0    0 -0.00000000000E+00 -0.00000000000E+00 -0.45593999997E+02  0.45594000000E+02  0.51100000000E-03 0. -1.
    9900012    2    1    2    0    0 -0.63841427832E+01  0.14968253431E+02  0.92667636698E+01  0.72461580194E+02  0.70000012896E+02 0.  0.
         12    1    1    2    0    0  0.63841427832E+01 -0.14968253431E+02 -0.92667636698E+01  0.18726419806E+02  0.00000000000E+00 0. -1.
         11    1    3    3    0    0  0.11892485920E+02  0.21532857800E+02 -0.41080800108E+01  0.24939356608E+02  0.51100000000E-03 0. -1.
        -11    1    3    3    0    0 -0.13619837625E+02 -0.13882104282E+01  0.28086832945E+02  0.31245756356E+02  0.51100000000E-03 0.  1.
         12    1    3    3    0    0 -0.46567910788E+01 -0.51763939405E+01 -0.14711989264E+02  0.16276467230E+02  0.00000000000E+00 0. -1.
</event>
<event>
 7    1  0.1333056E-013  0.7246164E+02  0.7816164E-02  0.1226708E+00
        -11   -1    0    0    0    0  0.00000000000E+00  0.00000000000E+00  0.45593999997E+02  0.45594000000E+02  0.51100000000E-03 0. -1.
         11   -1    0    0    0    0 -0.00000000000E+00 -0.00000000000E+00 -0.45593999997E+02  0.45594000000E+02  0.51100000000E-03 0.  1.
    9900012    2    1    2    0    0 -0.25450521893E+01 -0.16490456767E+02  0.85008197811E+01  0.72461644456E+02  0.70000096609E+02 0.  0.
         12    1    1    2    0    0  0.25450521893E+01  0.16490456767E+02 -0.85008197811E+01  0.18726355544E+02  0.00000000000E+00 0. -1.
         11    1    3    3    0    0  0.14293635238E+01 -0.13375713747E+02  0.10725242193E+02  0.17204174455E+02  0.51100000000E-03 0. -1.
        -11    1    3    3    0    0 -0.19544751477E+02  0.19587764736E+02 -0.17126290633E+01  0.27723833361E+02  0.51100000000E-03 0.  1.
        -12    1    3    3    0    0  0.15570335764E+02 -0.22702507755E+02 -0.51179334807E+00  0.27533636640E+02  0.00000000000E+00 0.  1.
</event>
<event>
 7    1  0.1333056E-013  0.7246152E+02  0.7816164E-02  0.1226708E+00
        -11   -1    0    0    0    0  0.00000000000E+00  0.00000000000E+00  0.45593999997E+02  0.45594000000E+02  0.51100000000E-03 0. -1.
         11   -1    0    0    0    0 -0.00000000000E+00 -0.00000000000E+00 -0.45593999997E+02  0.45594000000E+02  0.51100000000E-03 0.  1.
    9900012    2    1    2    0    0  0.15369335045E+02 -0.10566069007E+02  0.16800652032E+01  0.72461524275E+02  0.69999940051E+02 0.  0.
         12    1    1    2    0    0 -0.15369335045E+02  0.10566069007E+02 -0.16800652032E+01  0.18726475725E+02  0.00000000000E+00 0. -1.
         11    1    3    3    0    0 -0.61071677673E-01  0.25409051314E+02  0.12891545306E+02  0.28492377210E+02  0.51100000000E-03 0. -1.
        -11    1    3    3    0    0  0.64233369111E+01 -0.19225577969E+02 -0.14157158765E+02  0.24724628407E+02  0.51100000000E-03 0.  1.
         12    1    3    3    0    0  0.90070698115E+01 -0.16749542352E+02  0.29456786620E+01  0.19244518658E+02  0.00000000000E+00 0. -1.
</event>
<event>
 7    1  0.1333056E-013  0.7246155E+02  0.7816164E-02  0.1226708E+00
        -11   -1    0    0    0    0  0.00000000000E+00  0.00000000000E+00  0.45593999997E+02  0.45594000000E+02  0.51100000000E-03 0.  1.
         11   -1    0    0    0    0 -0.00000000000E+00 -0.00000000000E+00 -0.45593999997E+02  0.45594000000E+02  0.51100000000E-03 0. -1.
    9900012    2    1    2    0    0 -0.18489911503E+02  0.28875065313E+01  0.68218682101E+00  0.72461550785E+02  0.69999974586E+02 0.  0.
         12    1    1    2    0    0  0.18489911503E+02 -0.28875065313E+01 -0.68218682101E+00  0.18726449215E+02  0.00000000000E+00 0. -1.
         11    1    3    3    0    0  0.15949704305E+02 -0.12965765205E+02  0.11995339733E+02  0.23798998095E+02  0.51100000000E-03 0.  1.
        -11    1    3    3    0    0 -0.15902276389E+02  0.17774592358E+02 -0.16872127303E+02  0.29214503381E+02  0.51100000000E-03 0. -1.
        -12    1    3    3    0    0 -0.18537339418E+02 -0.19213206214E+01  0.55589743910E+01  0.19448049309E+02  0.00000000000E+00 0.  1.
</event>
<event>
 7    1  0.1333056E-013  0.7246156E+02  0.7816164E-02  0.1226708E+00
        -11   -1    0    0    0    0  0.00000000000E+00  0.00000000000E+00  0.45593999997E+02  0.45594000000E+02  0.51100000000E-03 0.  1.
         11   -1    0    0    0    0 -0.00000000000E+00 -0.00000000000E+00 -0.45593999997E+02  0.45594000000E+02  0.51100000000E-03 0. -1.
    9900012    2    1    2    0    0  0.15492033355E+02  0.97817200232E+01  0.38722829303E+01  0.72461555619E+02  0.69999980882E+02 0.  0.
         12    1    1    2    0    0 -0.15492033355E+02 -0.97817200232E+01 -0.38722829303E+01  0.18726444381E+02  0.00000000000E+00 0. -1.
         11    1    3    3    0    0 -0.66001713918E+01  0.27919694676E+02  0.15544220073E+02  0.32629655088E+02  0.51100000000E-03 0.  1.
        -11    1    3    3    0    0  0.23503903387E+02 -0.10599166193E+02 -0.16646492821E+02  0.30690088333E+02  0.51100000000E-03 0. -1.
         12    1    3    3    0    0 -0.14116986405E+01 -0.75388084606E+01  0.49745556784E+01  0.91418121975E+01  0.00000000000E+00 0. -1.
</event>
<event>
 7    1  0.1333056E-013  0.7246156E+02  0.7816164E-02  0.1226708E+00
        -11   -1    0    0    0    0  0.00000000000E+00  0.00000000000E+00  0.45593999997E+02  0.45594000000E+02  0.51100000000E-03 0.  1.
         11   -1    0    0    0    0 -0.00000000000E+00 -0.00000000000E+00 -0.45593999997E+02  0.45594000000E+02  0.51100000000E-03 0. -1.
    9900012    2    1    2    0    0  0.14998627235E+01 -0.40819790729E+01  0.18214479667E+02  0.72461563849E+02  0.69999991604E+02 0.  0.
         12    1    1    2    0    0 -0.14998627235E+01  0.40819790729E+01 -0.18214479667E+02  0.18726436151E+02  0.00000000000E+00 0. -1.
         11    1    3    3    0    0 -0.63677559008E+01  0.13821055431E+02 -0.78346084741E+01  0.17115810780E+02  0.51100000000E-03 0. -1.
        -11    1    3    3    0    0 -0.15504002375E+02 -0.19569065949E+02  0.17114017969E+02  0.30268994748E+02  0.51100000000E-03 0.  1.
        -12    1    3    3    0    0  0.23371621000E+02  0.16660314442E+01  0.89350701731E+01  0.25076758322E+02  0.00000000000E+00 0.  1.
</event>
<event>
 7    1  0.1333056E-013  0.7246158E+02  0.7816164E-02  0.1226708E+00
        -11   -1    0    0    0    0  0.00000000000E+00  0.00000000000E+00  0.45593999997E+02  0.45594000000E+02  0.51100000000E-03 0.  1.
         11   -1    0    0    0    0 -0.00000000000E+00 -0.00000000000E+00 -0.45593999997E+02  0.45594000000E+02  0.51100000000E-03 0. -1.
    9900012    2    1    2    0    0  0.53179251978E+01  0.94549423538E+01  0.15264415063E+02  0.72461584685E+02  0.70000018747E+02 0.  0.
         12    1    1    2    0    0 -0.53179251978E+01 -0.94549423538E+01 -0.15264415063E+02  0.18726415315E+02  0.00000000000E+00 0. -1.
         11    1    3    3    0    0  0.23223548026E+02  0.22443758833E+02  0.20457902952E+02  0.38230632834E+02  0.51100000000E-03 0.  1.
        -11    1    3    3    0    0 -0.16448447576E+02 -0.72853535441E+01 -0.14576737108E+02  0.23154029215E+02  0.51100000000E-03 0. -1.
        -12    1    3    3    0    0 -0.14571752518E+01 -0.57034629347E+01  0.93832492194E+01  0.11076922636E+02  0.00000000000E+00 0.  1.
</event>
<event>
 7    1  0.1333056E-013  0.7246159E+02  0.7816164E-02  0.1226708E+00
        -11   -1    0    0    0    0  0.00000000000E+00  0.00000000000E+00  0.45593999997E+02  0.45594000000E+02  0.51100000000E-03 0. -1.
         11   -1    0    0    0    0 -0.00000000000E+00 -0.00000000000E+00 -0.45593999997E+02  0.45594000000E+02  0.51100000000E-03 0.  1.
    9900012    2    1    2    0    0 -0.10813134994E+02 -0.68815900200E+01 -0.13652769744E+02  0.72461593744E+02  0.70000030548E+02 0.  0.
         12    1    1    2    0    0  0.10813134994E+02  0.68815900200E+01  0.13652769744E+02  0.18726406256E+02  0.00000000000E+00 0. -1.
         11    1    3    3    0    0  0.67470504395E+01 -0.17189844609E+02  0.10701918776E+02  0.21343488775E+02  0.51100000000E-03 0. -1.
        -11    1    3    3    0    0  0.35643912284E+01  0.47414251604E+01 -0.28303427300E+02  0.28918333192E+02  0.51100000000E-03 0.  1.
         12    1    3    3    0    0 -0.21124576662E+02  0.55668294287E+01  0.39487387804E+01  0.22199771777E+02  0.00000000000E+00 0. -1.
</event>
<event>
 7    1  0.1581780E-013  0.7246154E+02  0.7816164E-02  0.1226708E+00
        -11   -1    0    0    0    0  0.00000000000E+00  0.00000000000E+00  0.45593999997E+02  0.45594000000E+02  0.51100000000E-03 0.  1.
         11   -1    0    0    0    0 -0.00000000000E+00 -0.00000000000E+00 -0.45593999997E+02  0.45594000000E+02  0.51100000000E-03 0. -1.
    9900012    2    1    2    0    0  0.10333308702E+02  0.12014731323E+02  0.99774403008E+01  0.72461538710E+02  0.69999958855E+02 0.  0.
         12    1    1    2    0    0 -0.10333308702E+02 -0.12014731323E+02 -0.99774403008E+01  0.18726461290E+02  0.00000000000E+00 0. -1.
         11    1    3    3    0    0 -0.18351209255E+02  0.81639780043E+01 -0.11104096029E+02  0.22950345681E+02  0.51100000000E-03 0. -1.
        -11    1    3    3    0    0  0.80213035815E+01  0.31851631313E+01  0.26722380436E+02  0.28081527589E+02  0.51100000000E-03 0.  1.
        -12    1    3    3    0    0  0.20663214376E+02  0.66559018745E+00 -0.56408441065E+01  0.21429665440E+02  0.00000000000E+00 0.  1.
</event>
<event>
 7    1  0.1333056E-013  0.7246174E+02  0.7816164E-02  0.1226708E+00
        -11   -1    0    0    0    0  0.00000000000E+00  0.00000000000E+00  0.45593999997E+02  0.45594000000E+02  0.51100000000E-03 0. -1.
         11   -1    0    0    0    0 -0.00000000000E+00 -0.00000000000E+00 -0.45593999997E+02  0.45594000000E+02  0.51100000000E-03 0.  1.
    9900012    2    1    2    0    0  0.84082237631E+01  0.16648901352E+02  0.16699589093E+01  0.72461737536E+02  0.70000217864E+02 0.  0.
         12    1    1    2    0    0 -0.84082237631E+01 -0.16648901352E+02 -0.16699589093E+01  0.18726262464E+02  0.00000000000E+00 0. -1.
         11    1    3    3    0    0 -0.21905792928E+02  0.16379210311E+02  0.81473979830E+01  0.28539838619E+02  0.51100000000E-03 0. -1.
        -11    1    3    3    0    0  0.32828875730E+02 -0.73840925438E+01 -0.10037132780E+02  0.35114155822E+02  0.51100000000E-03 0.  1.
         12    1    3    3    0    0 -0.25148590389E+01  0.76537835853E+01  0.35596937066E+01  0.88077430957E+01  0.00000000000E+00 0. -1.
</event>
<event>
 7    1  0.1333056E-013  0.7246155E+02  0.7816164E-02  0.1226708E+00
        -11   -1    0    0    0    0  0.00000000000E+00  0.00000000000E+00  0.45593999997E+02  0.45594000000E+02  0.51100000000E-03 0. -1.
         11   -1    0    0    0    0 -0.00000000000E+00 -0.00000000000E+00 -0.45593999997E+02  0.45594000000E+02  0.51100000000E-03 0.  1.
    9900012    2    1    2    0    0 -0.62242520041E+00 -0.63449249423E+01 -0.17607799090E+02  0.72461546132E+02  0.69999968525E+02 0.  0.
         12    1    1    2    0    0  0.62242520041E+00  0.63449249423E+01  0.17607799090E+02  0.18726453868E+02  0.00000000000E+00 0. -1.
         11    1    3    3    0    0 -0.79066684444E+01 -0.31048601195E+02 -0.15825936708E+02  0.35735015251E+02  0.51100000000E-03 0. -1.
        -11    1    3    3    0    0 -0.87440574948E+01  0.14570339417E+02  0.27901066759E+01  0.17220279549E+02  0.51100000000E-03 0.  1.
         12    1    3    3    0    0  0.16028300739E+02  0.10133336835E+02 -0.45719690580E+01  0.19506251333E+02  0.00000000000E+00 0. -1.
</event>
<event>
 7    1  0.1333056E-013  0.7246159E+02  0.7816164E-02  0.1226708E+00
        -11   -1    0    0    0    0  0.00000000000E+00  0.00000000000E+00  0.45593999997E+02  0.45594000000E+02  0.51100000000E-03 0. -1.
         11   -1    0    0    0    0 -0.00000000000E+00 -0.00000000000E+00 -0.45593999997E+02  0.45594000000E+02  0.51100000000E-03 0.  1.
    9900012    2    1    2    0    0  0.18047643203E+02  0.11273982559E+01 -0.48672500578E+01  0.72461586165E+02  0.70000020674E+02 0.  0.
         12    1    1    2    0    0 -0.18047643203E+02 -0.11273982559E+01  0.48672500578E+01  0.18726413835E+02  0.00000000000E+00 0. -1.
         11    1    3    3    0    0  0.69440964869E+01 -0.44238416895E+01  0.30370633003E+01  0.87757965487E+01  0.51100000000E-03 0. -1.
        -11    1    3    3    0    0  0.80881951691E+01  0.17248112245E+02 -0.31709091865E+02  0.36991658307E+02  0.51100000000E-03 0.  1.
        -12    1    3    3    0    0  0.30153515468E+01 -0.11696872300E+02  0.23804778507E+02  0.26694131309E+02  0.00000000000E+00 0.  1.
</event>
<event>
 7    1  0.1333056E-013  0.7246096E+02  0.7816164E-02  0.1226710E+00
        -11   -1    0    0    0    0  0.00000000000E+00  0.00000000000E+00  0.45593999997E+02  0.45594000000E+02  0.51100000000E-03 0. -1.
         11   -1    0    0    0    0 -0.00000000000E+00 -0.00000000000E+00 -0.45593999997E+02  0.45594000000E+02  0.51100000000E-03 0.  1.
    9900012    2    1    2    0    0  0.57710020275E+01 -0.17349727512E+02 -0.40477584742E+01  0.72460964522E+02  0.69999210864E+02 0.  0.
         12    1    1    2    0    0 -0.57710020275E+01  0.17349727512E+02  0.40477584742E+01  0.18727035478E+02  0.00000000000E+00 0. -1.
         11    1    3    3    0    0 -0.12058981449E+01  0.14981760776E+02  0.28613916436E+00  0.15032937909E+02  0.51100000000E-03 0. -1.
        -11    1    3    3    0    0  0.59373045151E+01 -0.42091284277E+02 -0.12877180519E+02  0.44415645614E+02  0.51100000000E-03 0.  1.
        -12    1    3    3    0    0  0.10395956572E+01  0.97597959887E+01  0.85432828808E+01  0.13012380999E+02  0.00000000000E+00 0.  1.
</event>
<event>
 7    1  0.1333056E-013  0.7246164E+02  0.7816164E-02  0.1226708E+00
        -11   -1    0    0    0    0  0.00000000000E+00  0.00000000000E+00  0.45593999997E+02  0.45594000000E+02  0.51100000000E-03 0. -1.
         11   -1    0    0    0    0 -0.00000000000E+00 -0.00000000000E+00 -0.45593999997E+02  0.45594000000E+02  0.51100000000E-03 0.  1.
    9900012    2    1    2    0    0 -0.36247072446E+01  0.14713709252E+02 -0.11002031271E+02  0.72461643316E+02  0.70000095124E+02 0.  0.
         12    1    1    2    0    0  0.36247072446E+01 -0.14713709252E+02  0.11002031271E+02  0.18726356684E+02  0.00000000000E+00 0. -1.
         11    1    3    3    0    0 -0.30808956732E+01  0.13153350922E+02  0.25522597075E+02  0.28877422329E+02  0.51100000000E-03 0. -1.
        -11    1    3    3    0    0  0.99284775481E+01  0.19365850320E+01 -0.28915886126E+02  0.30634188397E+02  0.51100000000E-03 0.  1.
        -12    1    3    3    0    0 -0.10472289119E+02 -0.37622670114E+00 -0.76087422200E+01  0.12950032591E+02  0.00000000000E+00 0.  1.
</event>
<event>
 7    1  0.1333056E-013  0.7246151E+02  0.7816164E-02  0.1226708E+00
        -11   -1    0    0    0    0  0.00000000000E+00  0.00000000000E+00  0.45593999997E+02  0.45594000000E+02  0.51100000000E-03 0.  1.
         11   -1    0    0    0    0 -0.00000000000E+00 -0.00000000000E+00 -0.45593999997E+02  0.45594000000E+02  0.51100000000E-03 0. -1.
    9900012    2    1    2    0    0 -0.10282332485E+02  0.86127717405E+01  0.13068104694E+02  0.72461506503E+02  0.69999916900E+02 0.  0.
         12    1    1    2    0    0  0.10282332485E+02 -0.86127717405E+01 -0.13068104694E+02  0.18726493497E+02  0.00000000000E+00 0. -1.
         11    1    3    3    0    0  0.45352778694E+01  0.16643003173E+02  0.15062351016E+02  0.22900496029E+02  0.51100000000E-03 0. -1.
        -11    1    3    3    0    0 -0.17274776545E+02 -0.23789310779E+02 -0.10825793621E+02  0.31329650809E+02  0.51100000000E-03 0.  1.
        -12    1    3    3    0    0  0.24571661896E+01  0.15759079347E+02  0.88315472991E+01  0.18231359665E+02  0.00000000000E+00 0.  1.
</event>
<event>
 7    1  0.1333056E-013  0.7246163E+02  0.7816164E-02  0.1226708E+00
        -11   -1    0    0    0    0  0.00000000000E+00  0.00000000000E+00  0.45593999997E+02  0.45594000000E+02  0.51100000000E-03 0. -1.
         11   -1    0    0    0    0 -0.00000000000E+00 -0.00000000000E+00 -0.45593999997E+02  0.45594000000E+02  0.51100000000E-03 0.  1.
    9900012    2    1    2    0    0 -0.69283449985E+01  0.73531663695E+01 -0.15767242292E+02  0.72461629568E+02  0.70000077215E+02 0.  0.
         12    1    1    2    0    0  0.69283449985E+01 -0.73531663695E+01  0.15767242292E+02  0.18726370432E+02  0.00000000000E+00 0. -1.
         11    1    3    3    0    0 -0.24097665864E+01 -0.14117130571E+02 -0.13316805190E+01  0.14383105500E+02  0.51100000000E-03 0. -1.
        -11    1    3    3    0    0 -0.64088719540E+01  0.22794776917E+02 -0.32308929035E+02  0.40056739634E+02  0.51100000000E-03 0.  1.
        -12    1    3    3    0    0  0.18902935418E+01 -0.13244799760E+01  0.17873367263E+02  0.18021784434E+02  0.00000000000E+00 0.  1.
</event>
<event>
 7    1  0.1333056E-013  0.7246153E+02  0.7816164E-02  0.1226708E+00
        -11   -1    0    0    0    0  0.00000000000E+00  0.00000000000E+00  0.45593999997E+02  0.45594000000E+02  0.51100000000E-03 0.  1.
         11   -1    0    0    0    0 -0.00000000000E+00 -0.00000000000E+00 -0.45593999997E+02  0.45594000000E+02  0.51100000000E-03 0. -1.
    9900012    2    1    2    0    0  0.16519422577E+02  0.33885477926E+01  0.81429274553E+01  0.72461525533E+02  0.69999941690E+02 0.  0.
         12    1    1    2    0    0 -0.16519422577E+02 -0.33885477926E+01 -0.81429274553E+01  0.18726474467E+02  0.00000000000E+00 0. -1.
         11    1    3    3    0    0  0.16239988068E+02 -0.54711320865E+01 -0.16785272818E+02  0.23987827801E+02  0.51100000000E-03 0. -1.
        -11    1    3    3    0    0 -0.11060881220E+02 -0.81258230969E+01  0.24457094863E+02  0.28044992133E+02  0.51100000000E-03 0.  1.
        -12    1    3    3    0    0  0.11340315728E+02  0.16985502976E+02  0.47110541070E+00  0.20428705599E+02  0.00000000000E+00 0.  1.
</event>
<event>
 7    1  0.1333056E-013  0.7246154E+02  0.7816164E-02  0.1226708E+00
        -11   -1    0    0    0    0  0.00000000000E+00  0.00000000000E+00  0.45593999997E+02  0.45594000000E+02  0.51100000000E-03 0.  1.
         11   -1    0    0    0    0 -0.00000000000E+00 -0.00000000000E+00 -0.45593999997E+02  0.45594000000E+02  0.51100000000E-03 0. -1.
    9900012    2    1    2    0    0 -0.21700762794E+01  0.18442319043E+02  0.24190533240E+01  0.72461543268E+02  0.69999964793E+02 0.  0.
         12    1    1    2    0    0  0.21700762794E+01 -0.18442319043E+02 -0.24190533240E+01  0.18726456732E+02  0.00000000000E+00 0. -1.
         11    1    3    3    0    0 -0.30431138729E+02 -0.39968498148E+01  0.11779989727E+02  0.32875479784E+02  0.51100000000E-03 0. -1.
        -11    1    3    3    0    0  0.59448410562E+01  0.34627587086E+01  0.33517512034E+01  0.76528471465E+01  0.51100000000E-03 0.  1.
         12    1    3    3    0    0  0.22316221394E+02  0.18976410150E+02 -0.12712687607E+02  0.31933216337E+02  0.00000000000E+00 0. -1.
</event>
<event>
 7    1  0.1333056E-013  0.7246162E+02  0.7816164E-02  0.1226708E+00
        -11   -1    0    0    0    0  0.00000000000E+00  0.00000000000E+00  0.45593999997E+02  0.45594000000E+02  0.51100000000E-03 0. -1.
         11   -1    0    0    0    0 -0.00000000000E+00 -0.00000000000E+00 -0.45593999997E+02  0.45594000000E+02  0.51100000000E-03 0.  1.
    9900012    2    1    2    0    0  0.17788516286E+01  0.11401461206E+02 -0.14748549243E+02  0.72461619263E+02  0.70000063790E+02 0.  0.
         12    1    1    2    0    0 -0.17788516286E+01 -0.11401461206E+02  0.14748549243E+02  0.18726380737E+02  0.00000000000E+00 0. -1.
         11    1    3    3    0    0 -0.52106131998E+01  0.68263136167E+01  0.95656347657E+00  0.86408368494E+01  0.51100000000E-03 0. -1.
        -11    1    3    3    0    0  0.10461804063E+02 -0.26306296389E+02  0.14062581410E+01  0.28345160718E+02  0.51100000000E-03 0.  1.
        -12    1    3    3    0    0 -0.34723392342E+01  0.30881443978E+02 -0.17111370860E+02  0.35475621695E+02  0.00000000000E+00 0.  1.
</event>
<event>
 7    1  0.1333056E-013  0.7246165E+02  0.7816164E-02  0.1226708E+00
        -11   -1    0    0    0    0  0.00000000000E+00  0.00000000000E+00  0.45593999997E+02  0.45594000000E+02  0.51100000000E-03 0. -1.
         11   -1    0    0    0    0 -0.00000000000E+00 -0.00000000000E+00 -0.45593999997E+02  0.45594000000E+02  0.51100000000E-03 0.  1.
    9900012    2    1    2    0    0  0.37926602391E+01  0.17205172849E+02  0.63461795041E+01  0.72461648546E+02  0.70000101938E+02 0.  0.
         12    1    1    2    0    0 -0.37926602391E+01 -0.17205172849E+02 -0.63461795041E+01  0.18726351454E+02  0.00000000000E+00 0. -1.
         11    1    3    3    0    0 -0.26422905053E+02 -0.26715819162E+01  0.11429856905E+02  0.28912780747E+02  0.51100000000E-03 0. -1.
        -11    1    3    3    0    0  0.17822974645E+01  0.98186578290E+01  0.57321883622E+01  0.11508284385E+02  0.51100000000E-03 0.  1.
         12    1    3    3    0    0  0.28433267828E+02  0.10058096936E+02 -0.10815865763E+02  0.32040583414E+02  0.00000000000E+00 0. -1.
</event>
<event>
 7    1  0.1333056E-013  0.7246158E+02  0.7816164E-02  0.1226708E+00
        -11   -1    0    0    0    0  0.00000000000E+00  0.00000000000E+00  0.45593999997E+02  0.45594000000E+02  0.51100000000E-03 0.  1.
         11   -1    0    0    0    0 -0.00000000000E+00 -0.00000000000E+00 -0.45593999997E+02  0.45594000000E+02  0.51100000000E-03 0. -1.
    9900012    2    1    2    0    0  0.58471447942E+01 -0.14440819112E+02  0.10390020722E+02  0.72461577772E+02  0.70000009741E+02 0.  0.
         12    1    1    2    0    0 -0.58471447942E+01  0.14440819112E+02 -0.10390020722E+02  0.18726422228E+02  0.00000000000E+00 0. -1.
         11    1    3    3    0    0  0.18057774748E+02  0.18256430866E+02 -0.13921012943E+02  0.29209161207E+02  0.51100000000E-03 0. -1.
        -11    1    3    3    0    0  0.80182571577E+00 -0.60538763807E+01  0.46393842165E+01  0.76691740025E+01  0.51100000000E-03 0.  1.
         12    1    3    3    0    0 -0.13012455669E+02 -0.26643373598E+02  0.19671649448E+02  0.35583242562E+02  0.00000000000E+00 0. -1.
</event>
<event>
 7    1  0.1333056E-013  0.7246158E+02  0.7816164E-02  0.1226708E+00
        -11   -1    0    0    0    0  0.00000000000E+00  0.00000000000E+00  0.45593999997E+02  0.45594000000E+02  0.51100000000E-03 0.  1.
         11   -1    0    0    0    0 -0.00000000000E+00 -0.00000000000E+00 -0.45593999997E+02  0.45594000000E+02  0.51100000000E-03 0. -1.
    9900012    2    1    2    0    0 -0.67342517107E+01 -0.16883231360E+02  0.45039043349E+01  0.72461580120E+02  0.70000012800E+02 0.  0.
         12    1    1    2    0    0  0.67342517107E+01  0.16883231360E+02 -0.45039043349E+01  0.18726419880E+02  0.00000000000E+00 0. -1.
         11    1    3    3    0    0 -0.18356056588E+02 -0.30130651353E+02  0.10290301233E+02  0.36751751851E+02  0.51100000000E-03 0. -1.
        -11    1    3    3    0    0  0.53817000669E+01  0.19158330408E+02 -0.13592465307E+02  0.24098950869E+02  0.51100000000E-03 0.  1.
        -12    1    3    3    0    0  0.62401048101E+01 -0.59109104148E+01  0.78060684093E+01  0.11610877399E+02  0.00000000000E+00 0.  1.
</event>
<event>
 7    1  0.1333056E-013  0.7246157E+02  0.7816164E-02  0.1226708E+00
        -11   -1    0    0    0    0  0.00000000000E+00  0.00000000000E+00  0.45593999997E+02  0.45594000000E+02  0.51100000000E-03 0. -1.
         11   -1    0    0    0    0 -0.00000000000E+00 -0.00000000000E+00 -0.45593999997E+02  0.45594000000E+02  0.51100000000E-03 0.  1.
    9900012    2    1    2    0    0 -0.60773092722E+01  0.17904298769E+01 -0.17622135879E+02  0.72461574819E+02  0.70000005894E+02 0.  0.
         12    1    1    2    0    0  0.60773092722E+01 -0.17904298769E+01  0.17622135879E+02  0.18726425181E+02  0.00000000000E+00 0. -1.
         11    1    3    3    0    0 -0.33067133466E+02  0.29917790809E+01 -0.25162090595E+02  0.41659535056E+02  0.51100000000E-03 0.  1.
        -11    1    3    3    0    0  0.25209888307E+02  0.28958142862E+01  0.59835813214E+01  0.26071583276E+02  0.51100000000E-03 0. -1.
        -12    1    3    3    0    0  0.17799358859E+01 -0.40971634902E+01  0.15563733953E+01  0.47304564863E+01  0.00000000000E+00 0.  1.
</event>
<event>
 7    1  0.1333056E-013  0.7246157E+02  0.7816164E-02  0.1226708E+00
        -11   -1    0    0    0    0  0.00000000000E+00  0.00000000000E+00  0.45593999997E+02  0.45594000000E+02  0.51100000000E-03 0. -1.
         11   -1    0    0    0    0 -0.00000000000E+00 -0.00000000000E+00 -0.45593999997E+02  0.45594000000E+02  0.51100000000E-03 0.  1.
    9900012    2    1    2    0    0  0.57421886119E+01  0.13163621378E+02 -0.12017721246E+02  0.72461567297E+02  0.69999996095E+02 0.  0.
         12    1    1    2    0    0 -0.57421886119E+01 -0.13163621378E+02  0.12017721246E+02  0.18726432703E+02  0.00000000000E+00 0. -1.
         11    1    3    3    0    0  0.46885333171E-01  0.38047202169E+02 -0.37363127104E+01  0.38230247502E+02  0.51100000000E-03 0. -1.
        -11    1    3    3    0    0 -0.37670187624E+01 -0.22715724533E+02 -0.84358727767E+01  0.24522612446E+02  0.51100000000E-03 0.  1.
         12    1    3    3    0    0  0.94623220411E+01 -0.21678562581E+01  0.15446424066E+00  0.97087073479E+01  0.00000000000E+00 0. -1.
</event>
<event>
 7    1  0.1333056E-013  0.7246159E+02  0.7816164E-02  0.1226708E+00
        -11   -1    0    0    0    0  0.00000000000E+00  0.00000000000E+00  0.45593999997E+02  0.45594000000E+02  0.51100000000E-03 0.  1.
         11   -1    0    0    0    0 -0.00000000000E+00 -0.00000000000E+00 -0.45593999997E+02  0.45594000000E+02  0.51100000000E-03 0. -1.
    9900012    2    1    2    0    0 -0.90358859540E+01  0.13359800130E+02  0.95156143961E+01  0.72461590525E+02  0.70000026354E+02 0.  0.
         12    1    1    2    0    0  0.90358859540E+01 -0.13359800130E+02 -0.95156143961E+01  0.18726409475E+02  0.00000000000E+00 0. -1.
         11    1    3    3    0    0 -0.57407777114E+01 -0.19804181624E+02  0.86058381322E+01  0.22343289568E+02  0.51100000000E-03 0. -1.
        -11    1    3    3    0    0 -0.18495212961E+02  0.23375565018E+02 -0.66199135268E+01  0.30533804181E+02  0.51100000000E-03 0.  1.
        -12    1    3    3    0    0  0.15200104718E+02  0.97884167357E+01  0.75296897907E+01  0.19584496776E+02  0.00000000000E+00 0.  1.
</event>
<event>
 7    1  0.1333056E-013  0.7246166E+02  0.7816164E-02  0.1226708E+00
        -11   -1    0    0    0    0  0.00000000000E+00  0.00000000000E+00  0.45593999997E+02  0.45594000000E+02  0.51100000000E-03 0.  1.
         11   -1    0    0    0    0 -0.00000000000E+00 -0.00000000000E+00 -0.45593999997E+02  0.45594000000E+02  0.51100000000E-03 0. -1.
    9900012    2    1    2    0    0  0.14838430700E+02  0.13818374526E+01  0.11339636102E+02  0.72461658998E+02  0.70000115553E+02 0.  0.
         12    1    1    2    0    0 -0.14838430700E+02 -0.13818374526E+01 -0.11339636102E+02  0.18726341002E+02  0.00000000000E+00 0. -1.
         11    1    3    3    0    0  0.78667042043E+01 -0.57367673212E+01 -0.25385986346E+02  0.27189038920E+02  0.51100000000E-03 0. -1.
        -11    1    3    3    0    0  0.19430434889E+01 -0.60896737691E+01  0.27871346932E+02  0.28594956280E+02  0.51100000000E-03 0.  1.
        -12    1    3    3    0    0  0.50286830071E+01  0.13208278543E+02  0.88542755164E+01  0.16677663799E+02  0.00000000000E+00 0.  1.
</event>
<event>
 7    1  0.1333056E-013  0.7246158E+02  0.7816164E-02  0.1226708E+00
        -11   -1    0    0    0    0  0.00000000000E+00  0.00000000000E+00  0.45593999997E+02  0.45594000000E+02  0.51100000000E-03 0.  1.
         11   -1    0    0    0    0 -0.00000000000E+00 -0.00000000000E+00 -0.45593999997E+02  0.45594000000E+02  0.51100000000E-03 0. -1.
    9900012    2    1    2    0    0  0.26274511849E+01 -0.62197536535E+01  0.17466821806E+02  0.72461582851E+02  0.70000016357E+02 0.  0.
         12    1    1    2    0    0 -0.26274511849E+01  0.62197536535E+01 -0.17466821806E+02  0.18726417149E+02  0.00000000000E+00 0. -1.
         11    1    3    3    0    0 -0.28294517451E+02  0.46588206074E+01 -0.46083789831E+01  0.29043441331E+02  0.51100000000E-03 0. -1.
        -11    1    3    3    0    0  0.22693229255E+02 -0.11665419052E+02  0.73871879078E+01  0.26563794930E+02  0.51100000000E-03 0.  1.
        -12    1    3    3    0    0  0.82287393816E+01  0.78684479086E+00  0.14688012881E+02  0.16854346589E+02  0.00000000000E+00 0.  1.
</event>
<event>
 7    1  0.1333056E-013  0.7246158E+02  0.7816164E-02  0.1226708E+00
        -11   -1    0    0    0    0  0.00000000000E+00  0.00000000000E+00  0.45593999997E+02  0.45594000000E+02  0.51100000000E-03 0.  1.
         11   -1    0    0    0    0 -0.00000000000E+00 -0.00000000000E+00 -0.45593999997E+02  0.45594000000E+02  0.51100000000E-03 0. -1.
    9900012    2    1    2    0    0  0.12839237170E+02 -0.94482405730E+01  0.98266760020E+01  0.72461579566E+02  0.70000012078E+02 0.  0.
         12    1    1    2    0    0 -0.12839237170E+02  0.94482405730E+01 -0.98266760020E+01  0.18726420434E+02  0.00000000000E+00 0. -1.
         11    1    3    3    0    0  0.13014356268E+02  0.16959775033E+02  0.30823221456E+02  0.37511043967E+02  0.51100000000E-03 0. -1.
        -11    1    3    3    0    0 -0.34431061025E+01 -0.14893960512E+02 -0.78953862088E+01  0.17205294622E+02  0.51100000000E-03 0.  1.
         12    1    3    3    0    0  0.32679870045E+01 -0.11514055094E+02 -0.13101159246E+02  0.17745240978E+02  0.00000000000E+00 0. -1.
</event>
<event>
 7    1  0.1333056E-013  0.7246157E+02  0.7816164E-02  0.1226708E+00
        -11   -1    0    0    0    0  0.00000000000E+00  0.00000000000E+00  0.45593999997E+02  0.45594000000E+02  0.51100000000E-03 0.  1.
         11   -1    0    0    0    0 -0.00000000000E+00 -0.00000000000E+00 -0.45593999997E+02  0.45594000000E+02  0.51100000000E-03 0. -1.
    9900012    2    1    2    0    0 -0.41885913634E+01 -0.17826293759E+02  0.39189249784E+01  0.72461574292E+02  0.70000005208E+02 0.  0.
         12    1    1    2    0    0  0.41885913634E+01  0.17826293759E+02 -0.39189249784E+01  0.18726425708E+02  0.00000000000E+00 0. -1.
         11    1    3    3    0    0  0.40905829457E+01 -0.17577711445E+02  0.21449695219E+01  0.18174424419E+02  0.51100000000E-03 0. -1.
        -11    1    3    3    0    0 -0.22574591505E+02  0.12694774320E+02 -0.13938766198E+02  0.29411879913E+02  0.51100000000E-03 0.  1.
        -12    1    3    3    0    0  0.14295417196E+02 -0.12943356634E+02  0.15712721654E+02  0.24875269960E+02  0.00000000000E+00 0.  1.
</event>
<event>
 7    1  0.1660773E-013  0.7246155E+02  0.7816164E-02  0.1226708E+00
        -11   -1    0    0    0    0  0.00000000000E+00  0.00000000000E+00  0.45593999997E+02  0.45594000000E+02  0.51100000000E-03 0.  1.
         11   -1    0    0    0    0 -0.00000000000E+00 -0.00000000000E+00 -0.45593999997E+02  0.45594000000E+02  0.51100000000E-03 0. -1.
    9900012    2    1    2    0    0 -0.14720088126E+02 -0.33598351126E+01  0.11077474419E+02  0.72461550098E+02  0.69999973690E+02 0.  0.
         12    1    1    2    0    0  0.14720088126E+02  0.33598351126E+01 -0.11077474419E+02  0.18726449902E+02  0.00000000000E+00 0. -1.
         11    1    3    3    0    0  0.14861929178E+02  0.47080117477E+00 -0.11009903907E+02  0.18501799290E+02  0.51100000000E-03 0. -1.
        -11    1    3    3    0    0 -0.33477245861E+01  0.17862223477E+00  0.26797278620E+02  0.27006171656E+02  0.51100000000E-03 0.  1.
        -12    1    3    3    0    0 -0.26234292719E+02 -0.40092585221E+01 -0.47099002936E+01  0.26953579152E+02  0.00000000000E+00 0.  1.
</event>
<event>
 7    1  0.1333056E-013  0.7246157E+02  0.7816164E-02  0.1226708E+00
        -11   -1    0    0    0    0  0.00000000000E+00  0.00000000000E+00  0.45593999997E+02  0.45594000000E+02  0.51100000000E-03 0.  1.
         11   -1    0    0    0    0 -0.00000000000E+00 -0.00000000000E+00 -0.45593999997E+02  0.45594000000E+02  0.51100000000E-03 0. -1.
    9900012    2    1    2    0    0  0.13991758029E+00  0.77753984552E+00  0.18709756817E+02  0.72461570941E+02  0.70000000843E+02 0.  0.
         12    1    1    2    0    0 -0.13991758029E+00 -0.77753984552E+00 -0.18709756817E+02  0.18726429059E+02  0.00000000000E+00 0. -1.
         11    1    3    3    0    0  0.10323014503E+02 -0.29926765669E+02  0.17917171876E+02  0.36375829614E+02  0.51100000000E-03 0. -1.
        -11    1    3    3    0    0  0.42091197610E+01  0.50318471216E+01  0.11050657256E+01  0.66526194191E+01  0.51100000000E-03 0.  1.
         12    1    3    3    0    0 -0.14392216683E+02  0.25672458393E+02 -0.31248078442E+00  0.29433121908E+02  0.00000000000E+00 0. -1.
</event>
<event>
 7    1  0.1333056E-013  0.7246168E+02  0.7816164E-02  0.1226708E+00
        -11   -1    0    0    0    0  0.00000000000E+00  0.00000000000E+00  0.45593999997E+02  0.45594000000E+02  0.51100000000E-03 0.  1.
         11   -1    0    0    0    0 -0.00000000000E+00 -0.00000000000E+00 -0.45593999997E+02  0.45594000000E+02  0.51100000000E-03 0. -1.
    9900012    2    1    2    0    0  0.12870717468E+02  0.12463674389E+02  0.54476116410E+01  0.72461681088E+02  0.70000144329E+02 0.  0.
         12    1    1    2    0    0 -0.12870717468E+02 -0.12463674389E+02 -0.54476116410E+01  0.18726318912E+02  0.00000000000E+00 0. -1.
         11    1    3    3    0    0  0.19337579565E+02 -0.13769892299E+02  0.17982715711E+02  0.29781369712E+02  0.51100000000E-03 0. -1.
        -11    1    3    3    0    0 -0.59663258241E+01  0.25547225110E+02  0.36372998506E+01  0.26485613173E+02  0.51100000000E-03 0.  1.
         12    1    3    3    0    0 -0.50053627284E+00  0.68634157797E+00 -0.16172403920E+02  0.16194698203E+02  0.00000000000E+00 0. -1.
</event>
<event>
 7    1  0.1333056E-013  0.7246154E+02  0.7816164E-02  0.1226708E+00
        -11   -1    0    0    0    0  0.00000000000E+00  0.00000000000E+00  0.45593999997E+02  0.45594000000E+02  0.51100000000E-03 0.  1.
         11   -1    0    0    0    0 -0.00000000000E+00 -0.00000000000E+00 -0.45593999997E+02  0.45594000000E+02  0.51100000000E-03 0. -1.
    9900012    2    1    2    0    0 -0.22775917875E+01 -0.14043139714E+02  0.12177150490E+02  0.72461543010E+02  0.69999964457E+02 0.  0.
         12    1    1    2    0    0  0.22775917875E+01  0.14043139714E+02 -0.12177150490E+02  0.18726456990E+02  0.00000000000E+00 0. -1.
         11    1    3    3    0    0 -0.15715890369E+02  0.18314661462E+02  0.19942090112E+02  0.31306596635E+02  0.51100000000E-03 0.  1.
        -11    1    3    3    0    0  0.10744599304E+02 -0.31769264460E+02 -0.67071061545E+00  0.33543739081E+02  0.51100000000E-03 0. -1.
        -12    1    3    3    0    0  0.26936992770E+01 -0.58853671492E+00 -0.70942290074E+01  0.76112072938E+01  0.00000000000E+00 0.  1.
</event>
<event>
 7    1  0.1333056E-013  0.7246153E+02  0.7816164E-02  0.1226708E+00
        -11   -1    0    0    0    0  0.00000000000E+00  0.00000000000E+00  0.45593999997E+02  0.45594000000E+02  0.51100000000E-03 0. -1.
         11   -1    0    0    0    0 -0.00000000000E+00 -0.00000000000E+00 -0.45593999997E+02  0.45594000000E+02  0.51100000000E-03 0.  1.
    9900012    2    1    2    0    0  0.16332930878E+01  0.20707916177E+01 -0.18539813093E+02  0.72461534937E+02  0.69999953941E+02 0.  0.
         12    1    1    2    0    0 -0.16332930878E+01 -0.20707916177E+01  0.18539813093E+02  0.18726465063E+02  0.00000000000E+00 0. -1.
         11    1    3    3    0    0 -0.26642017503E+02  0.12488949621E+01 -0.10395649346E+02  0.28625624200E+02  0.51100000000E-03 0. -1.
        -11    1    3    3    0    0  0.14128604520E+02  0.64998348896E+01 -0.19416614143E+02  0.24877102410E+02  0.51100000000E-03 0.  1.
         12    1    3    3    0    0  0.14146706071E+02 -0.56779382340E+01  0.11272450396E+02  0.18958808327E+02  0.00000000000E+00 0. -1.
</event>
<event>
 7    1  0.1333056E-013  0.7246155E+02  0.7816164E-02  0.1226708E+00
        -11   -1    0    0    0    0  0.00000000000E+00  0.00000000000E+00  0.45593999997E+02  0.45594000000E+02  0.51100000000E-03 0. -1.
         11   -1    0    0    0    0 -0.00000000000E+00 -0.00000000000E+00 -0.45593999997E+02  0.45594000000E+02  0.51100000000E-03 0.  1.
    9900012    2    1    2    0    0  0.96775663004E+01 -0.15968335154E+02 -0.14272256785E+01  0.72461548382E+02  0.69999971455E+02 0.  0.
         12    1    1    2    0    0 -0.96775663004E+01  0.15968335154E+02  0.14272256785E+01  0.18726451618E+02  0.00000000000E+00 0. -1.
         11    1    3    3    0    0 -0.27303511319E+00  0.79143728096E+01 -0.39559743933E+01  0.88522075668E+01  0.51100000000E-03 0. -1.
        -11    1    3    3    0    0  0.58155755884E+01 -0.26482301680E+02 -0.24257903792E+02  0.36381026901E+02  0.51100000000E-03 0.  1.
        -12    1    3    3    0    0  0.41350258252E+01  0.25995937167E+01  0.26786652507E+02  0.27228313914E+02  0.00000000000E+00 0.  1.
</event>
<event>
 7    1  0.1333056E-013  0.7246158E+02  0.7816164E-02  0.1226708E+00
        -11   -1    0    0    0    0  0.00000000000E+00  0.00000000000E+00  0.45593999997E+02  0.45594000000E+02  0.51100000000E-03 0.  1.
         11   -1    0    0    0    0 -0.00000000000E+00 -0.00000000000E+00 -0.45593999997E+02  0.45594000000E+02  0.51100000000E-03 0. -1.
    9900012    2    1    2    0    0  0.57753418213E+01  0.59964593871E+01  0.16773986932E+02  0.72461581872E+02  0.70000015082E+02 0.  0.
         12    1    1    2    0    0 -0.57753418213E+01 -0.59964593871E+01 -0.16773986932E+02  0.18726418128E+02  0.00000000000E+00 0. -1.
         11    1    3    3    0    0  0.12385393145E+02 -0.48048111129E+01  0.31259079747E+02  0.33964897174E+02  0.51100000000E-03 0. -1.
        -11    1    3    3    0    0 -0.12056227772E+02  0.72485391057E+01  0.72386530021E+01  0.15820620873E+02  0.51100000000E-03 0.  1.
         12    1    3    3    0    0  0.54461764479E+01  0.35527313943E+01 -0.21723745817E+02  0.22676063825E+02  0.00000000000E+00 0. -1.
</event>
<event>
 7    1  0.1333056E-013  0.7246164E+02  0.7816164E-02  0.1226708E+00
        -11   -1    0    0    0    0  0.00000000000E+00  0.00000000000E+00  0.45593999997E+02  0.45594000000E+02  0.51100000000E-03 0.  1.
         11   -1    0    0    0    0 -0.00000000000E+00 -0.00000000000E+00 -0.45593999997E+02  0.45594000000E+02  0.51100000000E-03 0. -1.
    9900012    2    1    2    0    0 -0.81441452179E+01 -0.16531903849E+02 -0.33234992583E+01  0.72461639074E+02  0.70000089599E+02 0.  0.
         12    1    1    2    0    0  0.81441452179E+01  0.16531903849E+02  0.33234992583E+01  0.18726360926E+02  0.00000000000E+00 0. -1.
         11    1    3    3    0    0 -0.34432520892E+02  0.32795634808E+01  0.48196814684E+01  0.34922533718E+02  0.51100000000E-03 0. -1.
        -11    1    3    3    0    0  0.16187643129E+02 -0.15813845183E+02  0.19460159235E+01  0.22713530500E+02  0.51100000000E-03 0.  1.
        -12    1    3    3    0    0  0.10100732545E+02 -0.39976221468E+01 -0.10089196650E+02  0.14825574857E+02  0.00000000000E+00 0.  1.
</event>
<event>
 7    1  0.1333056E-013  0.7246158E+02  0.7816164E-02  0.1226708E+00
        -11   -1    0    0    0    0  0.00000000000E+00  0.00000000000E+00  0.45593999997E+02  0.45594000000E+02  0.51100000000E-03 0.  1.
         11   -1    0    0    0    0 -0.00000000000E+00 -0.00000000000E+00 -0.45593999997E+02  0.45594000000E+02  0.51100000000E-03 0. -1.
    9900012    2    1    2    0    0  0.10851776002E+02 -0.49459776868E+00  0.15253620976E+02  0.72461584907E+02  0.70000019036E+02 0.  0.
         12    1    1    2    0    0 -0.10851776002E+02  0.49459776868E+00 -0.15253620976E+02  0.18726415093E+02  0.00000000000E+00 0. -1.
         11    1    3    3    0    0  0.22891026826E+02 -0.15055751446E+02 -0.12883297408E+02  0.30276296225E+02  0.51100000000E-03 0. -1.
        -11    1    3    3    0    0 -0.27629371476E+01  0.11722592168E+02  0.29981918246E+02  0.32310500008E+02  0.51100000000E-03 0.  1.
        -12    1    3    3    0    0 -0.92763136761E+01  0.28385615100E+01 -0.18449998625E+01  0.98747886740E+01  0.00000000000E+00 0.  1.
</event>
<event>
 7    1  0.1333056E-013  0.7246157E+02  0.7816164E-02  0.1226708E+00
        -11   -1    0    0    0    0  0.00000000000E+00  0.00000000000E+00  0.45593999997E+02  0.45594000000E+02  0.51100000000E-03 0.  1.
         11   -1    0    0    0    0 -0.00000000000E+00 -0.00000000000E+00 -0.45593999997E+02  0.45594000000E+02  0.51100000000E-03 0. -1.
    9900012    2    1    2    0    0 -0.44377692095E+01 -0.79259107247E+01  0.16375759731E+02  0.72461565125E+02  0.69999993266E+02 0.  0.
         12    1    1    2    0    0  0.44377692095E+01  0.79259107247E+01 -0.16375759731E+02  0.18726434875E+02  0.00000000000E+00 0. -1.
         11    1    3    3    0    0 -0.17533445974E+02 -0.29859003656E+02 -0.37517537441E+01  0.34828974769E+02  0.51100000000E-03 0. -1.
        -11    1    3    3    0    0  0.47166589210E+01  0.22246021016E+02  0.17945440985E+02  0.28968451371E+02  0.51100000000E-03 0.  1.
         12    1    3    3    0    0  0.83790178431E+01 -0.31292808451E+00  0.21820724896E+01  0.86641389850E+01  0.00000000000E+00 0. -1.
</event>
<event>
 7    1  0.1333056E-013  0.7246155E+02  0.7816164E-02  0.1226708E+00
        -11   -1    0    0    0    0  0.00000000000E+00  0.00000000000E+00  0.45593999997E+02  0.45594000000E+02  0.51100000000E-03 0.  1.
         11   -1    0    0    0    0 -0.00000000000E+00 -0.00000000000E+00 -0.45593999997E+02  0.45594000000E+02  0.51100000000E-03 0. -1.
    9900012    2    1    2    0    0  0.13301738576E+00 -0.10007950208E+02  0.15827296101E+02  0.72461546442E+02  0.69999968928E+02 0.  0.
         12    1    1    2    0    0 -0.13301738576E+00  0.10007950208E+02 -0.15827296101E+02  0.18726453558E+02  0.00000000000E+00 0. -1.
         11    1    3    3    0    0  0.14949516702E+02 -0.75370161978E+01  0.13109321512E+01  0.16793248827E+02  0.51100000000E-03 0. -1.
        -11    1    3    3    0    0 -0.32700750982E+02 -0.98860038219E+01  0.11664111536E+02  0.36098804475E+02  0.51100000000E-03 0.  1.
        -12    1    3    3    0    0  0.17884251666E+02  0.74150698122E+01  0.28522524138E+01  0.19569493141E+02  0.00000000000E+00 0.  1.
</event>
<event>
 7    1  0.1333056E-013  0.7246155E+02  0.7816164E-02  0.1226708E+00
        -11   -1    0    0    0    0  0.00000000000E+00  0.00000000000E+00  0.45593999997E+02  0.45594000000E+02  0.51100000000E-03 0. -1.
         11   -1    0    0    0    0 -0.00000000000E+00 -0.00000000000E+00 -0.45593999997E+02  0.45594000000E+02  0.51100000000E-03 0.  1.
    9900012    2    1    2    0    0 -0.17531400178E+02  0.31105911917E+01 -0.58012360865E+01  0.72461545186E+02  0.69999967292E+02 0.  0.
         12    1    1    2    0    0  0.17531400178E+02 -0.31105911917E+01  0.58012360865E+01  0.18726454814E+02  0.00000000000E+00 0. -1.
         11    1    3    3    0    0 -0.98082839110E+00 -0.13993289632E+02  0.13360312228E+02  0.19371941621E+02  0.51100000000E-03 0. -1.
        -11    1    3    3    0    0 -0.10816343036E+02  0.26508325029E+01 -0.31390756974E+02  0.33307653975E+02  0.51100000000E-03 0.  1.
        -12    1    3    3    0    0 -0.57342287510E+01  0.14453048321E+02  0.12229208660E+02  0.19781949590E+02  0.00000000000E+00 0.  1.
</event>
<event>
 7    1  0.1333056E-013  0.7246157E+02  0.7816164E-02  0.1226708E+00
        -11   -1    0    0    0    0  0.00000000000E+00  0.00000000000E+00  0.45593999997E+02  0.45594000000E+02  0.51100000000E-03 0.  1.
         11   -1    0    0    0    0 -0.00000000000E+00 -0.00000000000E+00 -0.45593999997E+02  0.45594000000E+02  0.51100000000E-03 0. -1.
    9900012    2    1    2    0    0 -0.84916989586E+01 -0.45145636726E+01  0.16068255388E+02  0.72461573016E+02  0.70000003546E+02 0.  0.
         12    1    1    2    0    0  0.84916989586E+01  0.45145636726E+01 -0.16068255388E+02  0.18726426984E+02  0.00000000000E+00 0. -1.
         11    1    3    3    0    0 -0.19995753314E+02  0.17474591378E+02  0.15261957372E+02  0.30628725692E+02  0.51100000000E-03 0. -1.
        -11    1    3    3    0    0  0.19080912046E+02 -0.62058889925E+01 -0.87468058501E+01  0.21888373067E+02  0.51100000000E-03 0.  1.
         12    1    3    3    0    0 -0.75768576907E+01 -0.15783266058E+02  0.95531038659E+01  0.19944474257E+02  0.00000000000E+00 0. -1.
</event>
<event>
 8    1  0.1333056E-013  0.7246164E+02  0.7816164E-02  0.1226708E+00
        -11   -1    0    0    0    0  0.00000000000E+00  0.00000000000E+00  0.45593999997E+02  0.45594000000E+02  0.51100000000E-03 0.  1.
         11   -1    0    0    0    0 -0.00000000000E+00 -0.00000000000E+00 -0.45593999997E+02  0.45594000000E+02  0.51100000000E-03 0. -1.
    9900012    2    1    2    0    0  0.48185237804E+01  0.89899143423E+01  0.15704775348E+02  0.72461636230E+02  0.70000085893E+02 0.  0.
         24    2    3    3    0    0  0.17171490944E+02  0.10714833918E+02  0.24462659029E+01  0.54258361298E+02  0.50282380480E+02 0.  0.
         12    1    1    2    0    0 -0.48185237804E+01 -0.89899143423E+01 -0.15704775348E+02  0.18726363770E+02  0.00000000000E+00 0. -1.
         11    1    3    3    0    0 -0.12352967163E+02 -0.17249195760E+01  0.13258509445E+02  0.18203274932E+02  0.51100000000E-03 0. -1.
        -11    1    4    4    0    0  0.13884385405E+02  0.30501240224E+02  0.55274491457E+01  0.33965489951E+02  0.51100000000E-03 0.  1.
         12    1    4    4    0    0  0.32871055384E+01 -0.19786406306E+02 -0.30811832428E+01  0.20292871347E+02  0.00000000000E+00 0. -1.
</event>
<event>
 7    1  0.1333056E-013  0.7246160E+02  0.7816164E-02  0.1226708E+00
        -11   -1    0    0    0    0  0.00000000000E+00  0.00000000000E+00  0.45593999997E+02  0.45594000000E+02  0.51100000000E-03 0.  1.
         11   -1    0    0    0    0 -0.00000000000E+00 -0.00000000000E+00 -0.45593999997E+02  0.45594000000E+02  0.51100000000E-03 0. -1.
    9900012    2    1    2    0    0  0.20566811637E+01  0.13148700859E+02  0.13174206032E+02  0.72461602155E+02  0.70000041504E+02 0.  0.
         12    1    1    2    0    0 -0.20566811637E+01 -0.13148700859E+02 -0.13174206032E+02  0.18726397845E+02  0.00000000000E+00 0. -1.
         11    1    3    3    0    0 -0.14100720698E+02  0.33359154344E+02 -0.70661067462E+01  0.36899774627E+02  0.51100000000E-03 0. -1.
        -11    1    3    3    0    0  0.69952563069E+01 -0.18596961187E+02  0.14896274487E+02  0.24833033847E+02  0.51100000000E-03 0.  1.
        -12    1    3    3    0    0  0.91621455551E+01 -0.16134922976E+01  0.53440382916E+01  0.10728793680E+02  0.00000000000E+00 0.  1.
</event>
<event>
 8    1  0.1333056E-013  0.7246173E+02  0.7816164E-02  0.1226708E+00
        -11   -1    0    0    0    0  0.00000000000E+00  0.00000000000E+00  0.45593999997E+02  0.45594000000E+02  0.51100000000E-03 0.  1.
         11   -1    0    0    0    0 -0.00000000000E+00 -0.00000000000E+00 -0.45593999997E+02  0.45594000000E+02  0.51100000000E-03 0. -1.
    9900012    2    1    2    0    0  0.51867051523E+01  0.34768540084E+01  0.17654536336E+02  0.72461732957E+02  0.70000211898E+02 0.  0.
         24    2    3    3    0    0  0.16998379321E+02 -0.82414326683E+01  0.12299617702E+02  0.54982915974E+02  0.50149519852E+02 0.  0.
         12    1    1    2    0    0 -0.51867051523E+01 -0.34768540084E+01 -0.17654536336E+02  0.18726267043E+02  0.00000000000E+00 0. -1.
         11    1    3    3    0    0 -0.11811674168E+02  0.11718286677E+02  0.53549186338E+01  0.17478816983E+02  0.51100000000E-03 0. -1.
        -11    1    4    4    0    0  0.19808385209E+02 -0.25247419779E+02  0.18042388529E+02  0.36814835517E+02  0.51100000000E-03 0.  1.
         12    1    4    4    0    0 -0.28100058881E+01  0.17005987111E+02 -0.57427708270E+01  0.18168080456E+02  0.00000000000E+00 0. -1.
</event>
<event>
 7    1  0.1333056E-013  0.7246155E+02  0.7816164E-02  0.1226708E+00
        -11   -1    0    0    0    0  0.00000000000E+00  0.00000000000E+00  0.45593999997E+02  0.45594000000E+02  0.51100000000E-03 0.  1.
         11   -1    0    0    0    0 -0.00000000000E+00 -0.00000000000E+00 -0.45593999997E+02  0.45594000000E+02  0.51100000000E-03 0. -1.
    9900012    2    1    2    0    0  0.16512557581E+02  0.87018632064E+01  0.15142476456E+01  0.72461550068E+02  0.69999973652E+02 0.  0.
         12    1    1    2    0    0 -0.16512557581E+02 -0.87018632064E+01 -0.15142476456E+01  0.18726449932E+02  0.00000000000E+00 0. -1.
         11    1    3    3    0    0 -0.20230366299E+02 -0.35140569981E+01 -0.77991106678E+01  0.21964572490E+02  0.51100000000E-03 0. -1.
        -11    1    3    3    0    0  0.11464958270E+02 -0.64451089626E+01  0.13442970737E+02  0.18806864708E+02  0.51100000000E-03 0.  1.
         12    1    3    3    0    0  0.25277965610E+02  0.18661029167E+02 -0.41296124234E+01  0.31690112870E+02  0.00000000000E+00 0. -1.
</event>
<event>
 7    1  0.1333056E-013  0.7246161E+02  0.7816164E-02  0.1226708E+00
        -11   -1    0    0    0    0  0.00000000000E+00  0.00000000000E+00  0.45593999997E+02  0.45594000000E+02  0.51100000000E-03 0.  1.
         11   -1    0    0    0    0 -0.00000000000E+00 -0.00000000000E+00 -0.45593999997E+02  0.45594000000E+02  0.51100000000E-03 0. -1.
    9900012    2    1    2    0    0 -0.47900278946E+01  0.17463996664E+02  0.47688713228E+01  0.72461610054E+02  0.70000051795E+02 0.  0.
         12    1    1    2    0    0  0.47900278946E+01 -0.17463996664E+02 -0.47688713228E+01  0.18726389946E+02  0.00000000000E+00 0. -1.
         11    1    3    3    0    0 -0.88188635842E+01  0.37428526707E+02  0.85869565135E+01  0.39400543001E+02  0.51100000000E-03 0. -1.
        -11    1    3    3    0    0  0.14571003299E+02 -0.15811945590E+02 -0.28341350876E+01  0.21687878698E+02  0.51100000000E-03 0.  1.
         12    1    3    3    0    0 -0.10542167610E+02 -0.41525844529E+01 -0.98395010308E+00  0.11373188355E+02  0.00000000000E+00 0. -1.
</event>
<event>
 7    1  0.1333056E-013  0.7246157E+02  0.7816164E-02  0.1226708E+00
        -11   -1    0    0    0    0  0.00000000000E+00  0.00000000000E+00  0.45593999997E+02  0.45594000000E+02  0.51100000000E-03 0.  1.
         11   -1    0    0    0    0 -0.00000000000E+00 -0.00000000000E+00 -0.45593999997E+02  0.45594000000E+02  0.51100000000E-03 0. -1.
    9900012    2    1    2    0    0  0.17481245932E+02 -0.61173233749E+01  0.27682972592E+01  0.72461572836E+02  0.70000003311E+02 0.  0.
         12    1    1    2    0    0 -0.17481245932E+02  0.61173233749E+01 -0.27682972592E+01  0.18726427164E+02  0.00000000000E+00 0. -1.
         11    1    3    3    0    0  0.31144251993E+01  0.22094307625E+02 -0.13098340591E+02  0.25873241008E+02  0.51100000000E-03 0. -1.
        -11    1    3    3    0    0  0.79175523430E+01 -0.13857372772E+02  0.24040306331E+02  0.28855688244E+02  0.51100000000E-03 0.  1.
         12    1    3    3    0    0  0.64492683901E+01 -0.14354258228E+02 -0.81736684816E+01  0.17732643584E+02  0.00000000000E+00 0. -1.
</event>
<event>
 7    1  0.1333056E-013  0.7246154E+02  0.7816164E-02  0.1226708E+00
        -11   -1    0    0    0    0  0.00000000000E+00  0.00000000000E+00  0.45593999997E+02  0.45594000000E+02  0.51100000000E-03 0.  1.
         11   -1    0    0    0    0 -0.00000000000E+00 -0.00000000000E+00 -0.45593999997E+02  0.45594000000E+02  0.51100000000E-03 0. -1.
    9900012    2    1    2    0    0  0.33272382053E+01 -0.16829759641E+02  0.75079242059E+01  0.72461541458E+02  0.69999962435E+02 0.  0.
         12    1    1    2    0    0 -0.33272382053E+01  0.16829759641E+02 -0.75079242059E+01  0.18726458542E+02  0.00000000000E+00 0. -1.
         11    1    3    3    0    0 -0.24722025645E+02  0.12480385831E+02  0.56343520940E+01  0.28261006816E+02  0.51100000000E-03 0. -1.
        -11    1    3    3    0    0  0.76331227221E+01 -0.15618426368E+02  0.75802179866E+01  0.18964691131E+02  0.51100000000E-03 0.  1.
         12    1    3    3    0    0  0.20416141128E+02 -0.13691719104E+02 -0.57066458747E+01  0.25235843511E+02  0.00000000000E+00 0. -1.
</event>
<event>
 7    1  0.1333056E-013  0.7246157E+02  0.7816164E-02  0.1226708E+00
        -11   -1    0    0    0    0  0.00000000000E+00  0.00000000000E+00  0.45593999997E+02  0.45594000000E+02  0.51100000000E-03 0.  1.
         11   -1    0    0    0    0 -0.00000000000E+00 -0.00000000000E+00 -0.45593999997E+02  0.45594000000E+02  0.51100000000E-03 0. -1.
    9900012    2    1    2    0    0  0.31466737900E+01  0.16970168651E+02  0.72657470261E+01  0.72461567883E+02  0.69999996859E+02 0.  0.
         12    1    1    2    0    0 -0.31466737900E+01 -0.16970168651E+02 -0.72657470261E+01  0.18726432117E+02  0.00000000000E+00 0. -1.
         11    1    3    3    0    0  0.14874755974E+02  0.21548049123E+02  0.23044911354E+02  0.34880434715E+02  0.51100000000E-03 0.  1.
        -11    1    3    3    0    0 -0.96789183943E+01 -0.16991570140E+02 -0.15572168487E+02  0.24997746873E+02  0.51100000000E-03 0. -1.
        -12    1    3    3    0    0 -0.20491637899E+01  0.12413689667E+02 -0.20699584073E+00  0.12583386296E+02  0.00000000000E+00 0.  1.
</event>
<event>
 7    1  0.1333056E-013  0.7246127E+02  0.7816164E-02  0.1226709E+00
        -11   -1    0    0    0    0  0.00000000000E+00  0.00000000000E+00  0.45593999997E+02  0.45594000000E+02  0.51100000000E-03 0. -1.
         11   -1    0    0    0    0 -0.00000000000E+00 -0.00000000000E+00 -0.45593999997E+02  0.45594000000E+02  0.51100000000E-03 0.  1.
    9900012    2    1    2    0    0 -0.56295922020E+01  0.96452333057E+01 -0.15032223981E+02  0.72461265322E+02  0.69999602716E+02 0.  0.
         12    1    1    2    0    0  0.56295922020E+01 -0.96452333057E+01  0.15032223981E+02  0.18726734678E+02  0.00000000000E+00 0. -1.
         11    1    3    3    0    0 -0.16722209125E+02  0.21456135321E+01 -0.61404483634E+01  0.17942715564E+02  0.51100000000E-03 0. -1.
        -11    1    3    3    0    0  0.13421698158E+02 -0.20607657637E+02  0.10461307309E+01  0.24615278274E+02  0.51100000000E-03 0.  1.
        -12    1    3    3    0    0 -0.23290812347E+01  0.28107277410E+02 -0.99379063487E+01  0.29903271484E+02  0.00000000000E+00 0.  1.
</event>
<event>
 7    1  0.1333056E-013  0.7246155E+02  0.7816164E-02  0.1226708E+00
        -11   -1    0    0    0    0  0.00000000000E+00  0.00000000000E+00  0.45593999997E+02  0.45594000000E+02  0.51100000000E-03 0.  1.
         11   -1    0    0    0    0 -0.00000000000E+00 -0.00000000000E+00 -0.45593999997E+02  0.45594000000E+02  0.51100000000E-03 0. -1.
    9900012    2    1    2    0    0 -0.18190179410E+02 -0.43171483789E+01  0.10768299147E+01  0.72461549195E+02  0.69999972514E+02 0.  0.
         12    1    1    2    0    0  0.18190179410E+02  0.43171483789E+01 -0.10768299147E+01  0.18726450805E+02  0.00000000000E+00 0. -1.
         11    1    3    3    0    0 -0.17526380911E+02  0.55502807171E+00 -0.19007749380E+02  0.25860715781E+02  0.51100000000E-03 0. -1.
        -11    1    3    3    0    0  0.15383493187E+02  0.11053679308E+02  0.12742493572E+02  0.22829954699E+02  0.51100000000E-03 0.  1.
         12    1    3    3    0    0 -0.16047291686E+02 -0.15925855758E+02  0.73420857225E+01  0.23770878715E+02  0.00000000000E+00 0. -1.
</event>
<event>
 7    1  0.1333056E-013  0.7246146E+02  0.7816164E-02  0.1226708E+00
        -11   -1    0    0    0    0  0.00000000000E+00  0.00000000000E+00  0.45593999997E+02  0.45594000000E+02  0.51100000000E-03 0.  1.
         11   -1    0    0    0    0 -0.00000000000E+00 -0.00000000000E+00 -0.45593999997E+02  0.45594000000E+02  0.51100000000E-03 0. -1.
    9900012    2    1    2    0    0 -0.13449275155E+02 -0.84225666215E+01  0.99428617525E+01  0.72461464535E+02  0.69999862229E+02 0.  0.
         12    1    1    2    0    0  0.13449275155E+02  0.84225666215E+01 -0.99428617525E+01  0.18726535465E+02  0.00000000000E+00 0. -1.
         11    1    3    3    0    0 -0.36653549349E+01 -0.17807353919E+02 -0.22711067880E+02  0.29091739118E+02  0.51100000000E-03 0. -1.
        -11    1    3    3    0    0 -0.16814816658E+02  0.62650373634E+00  0.15572306419E+02  0.22926563058E+02  0.51100000000E-03 0.  1.
        -12    1    3    3    0    0  0.70308964377E+01  0.87582835616E+01  0.17081623213E+02  0.20443162359E+02  0.00000000000E+00 0.  1.
</event>
<event>
 7    1  0.1333056E-013  0.7246156E+02  0.7816164E-02  0.1226708E+00
        -11   -1    0    0    0    0  0.00000000000E+00  0.00000000000E+00  0.45593999997E+02  0.45594000000E+02  0.51100000000E-03 0.  1.
         11   -1    0    0    0    0 -0.00000000000E+00 -0.00000000000E+00 -0.45593999997E+02  0.45594000000E+02  0.51100000000E-03 0. -1.
    9900012    2    1    2    0    0  0.84054942523E+01  0.11689042908E+02  0.11974707620E+02  0.72461556656E+02  0.69999982234E+02 0.  0.
         12    1    1    2    0    0 -0.84054942523E+01 -0.11689042908E+02 -0.11974707620E+02  0.18726443344E+02  0.00000000000E+00 0. -1.
         11    1    3    3    0    0 -0.14460234020E+02  0.18454907801E+02  0.29327333373E+02  0.37546963564E+02  0.51100000000E-03 0. -1.
        -11    1    3    3    0    0  0.20064272029E+02 -0.80656704108E-01 -0.51391058645E+01  0.20712120290E+02  0.51100000000E-03 0.  1.
         12    1    3    3    0    0  0.28014562430E+01 -0.66852081890E+01 -0.12213519889E+02  0.14202472802E+02  0.00000000000E+00 0. -1.
</event>
<event>
 7    1  0.1333056E-013  0.7246157E+02  0.7816164E-02  0.1226708E+00
        -11   -1    0    0    0    0  0.00000000000E+00  0.00000000000E+00  0.45593999997E+02  0.45594000000E+02  0.51100000000E-03 0.  1.
         11   -1    0    0    0    0 -0.00000000000E+00 -0.00000000000E+00 -0.45593999997E+02  0.45594000000E+02  0.51100000000E-03 0. -1.
    9900012    2    1    2    0    0  0.59486379097E+01  0.16334958152E+02  0.69614601596E+01  0.72461572728E+02  0.70000003171E+02 0.  0.
         12    1    1    2    0    0 -0.59486379097E+01 -0.16334958152E+02 -0.69614601596E+01  0.18726427272E+02  0.00000000000E+00 0. -1.
         11    1    3    3    0    0  0.26036650474E+02  0.63524948480E-01  0.34258367753E+01  0.26261141659E+02  0.51100000000E-03 0. -1.
        -11    1    3    3    0    0 -0.81731921828E+01  0.21235206853E+02  0.16344846405E+02  0.28015872016E+02  0.51100000000E-03 0.  1.
         12    1    3    3    0    0 -0.11914820382E+02 -0.49637736496E+01 -0.12809223021E+02  0.18184559054E+02  0.00000000000E+00 0. -1.
</event>
<event>
 7    1  0.1333056E-013  0.7246173E+02  0.7816164E-02  0.1226708E+00
        -11   -1    0    0    0    0  0.00000000000E+00  0.00000000000E+00  0.45593999997E+02  0.45594000000E+02  0.51100000000E-03 0.  1.
         11   -1    0    0    0    0 -0.00000000000E+00 -0.00000000000E+00 -0.45593999997E+02  0.45594000000E+02  0.51100000000E-03 0. -1.
    9900012    2    1    2    0    0 -0.78748113427E+01  0.70820773409E+01  0.15443598870E+02  0.72461729170E+02  0.70000206965E+02 0.  0.
         12    1    1    2    0    0  0.78748113427E+01 -0.70820773409E+01 -0.15443598870E+02  0.18726270830E+02  0.00000000000E+00 0. -1.
         11    1    3    3    0    0 -0.21737603131E+02 -0.19089579324E+02 -0.11016158282E+02  0.30956278397E+02  0.51100000000E-03 0. -1.
        -11    1    3    3    0    0  0.16093238026E+02  0.23450274890E+02  0.23099825208E+02  0.36640273299E+02  0.51100000000E-03 0.  1.
         12    1    3    3    0    0 -0.22304462378E+01  0.27213817752E+01  0.33599319435E+01  0.48651774737E+01  0.00000000000E+00 0. -1.
</event>
<event>
 7    1  0.1389384E-013  0.7246156E+02  0.7816164E-02  0.1226708E+00
        -11   -1    0    0    0    0  0.00000000000E+00  0.00000000000E+00  0.45593999997E+02  0.45594000000E+02  0.51100000000E-03 0.  1.
         11   -1    0    0    0    0 -0.00000000000E+00 -0.00000000000E+00 -0.45593999997E+02  0.45594000000E+02  0.51100000000E-03 0. -1.
    9900012    2    1    2    0    0 -0.10453246144E+02  0.41443604113E+01  0.14974421650E+02  0.72461564623E+02  0.69999992612E+02 0.  0.
         12    1    1    2    0    0  0.10453246144E+02 -0.41443604113E+01 -0.14974421650E+02  0.18726435377E+02  0.00000000000E+00 0. -1.
         11    1    3    3    0    0 -0.22277060499E+02 -0.30031985709E+01 -0.10777486117E+02  0.24928715037E+02  0.51100000000E-03 0. -1.
        -11    1    3    3    0    0 -0.50540438779E+01  0.32312669601E+01  0.29248475013E+02  0.29857289504E+02  0.51100000000E-03 0.  1.
        -12    1    3    3    0    0  0.16877858233E+02  0.39162920221E+01 -0.34965672454E+01  0.17675560082E+02  0.00000000000E+00 0.  1.
</event>
<event>
 7    1  0.1333056E-013  0.7246156E+02  0.7816164E-02  0.1226708E+00
        -11   -1    0    0    0    0  0.00000000000E+00  0.00000000000E+00  0.45593999997E+02  0.45594000000E+02  0.51100000000E-03 0.  1.
         11   -1    0    0    0    0 -0.00000000000E+00 -0.00000000000E+00 -0.45593999997E+02  0.45594000000E+02  0.51100000000E-03 0. -1.
    9900012    2    1    2    0    0  0.22422244351E+01 -0.18512195298E+02 -0.17177876293E+01  0.72461555075E+02  0.69999980174E+02 0.  0.
         12    1    1    2    0    0 -0.22422244351E+01  0.18512195298E+02  0.17177876293E+01  0.18726444925E+02  0.00000000000E+00 0. -1.
         11    1    3    3    0    0  0.10394804835E+02  0.97041599289E+01 -0.10840577574E+02  0.17881297769E+02  0.51100000000E-03 0. -1.
        -11    1    3    3    0    0 -0.14268267084E+02 -0.22173024313E+02  0.25120846362E+02  0.36418173691E+02  0.51100000000E-03 0.  1.
        -12    1    3    3    0    0  0.61156866837E+01 -0.60433309144E+01 -0.15998056417E+02  0.18162083616E+02  0.00000000000E+00 0.  1.
</event>
<event>
 7    1  0.1333056E-013  0.7246159E+02  0.7816164E-02  0.1226708E+00
        -11   -1    0    0    0    0  0.00000000000E+00  0.00000000000E+00  0.45593999997E+02  0.45594000000E+02  0.51100000000E-03 0.  1.
         11   -1    0    0    0    0 -0.00000000000E+00 -0.00000000000E+00 -0.45593999997E+02  0.45594000000E+02  0.51100000000E-03 0. -1.
    9900012    2    1    2    0    0  0.16862111001E+02 -0.73023030250E+01  0.36088991420E+01  0.72461586305E+02  0.70000020857E+02 0.  0.
         12    1    1    2    0    0 -0.16862111001E+02  0.73023030250E+01 -0.36088991420E+01  0.18726413695E+02  0.00000000000E+00 0. -1.
         11    1    3    3    0    0  0.33300047264E+02  0.40300281876E+01 -0.15221496862E+02  0.36835149544E+02  0.51100000000E-03 0. -1.
        -11    1    3    3    0    0 -0.15227627943E+02 -0.15494833349E+02  0.66842645362E+01  0.22729934138E+02  0.51100000000E-03 0.  1.
        -12    1    3    3    0    0 -0.12103083204E+01  0.41625021358E+01  0.12146131468E+02  0.12896502622E+02  0.00000000000E+00 0.  1.
</event>
<event>
 7    1  0.1333056E-013  0.7246161E+02  0.7816164E-02  0.1226708E+00
        -11   -1    0    0    0    0  0.00000000000E+00  0.00000000000E+00  0.45593999997E+02  0.45594000000E+02  0.51100000000E-03 0.  1.
         11   -1    0    0    0    0 -0.00000000000E+00 -0.00000000000E+00 -0.45593999997E+02  0.45594000000E+02  0.51100000000E-03 0. -1.
    9900012    2    1    2    0    0  0.11792098916E+02 -0.10424907812E+02  0.10146199115E+02  0.72461610700E+02  0.70000052636E+02 0.  0.
         12    1    1    2    0    0 -0.11792098916E+02  0.10424907812E+02 -0.10146199115E+02  0.18726389300E+02  0.00000000000E+00 0. -1.
         11    1    3    3    0    0 -0.88456937294E+01  0.13770454670E+02  0.12992444882E+02  0.20896778308E+02  0.51100000000E-03 0. -1.
        -11    1    3    3    0    0  0.30104622561E+02 -0.57680091913E+01  0.84585472804E-02  0.30652215277E+02  0.51100000000E-03 0.  1.
         12    1    3    3    0    0 -0.94668299150E+01 -0.18427353290E+02 -0.28547043146E+01  0.20912617116E+02  0.00000000000E+00 0. -1.
</event>
<event>
 7    1  0.1333056E-013  0.7246158E+02  0.7816164E-02  0.1226708E+00
        -11   -1    0    0    0    0  0.00000000000E+00  0.00000000000E+00  0.45593999997E+02  0.45594000000E+02  0.51100000000E-03 0.  1.
         11   -1    0    0    0    0 -0.00000000000E+00 -0.00000000000E+00 -0.45593999997E+02  0.45594000000E+02  0.51100000000E-03 0. -1.
    9900012    2    1    2    0    0  0.84417491151E+01  0.11732691648E+02  0.11906284179E+02  0.72461580578E+02  0.70000013396E+02 0.  0.
         12    1    1    2    0    0 -0.84417491151E+01 -0.11732691648E+02 -0.11906284179E+02  0.18726419422E+02  0.00000000000E+00 0. -1.
         11    1    3    3    0    0  0.14579910086E+02  0.14321043343E+02 -0.26166370574E+02  0.33201581436E+02  0.51100000000E-03 0. -1.
        -11    1    3    3    0    0 -0.30123048341E+01  0.19701443534E+00  0.30135125786E+02  0.30285947261E+02  0.51100000000E-03 0.  1.
         12    1    3    3    0    0 -0.31258561365E+01 -0.27853661303E+01  0.79375289674E+01  0.89740518816E+01  0.00000000000E+00 0. -1.
</event>
<event>
 7    1  0.1333056E-013  0.7246151E+02  0.7816164E-02  0.1226708E+00
        -11   -1    0    0    0    0  0.00000000000E+00  0.00000000000E+00  0.45593999997E+02  0.45594000000E+02  0.51100000000E-03 0. -1.
         11   -1    0    0    0    0 -0.00000000000E+00 -0.00000000000E+00 -0.45593999997E+02  0.45594000000E+02  0.51100000000E-03 0.  1.
    9900012    2    1    2    0    0  0.14234375956E+02 -0.55778622677E+01 -0.10814416018E+02  0.72461505396E+02  0.69999915458E+02 0.  0.
         12    1    1    2    0    0 -0.14234375956E+02  0.55778622677E+01  0.10814416018E+02  0.18726494604E+02  0.00000000000E+00 0. -1.
         11    1    3    3    0    0 -0.30521002092E+01 -0.21217813113E+01 -0.31409289754E+01  0.48664881290E+01  0.51100000000E-03 0. -1.
        -11    1    3    3    0    0  0.30585366182E+02 -0.12506338636E+02  0.17750487127E+02  0.37509371150E+02  0.51100000000E-03 0.  1.
        -12    1    3    3    0    0 -0.13298890016E+02  0.90502576799E+01 -0.25423974169E+02  0.30085646117E+02  0.00000000000E+00 0.  1.
</event>
<event>
 8    1  0.1333056E-013  0.7246156E+02  0.7816164E-02  0.1226708E+00
        -11   -1    0    0    0    0  0.00000000000E+00  0.00000000000E+00  0.45593999997E+02  0.45594000000E+02  0.51100000000E-03 0.  1.
         11   -1    0    0    0    0 -0.00000000000E+00 -0.00000000000E+00 -0.45593999997E+02  0.45594000000E+02  0.51100000000E-03 0. -1.
    9900012    2    1    2    0    0  0.18229787090E+02  0.22297464083E+01  0.36582546268E+01  0.72461555241E+02  0.69999980390E+02 0.  0.
         24    2    3    3    0    0 -0.20713057088E+01  0.14561730849E+00  0.12050908143E+02  0.50395413842E+02  0.48889281417E+02 0.  0.
         12    1    1    2    0    0 -0.18229787090E+02 -0.22297464083E+01 -0.36582546268E+01  0.18726444759E+02  0.00000000000E+00 0. -1.
         11    1    3    3    0    0  0.20301092799E+02  0.20841290998E+01 -0.83926535158E+01  0.22066141399E+02  0.51100000000E-03 0. -1.
        -11    1    4    4    0    0 -0.67473992134E+01  0.13257118399E+01  0.30531311477E+02  0.31296100217E+02  0.51100000000E-03 0.  1.
         12    1    4    4    0    0  0.46760935046E+01 -0.11800945314E+01 -0.18480403334E+02  0.19099313625E+02  0.00000000000E+00 0. -1.
</event>
<event>
 7    1  0.1333056E-013  0.7246099E+02  0.7816164E-02  0.1226710E+00
        -11   -1    0    0    0    0  0.00000000000E+00  0.00000000000E+00  0.45593999997E+02  0.45594000000E+02  0.51100000000E-03 0. -1.
         11   -1    0    0    0    0 -0.00000000000E+00 -0.00000000000E+00 -0.45593999997E+02  0.45594000000E+02  0.51100000000E-03 0.  1.
    9900012    2    1    2    0    0 -0.12118893569E+02  0.50112858263E+00 -0.14268219535E+02  0.72460992767E+02  0.69999247660E+02 0.  0.
         12    1    1    2    0    0  0.12118893569E+02 -0.50112858263E+00  0.14268219535E+02  0.18727007233E+02  0.00000000000E+00 0. -1.
         11    1    3    3    0    0 -0.70359159406E+01  0.28221167027E+01 -0.15324418189E+01  0.77341343405E+01  0.51100000000E-03 0. -1.
        -11    1    3    3    0    0  0.60714655387E+01 -0.31033435658E+02 -0.62324065166E+00  0.31627918865E+02  0.51100000000E-03 0.  1.
        -12    1    3    3    0    0 -0.11154443167E+02  0.28712447538E+02 -0.12112537064E+02  0.33098939562E+02  0.00000000000E+00 0.  1.
</event>
<event>
 8    1  0.1333056E-013  0.7246157E+02  0.7816164E-02  0.1226708E+00
        -11   -1    0    0    0    0  0.00000000000E+00  0.00000000000E+00  0.45593999997E+02  0.45594000000E+02  0.51100000000E-03 0.  1.
         11   -1    0    0    0    0 -0.00000000000E+00 -0.00000000000E+00 -0.45593999997E+02  0.45594000000E+02  0.51100000000E-03 0. -1.
    9900012    2    1    2    0    0  0.29889947081E+01 -0.64320247883E+01  0.17331303968E+02  0.72461571363E+02  0.70000001393E+02 0.  0.
         24    2    3    3    0    0 -0.78849917058E+01 -0.16422882340E+02  0.69081069564E+01  0.54386620427E+02  0.50776947340E+02 0.  0.
         12    1    1    2    0    0 -0.29889947081E+01  0.64320247883E+01 -0.17331303968E+02  0.18726428637E+02  0.00000000000E+00 0. -1.
         11    1    3    3    0    0  0.10873986414E+02  0.99908575516E+01  0.10423197012E+02  0.18074950936E+02  0.51100000000E-03 0. -1.
        -11    1    4    4    0    0 -0.24980836711E+02 -0.10920950710E+02  0.18557279017E+02  0.32980023832E+02  0.51100000000E-03 0.  1.
         12    1    4    4    0    0  0.17095845005E+02 -0.55019316302E+01 -0.11649172060E+02  0.21406596595E+02  0.00000000000E+00 0. -1.
</event>
<event>
 7    1  0.1333056E-013  0.7246157E+02  0.7816164E-02  0.1226708E+00
        -11   -1    0    0    0    0  0.00000000000E+00  0.00000000000E+00  0.45593999997E+02  0.45594000000E+02  0.51100000000E-03 0.  1.
         11   -1    0    0    0    0 -0.00000000000E+00 -0.00000000000E+00 -0.45593999997E+02  0.45594000000E+02  0.51100000000E-03 0. -1.
    9900012    2    1    2    0    0 -0.10442730592E+02 -0.12792690888E+02  0.88303725882E+01  0.72461573688E+02  0.70000004421E+02 0.  0.
         12    1    1    2    0    0  0.10442730592E+02  0.12792690888E+02 -0.88303725882E+01  0.18726426312E+02  0.00000000000E+00 0. -1.
         11    1    3    3    0    0 -0.10910268839E+02 -0.61616941485E+01  0.30186885381E+02  0.32684070894E+02  0.51100000000E-03 0.  1.
        -11    1    3    3    0    0 -0.17386848694E+01  0.85606348780E+01 -0.22744081728E+02  0.24363923093E+02  0.51100000000E-03 0. -1.
         12    1    3    3    0    0  0.22062231172E+01 -0.15191631618E+02  0.13875689357E+01  0.15413579701E+02  0.00000000000E+00 0. -1.
</event>
<event>
 7    1  0.1333056E-013  0.7246166E+02  0.7816164E-02  0.1226708E+00
        -11   -1    0    0    0    0  0.00000000000E+00  0.00000000000E+00  0.45593999997E+02  0.45594000000E+02  0.51100000000E-03 0. -1.
         11   -1    0    0    0    0 -0.00000000000E+00 -0.00000000000E+00 -0.45593999997E+02  0.45594000000E+02  0.51100000000E-03 0.  1.
    9900012    2    1    2    0    0 -0.15900961344E+02 -0.76569968729E+00 -0.98614906574E+01  0.72461658508E+02  0.70000114915E+02 0.  0.
         12    1    1    2    0    0  0.15900961344E+02  0.76569968729E+00  0.98614906574E+01  0.18726341492E+02  0.00000000000E+00 0. -1.
         11    1    3    3    0    0 -0.23620021739E+02  0.52733386364E+01 -0.30226654598E+01  0.24389547640E+02  0.51100000000E-03 0. -1.
        -11    1    3    3    0    0  0.14075637064E+02 -0.24271601554E+02 -0.17934695606E+01  0.28114955701E+02  0.51100000000E-03 0.  1.
        -12    1    3    3    0    0 -0.63565766691E+01  0.18232563230E+02 -0.50453556370E+01  0.19957155168E+02  0.00000000000E+00 0.  1.
</event>
<event>
 8    1  0.1333056E-013  0.7246151E+02  0.7816164E-02  0.1226708E+00
        -11   -1    0    0    0    0  0.00000000000E+00  0.00000000000E+00  0.45593999997E+02  0.45594000000E+02  0.51100000000E-03 0.  1.
         11   -1    0    0    0    0 -0.00000000000E+00 -0.00000000000E+00 -0.45593999997E+02  0.45594000000E+02  0.51100000000E-03 0. -1.
    9900012    2    1    2    0    0 -0.75699063603E+01 -0.12184168501E+02  0.12038430004E+02  0.72461514977E+02  0.69999927938E+02 0.  0.
         24    2    3    3    0    0 -0.12191836594E+02 -0.65621344402E+01  0.24880704712E+02  0.57700298021E+02  0.50185380708E+02 0.  0.
         12    1    1    2    0    0  0.75699063603E+01  0.12184168501E+02 -0.12038430004E+02  0.18726485023E+02  0.00000000000E+00 0. -1.
         11    1    3    3    0    0  0.46219302335E+01 -0.56220340610E+01 -0.12842274708E+02  0.14761216956E+02  0.51100000000E-03 0. -1.
        -11    1    4    4    0    0  0.14134037722E+02 -0.52387364620E+00  0.27131911617E+02  0.30597158269E+02  0.51100000000E-03 0.  1.
         12    1    4    4    0    0 -0.26325874315E+02 -0.60382607940E+01 -0.22512069044E+01  0.27103139752E+02  0.00000000000E+00 0. -1.
</event>
<event>
 7    1  0.1333056E-013  0.7246185E+02  0.7816164E-02  0.1226707E+00
        -11   -1    0    0    0    0  0.00000000000E+00  0.00000000000E+00  0.45593999997E+02  0.45594000000E+02  0.51100000000E-03 0.  1.
         11   -1    0    0    0    0 -0.00000000000E+00 -0.00000000000E+00 -0.45593999997E+02  0.45594000000E+02  0.51100000000E-03 0. -1.
    9900012    2    1    2    0    0 -0.15238412567E+02 -0.98720367695E+01 -0.45828431726E+01  0.72461847723E+02  0.70000361402E+02 0.  0.
         12    1    1    2    0    0  0.15238412567E+02  0.98720367695E+01  0.45828431726E+01  0.18726152277E+02  0.00000000000E+00 0. -1.
         11    1    3    3    0    0 -0.34569414015E+02 -0.88505386905E+01  0.16083388262E+01  0.35720626737E+02  0.51100000000E-03 0. -1.
        -11    1    3    3    0    0  0.13428789967E+02 -0.12976956492E+02  0.50019913984E+01  0.19332711087E+02  0.51100000000E-03 0.  1.
         12    1    3    3    0    0  0.59022114808E+01  0.11955458413E+02 -0.11193173397E+02  0.17408509900E+02  0.00000000000E+00 0. -1.
</event>
<event>
 7    1  0.1333056E-013  0.7246160E+02  0.7816164E-02  0.1226708E+00
        -11   -1    0    0    0    0  0.00000000000E+00  0.00000000000E+00  0.45593999997E+02  0.45594000000E+02  0.51100000000E-03 0.  1.
         11   -1    0    0    0    0 -0.00000000000E+00 -0.00000000000E+00 -0.45593999997E+02  0.45594000000E+02  0.51100000000E-03 0. -1.
    9900012    2    1    2    0    0  0.13448910381E+01  0.71772395522E+01  0.17244029745E+02  0.72461599883E+02  0.70000038545E+02 0.  0.
         12    1    1    2    0    0 -0.13448910381E+01 -0.71772395522E+01 -0.17244029745E+02  0.18726400117E+02  0.00000000000E+00 0. -1.
         11    1    3    3    0    0  0.21286388976E+02  0.78460548081E+01  0.69880022956E+01  0.23738220405E+02  0.51100000000E-03 0. -1.
        -11    1    3    3    0    0 -0.16617932585E+02  0.18960809875E+02  0.13424698580E+02  0.28563797484E+02  0.51100000000E-03 0.  1.
         12    1    3    3    0    0 -0.33235653524E+01 -0.19629625130E+02 -0.31686711304E+01  0.20159581993E+02  0.00000000000E+00 0. -1.
</event>
<event>
 7    1  0.1333056E-013  0.7246111E+02  0.7816164E-02  0.1226709E+00
        -11   -1    0    0    0    0  0.00000000000E+00  0.00000000000E+00  0.45593999997E+02  0.45594000000E+02  0.51100000000E-03 0. -1.
         11   -1    0    0    0    0 -0.00000000000E+00 -0.00000000000E+00 -0.45593999997E+02  0.45594000000E+02  0.51100000000E-03 0.  1.
    9900012    2    1    2    0    0 -0.17185711441E+02 -0.38069535923E+01  0.63917784920E+01  0.72461110091E+02  0.69999400497E+02 0.  0.
         12    1    1    2    0    0  0.17185711441E+02  0.38069535923E+01 -0.63917784920E+01  0.18726889909E+02  0.00000000000E+00 0. -1.
         11    1    3    3    0    0 -0.13956098157E+02 -0.12037184362E+02  0.22375389996E+02  0.28988352159E+02  0.51100000000E-03 0. -1.
        -11    1    3    3    0    0  0.10470438034E+02  0.18417735928E+02 -0.17734242508E+01  0.21260011834E+02  0.51100000000E-03 0.  1.
        -12    1    3    3    0    0 -0.13700051317E+02 -0.10187505158E+02 -0.14210187253E+02  0.22212746098E+02  0.00000000000E+00 0.  1.
</event>
<event>
 7    1  0.1333056E-013  0.7246155E+02  0.7816164E-02  0.1226708E+00
        -11   -1    0    0    0    0  0.00000000000E+00  0.00000000000E+00  0.45593999997E+02  0.45594000000E+02  0.51100000000E-03 0.  1.
         11   -1    0    0    0    0 -0.00000000000E+00 -0.00000000000E+00 -0.45593999997E+02  0.45594000000E+02  0.51100000000E-03 0. -1.
    9900012    2    1    2    0    0  0.92105543872E+01  0.56033041272E+01  0.15311710390E+02  0.72461553345E+02  0.69999977920E+02 0.  0.
         12    1    1    2    0    0 -0.92105543872E+01 -0.56033041272E+01 -0.15311710390E+02  0.18726446655E+02  0.00000000000E+00 0. -1.
         11    1    3    3    0    0  0.28799413756E+02 -0.83263536226E+01  0.83823700724E+00  0.29990615847E+02  0.51100000000E-03 0. -1.
        -11    1    3    3    0    0 -0.12898418896E+02 -0.68339026593E+01 -0.25269508733E+01  0.14814078322E+02  0.51100000000E-03 0.  1.
        -12    1    3    3    0    0 -0.66904404731E+01  0.20763560409E+02  0.17000424256E+02  0.27656859176E+02  0.00000000000E+00 0.  1.
</event>
<event>
 7    1  0.1333056E-013  0.7246156E+02  0.7816164E-02  0.1226708E+00
        -11   -1    0    0    0    0  0.00000000000E+00  0.00000000000E+00  0.45593999997E+02  0.45594000000E+02  0.51100000000E-03 0. -1.
         11   -1    0    0    0    0 -0.00000000000E+00 -0.00000000000E+00 -0.45593999997E+02  0.45594000000E+02  0.51100000000E-03 0.  1.
    9900012    2    1    2    0    0 -0.17615993315E+02 -0.53582484131E+01 -0.34125310889E+01  0.72461563741E+02  0.69999991463E+02 0.  0.
         12    1    1    2    0    0  0.17615993315E+02  0.53582484131E+01  0.34125310889E+01  0.18726436259E+02  0.00000000000E+00 0. -1.
         11    1    3    3    0    0 -0.27569697308E+01  0.13275588334E+02  0.13625301079E+02  0.19222147577E+02  0.51100000000E-03 0. -1.
        -11    1    3    3    0    0 -0.88516593077E+01 -0.32055345443E+02 -0.38315664192E+01  0.33475034660E+02  0.51100000000E-03 0.  1.
        -12    1    3    3    0    0 -0.60073642766E+01  0.13421508696E+02 -0.13206265748E+02  0.19764381504E+02  0.00000000000E+00 0.  1.
</event>
<event>
 7    1  0.1333056E-013  0.7246154E+02  0.7816164E-02  0.1226708E+00
        -11   -1    0    0    0    0  0.00000000000E+00  0.00000000000E+00  0.45593999997E+02  0.45594000000E+02  0.51100000000E-03 0. -1.
         11   -1    0    0    0    0 -0.00000000000E+00 -0.00000000000E+00 -0.45593999997E+02  0.45594000000E+02  0.51100000000E-03 0.  1.
    9900012    2    1    2    0    0  0.65122901340E+01 -0.60085385528E+00 -0.17547344705E+02  0.72461541330E+02  0.69999962268E+02 0.  0.
         12    1    1    2    0    0 -0.65122901340E+01  0.60085385528E+00  0.17547344705E+02  0.18726458670E+02  0.00000000000E+00 0. -1.
         11    1    3    3    0    0  0.96989329987E+01 -0.10879115277E+02  0.13860732203E+02  0.20113287846E+02  0.51100000000E-03 0. -1.
        -11    1    3    3    0    0  0.20764416833E+01  0.17561755017E+02 -0.37521368546E+02  0.41479874001E+02  0.51100000000E-03 0.  1.
         12    1    3    3    0    0 -0.52630845480E+01 -0.72834935955E+01  0.61132916387E+01  0.10868379482E+02  0.00000000000E+00 0. -1.
</event>
<event>
 7    1  0.1333056E-013  0.7246156E+02  0.7816164E-02  0.1226708E+00
        -11   -1    0    0    0    0  0.00000000000E+00  0.00000000000E+00  0.45593999997E+02  0.45594000000E+02  0.51100000000E-03 0.  1.
         11   -1    0    0    0    0 -0.00000000000E+00 -0.00000000000E+00 -0.45593999997E+02  0.45594000000E+02  0.51100000000E-03 0. -1.
    9900012    2    1    2    0    0 -0.51902956409E+00  0.55732576794E+01 -0.17870337076E+02  0.72461560401E+02  0.69999987113E+02 0.  0.
         12    1    1    2    0    0  0.51902956409E+00 -0.55732576794E+01  0.17870337076E+02  0.18726439599E+02  0.00000000000E+00 0. -1.
         11    1    3    3    0    0  0.99724353557E+01  0.20570715348E+02 -0.12565049252E+02  0.26086093226E+02  0.51100000000E-03 0. -1.
        -11    1    3    3    0    0 -0.89199666211E+01 -0.28720394579E+02  0.30571398363E+01  0.30228677998E+02  0.51100000000E-03 0.  1.
         12    1    3    3    0    0 -0.15714982987E+01  0.13722936910E+02 -0.83624276601E+01  0.16146789177E+02  0.00000000000E+00 0. -1.
</event>
<event>
 7    1  0.1333056E-013  0.7246157E+02  0.7816164E-02  0.1226708E+00
        -11   -1    0    0    0    0  0.00000000000E+00  0.00000000000E+00  0.45593999997E+02  0.45594000000E+02  0.51100000000E-03 0.  1.
         11   -1    0    0    0    0 -0.00000000000E+00 -0.00000000000E+00 -0.45593999997E+02  0.45594000000E+02  0.51100000000E-03 0. -1.
    9900012    2    1    2    0    0  0.75674248003E+01 -0.11890045236E+02  0.12330450704E+02  0.72461571927E+02  0.70000002127E+02 0.  0.
         12    1    1    2    0    0 -0.75674248003E+01  0.11890045236E+02 -0.12330450704E+02  0.18726428073E+02  0.00000000000E+00 0. -1.
         11    1    3    3    0    0  0.46202857600E+01  0.35632083634E+01 -0.51349792860E+00  0.58572326852E+01  0.51100000000E-03 0. -1.
        -11    1    3    3    0    0 -0.66648543057E+01 -0.37486821186E+02 -0.23820298909E+01  0.38149129901E+02  0.51100000000E-03 0.  1.
        -12    1    3    3    0    0  0.96119933459E+01  0.22033567587E+02  0.15225978523E+02  0.28455209341E+02  0.00000000000E+00 0.  1.
</event>
<event>
 7    1  0.1333056E-013  0.7246163E+02  0.7816164E-02  0.1226708E+00
        -11   -1    0    0    0    0  0.00000000000E+00  0.00000000000E+00  0.45593999997E+02  0.45594000000E+02  0.51100000000E-03 0.  1.
         11   -1    0    0    0    0 -0.00000000000E+00 -0.00000000000E+00 -0.45593999997E+02  0.45594000000E+02  0.51100000000E-03 0. -1.
    9900012    2    1    2    0    0  0.10784505016E+01 -0.73837485049E+01  0.17175391822E+02  0.72461631379E+02  0.70000079574E+02 0.  0.
         12    1    1    2    0    0 -0.10784505016E+01  0.73837485049E+01 -0.17175391822E+02  0.18726368621E+02  0.00000000000E+00 0. -1.
         11    1    3    3    0    0  0.66363152596E+01  0.15624118452E+02 -0.19233480365E+02  0.25653080222E+02  0.51100000000E-03 0. -1.
        -11    1    3    3    0    0 -0.10240341670E+02 -0.68530254207E+01  0.12282850552E+02  0.17398188782E+02  0.51100000000E-03 0.  1.
         12    1    3    3    0    0  0.46824769125E+01 -0.16154841536E+02  0.24126021635E+02  0.29410362376E+02  0.00000000000E+00 0. -1.
</event>
<event>
 7    1  0.1333056E-013  0.7246162E+02  0.7816164E-02  0.1226708E+00
        -11   -1    0    0    0    0  0.00000000000E+00  0.00000000000E+00  0.45593999997E+02  0.45594000000E+02  0.51100000000E-03 0.  1.
         11   -1    0    0    0    0 -0.00000000000E+00 -0.00000000000E+00 -0.45593999997E+02  0.45594000000E+02  0.51100000000E-03 0. -1.
    9900012    2    1    2    0    0 -0.16039186517E+02  0.95673290167E+01  0.13740138333E+01  0.72461622810E+02  0.70000068412E+02 0.  0.
         12    1    1    2    0    0  0.16039186517E+02 -0.95673290167E+01 -0.13740138333E+01  0.18726377190E+02  0.00000000000E+00 0. -1.
         11    1    3    3    0    0 -0.23775205039E+02 -0.23351372185E+01  0.29828125720E+02  0.38215576991E+02  0.51100000000E-03 0. -1.
        -11    1    3    3    0    0  0.29435143927E+01  0.96647870592E+00  0.29886267839E+00  0.31125033704E+01  0.51100000000E-03 0.  1.
         12    1    3    3    0    0  0.47925041291E+01  0.10935987529E+02 -0.28752974566E+02  0.31133542449E+02  0.00000000000E+00 0. -1.
</event>
<event>
 7    1  0.1333056E-013  0.7246195E+02  0.7816164E-02  0.1226707E+00
        -11   -1    0    0    0    0  0.00000000000E+00  0.00000000000E+00  0.45593999997E+02  0.45594000000E+02  0.51100000000E-03 0.  1.
         11   -1    0    0    0    0 -0.00000000000E+00 -0.00000000000E+00 -0.45593999997E+02  0.45594000000E+02  0.51100000000E-03 0. -1.
    9900012    2    1    2    0    0 -0.15701629947E+02  0.83434616443E+01  0.58745522142E+01  0.72461951326E+02  0.70000496363E+02 0.  0.
         12    1    1    2    0    0  0.15701629947E+02 -0.83434616443E+01 -0.58745522142E+01  0.18726048674E+02  0.00000000000E+00 0. -1.
         11    1    3    3    0    0  0.26235431222E+01  0.79888772010E+01 -0.11613087686E+02  0.14337675659E+02  0.51100000000E-03 0. -1.
        -11    1    3    3    0    0 -0.28304158212E+02  0.10937100928E+02  0.27104940658E+02  0.40686894169E+02  0.51100000000E-03 0.  1.
        -12    1    3    3    0    0  0.99789851423E+01 -0.10582516485E+02 -0.96173007578E+01  0.17437381498E+02  0.00000000000E+00 0.  1.
</event>
<event>
 7    1  0.1333056E-013  0.7246155E+02  0.7816164E-02  0.1226708E+00
        -11   -1    0    0    0    0  0.00000000000E+00  0.00000000000E+00  0.45593999997E+02  0.45594000000E+02  0.51100000000E-03 0. -1.
         11   -1    0    0    0    0 -0.00000000000E+00 -0.00000000000E+00 -0.45593999997E+02  0.45594000000E+02  0.51100000000E-03 0.  1.
    9900012    2    1    2    0    0  0.25447682706E+00  0.15839311911E+02 -0.99865580097E+01  0.72461550759E+02  0.69999974552E+02 0.  0.
         12    1    1    2    0    0 -0.25447682706E+00 -0.15839311911E+02  0.99865580097E+01  0.18726449241E+02  0.00000000000E+00 0. -1.
         11    1    3    3    0    0 -0.33552024240E+02  0.13245106016E+02 -0.52924668973E+01  0.36457939740E+02  0.51100000000E-03 0. -1.
        -11    1    3    3    0    0  0.16571405356E+02 -0.76719282551E+00 -0.75266982267E+01  0.18216784754E+02  0.51100000000E-03 0.  1.
         12    1    3    3    0    0  0.17235095711E+02  0.33613987210E+01  0.28326071143E+01  0.17786826266E+02  0.00000000000E+00 0. -1.
</event>
<event>
 7    1  0.1333056E-013  0.7246154E+02  0.7816164E-02  0.1226708E+00
        -11   -1    0    0    0    0  0.00000000000E+00  0.00000000000E+00  0.45593999997E+02  0.45594000000E+02  0.51100000000E-03 0.  1.
         11   -1    0    0    0    0 -0.00000000000E+00 -0.00000000000E+00 -0.45593999997E+02  0.45594000000E+02  0.51100000000E-03 0. -1.
    9900012    2    1    2    0    0  0.51656316136E+01 -0.12021853316E+02  0.13396698536E+02  0.72461541745E+02  0.69999962809E+02 0.  0.
         12    1    1    2    0    0 -0.51656316136E+01  0.12021853316E+02 -0.13396698536E+02  0.18726458255E+02  0.00000000000E+00 0. -1.
         11    1    3    3    0    0  0.55507724307E+01 -0.14814976363E+02 -0.13057434197E+02  0.20513195443E+02  0.51100000000E-03 0. -1.
        -11    1    3    3    0    0  0.17804279662E+02 -0.10319455329E+02  0.19803420491E+02  0.28559744326E+02  0.51100000000E-03 0.  1.
         12    1    3    3    0    0 -0.18189420480E+02  0.13112578376E+02  0.66507122428E+01  0.23388601976E+02  0.00000000000E+00 0. -1.
</event>
<event>
 7    1  0.1333056E-013  0.7246148E+02  0.7816164E-02  0.1226708E+00
        -11   -1    0    0    0    0  0.00000000000E+00  0.00000000000E+00  0.45593999997E+02  0.45594000000E+02  0.51100000000E-03 0.  1.
         11   -1    0    0    0    0 -0.00000000000E+00 -0.00000000000E+00 -0.45593999997E+02  0.45594000000E+02  0.51100000000E-03 0. -1.
    9900012    2    1    2    0    0 -0.13538558065E+02 -0.12491021341E+02 -0.33710828946E+01  0.72461484881E+02  0.69999888733E+02 0.  0.
         12    1    1    2    0    0  0.13538558065E+02  0.12491021341E+02  0.33710828946E+01  0.18726515119E+02  0.00000000000E+00 0. -1.
         11    1    3    3    0    0 -0.42308794956E+01 -0.39565565942E+02 -0.37531752368E+01  0.39967745424E+02  0.51100000000E-03 0. -1.
        -11    1    3    3    0    0 -0.98074852950E+01  0.78283897686E+01  0.34115737349E+01  0.13004202774E+02  0.51100000000E-03 0.  1.
         12    1    3    3    0    0  0.49980672539E+00  0.19246154833E+02 -0.30294813927E+01  0.19489536683E+02  0.00000000000E+00 0. -1.
</event>
<event>
 7    1  0.1333056E-013  0.7246157E+02  0.7816164E-02  0.1226708E+00
        -11   -1    0    0    0    0  0.00000000000E+00  0.00000000000E+00  0.45593999997E+02  0.45594000000E+02  0.51100000000E-03 0. -1.
         11   -1    0    0    0    0 -0.00000000000E+00 -0.00000000000E+00 -0.45593999997E+02  0.45594000000E+02  0.51100000000E-03 0.  1.
    9900012    2    1    2    0    0  0.14636590746E+02 -0.11104285101E+02  0.36254902887E+01  0.72461571721E+02  0.70000001858E+02 0.  0.
         12    1    1    2    0    0 -0.14636590746E+02  0.11104285101E+02 -0.36254902887E+01  0.18726428279E+02  0.00000000000E+00 0. -1.
         11    1    3    3    0    0 -0.21837791711E+02  0.88598528420E+01  0.38356785583E+01  0.23876736993E+02  0.51100000000E-03 0. -1.
        -11    1    3    3    0    0  0.99432955426E+01 -0.18175894885E+02 -0.55812615163E+01  0.21456531907E+02  0.51100000000E-03 0.  1.
         12    1    3    3    0    0  0.26531086914E+02 -0.17882430584E+01  0.53710732467E+01  0.27128302820E+02  0.00000000000E+00 0. -1.
</event>
<event>
 7    1  0.1333056E-013  0.7246172E+02  0.7816164E-02  0.1226708E+00
        -11   -1    0    0    0    0  0.00000000000E+00  0.00000000000E+00  0.45593999997E+02  0.45594000000E+02  0.51100000000E-03 0.  1.
         11   -1    0    0    0    0 -0.00000000000E+00 -0.00000000000E+00 -0.45593999997E+02  0.45594000000E+02  0.51100000000E-03 0. -1.
    9900012    2    1    2    0    0 -0.14314657718E+02  0.10107215269E+02  0.66036506333E+01  0.72461723601E+02  0.70000199710E+02 0.  0.
         12    1    1    2    0    0  0.14314657718E+02 -0.10107215269E+02 -0.66036506333E+01  0.18726276399E+02  0.00000000000E+00 0. -1.
         11    1    3    3    0    0  0.20186258730E+02  0.12038578864E+02 -0.11477022982E+02  0.26155964508E+02  0.51100000000E-03 0. -1.
        -11    1    3    3    0    0 -0.25827392574E+02  0.78503863646E+01  0.19287743140E+02  0.33176796243E+02  0.51100000000E-03 0.  1.
         12    1    3    3    0    0 -0.86735238742E+01 -0.97817499593E+01 -0.12070695249E+01  0.13128962849E+02  0.00000000000E+00 0. -1.
</event>
<event>
 7    1  0.1333056E-013  0.7246162E+02  0.7816164E-02  0.1226708E+00
        -11   -1    0    0    0    0  0.00000000000E+00  0.00000000000E+00  0.45593999997E+02  0.45594000000E+02  0.51100000000E-03 0.  1.
         11   -1    0    0    0    0 -0.00000000000E+00 -0.00000000000E+00 -0.45593999997E+02  0.45594000000E+02  0.51100000000E-03 0. -1.
    9900012    2    1    2    0    0 -0.12024861456E+02  0.65931787396E+01  0.12751868361E+02  0.72461616323E+02  0.70000059961E+02 0.  0.
         12    1    1    2    0    0  0.12024861456E+02 -0.65931787396E+01 -0.12751868361E+02  0.18726383677E+02  0.00000000000E+00 0. -1.
         11    1    3    3    0    0 -0.60142050645E+01  0.60621745801E+01 -0.55077530602E+01  0.10161494340E+02  0.51100000000E-03 0. -1.
        -11    1    3    3    0    0 -0.85002579381E+01  0.66116716842E+01  0.39044002368E+02  0.40501885248E+02  0.51100000000E-03 0.  1.
        -12    1    3    3    0    0  0.24896015466E+01 -0.60806675247E+01 -0.20784380946E+02  0.21798236734E+02  0.00000000000E+00 0.  1.
</event>
<event>
 7    1  0.1333056E-013  0.7246156E+02  0.7816164E-02  0.1226708E+00
        -11   -1    0    0    0    0  0.00000000000E+00  0.00000000000E+00  0.45593999997E+02  0.45594000000E+02  0.51100000000E-03 0. -1.
         11   -1    0    0    0    0 -0.00000000000E+00 -0.00000000000E+00 -0.45593999997E+02  0.45594000000E+02  0.51100000000E-03 0.  1.
    9900012    2    1    2    0    0  0.43928615549E+01 -0.13640136826E+02 -0.12055252409E+02  0.72461556774E+02  0.69999982387E+02 0.  0.
         12    1    1    2    0    0 -0.43928615549E+01  0.13640136826E+02  0.12055252409E+02  0.18726443226E+02  0.00000000000E+00 0. -1.
         11    1    3    3    0    0  0.25117135121E+02 -0.14892723765E+02 -0.40393220592E+01  0.29478463678E+02  0.51100000000E-03 0. -1.
        -11    1    3    3    0    0 -0.25402478731E+02  0.43679524022E+01  0.72002053976E+01  0.26762060681E+02  0.51100000000E-03 0.  1.
        -12    1    3    3    0    0  0.46782051643E+01 -0.31153654634E+01 -0.15216135747E+02  0.16221032415E+02  0.00000000000E+00 0.  1.
</event>
<event>
 7    1  0.1333056E-013  0.7246159E+02  0.7816164E-02  0.1226708E+00
        -11   -1    0    0    0    0  0.00000000000E+00  0.00000000000E+00  0.45593999997E+02  0.45594000000E+02  0.51100000000E-03 0.  1.
         11   -1    0    0    0    0 -0.00000000000E+00 -0.00000000000E+00 -0.45593999997E+02  0.45594000000E+02  0.51100000000E-03 0. -1.
    9900012    2    1    2    0    0 -0.14502455838E+02  0.11650928248E+02  0.21477866972E+01  0.72461592387E+02  0.70000028780E+02 0.  0.
         12    1    1    2    0    0  0.14502455838E+02 -0.11650928248E+02 -0.21477866972E+01  0.18726407613E+02  0.00000000000E+00 0. -1.
         11    1    3    3    0    0 -0.97514379375E+01 -0.80483629386E+01 -0.24622795523E+01  0.12881362843E+02  0.51100000000E-03 0. -1.
        -11    1    3    3    0    0 -0.15631643179E+02  0.31835912891E+02  0.16782540106E+02  0.39236810150E+02  0.51100000000E-03 0.  1.
        -12    1    3    3    0    0  0.10880625278E+02 -0.12136621705E+02 -0.12172473857E+02  0.20343419394E+02  0.00000000000E+00 0.  1.
</event>
<event>
 7    1  0.1333056E-013  0.7246156E+02  0.7816164E-02  0.1226708E+00
        -11   -1    0    0    0    0  0.00000000000E+00  0.00000000000E+00  0.45593999997E+02  0.45594000000E+02  0.51100000000E-03 0.  1.
         11   -1    0    0    0    0 -0.00000000000E+00 -0.00000000000E+00 -0.45593999997E+02  0.45594000000E+02  0.51100000000E-03 0. -1.
    9900012    2    1    2    0    0 -0.13904848739E+02  0.12119399944E+02 -0.32334060116E+01  0.72461559123E+02  0.69999985448E+02 0.  0.
         12    1    1    2    0    0  0.13904848739E+02 -0.12119399944E+02  0.32334060116E+01  0.18726440877E+02  0.00000000000E+00 0. -1.
         11    1    3    3    0    0  0.20213825877E+02  0.50549111516E+01  0.16380957972E+02  0.26504465052E+02  0.51100000000E-03 0. -1.
        -11    1    3    3    0    0 -0.17937033581E+02 -0.57241479181E+01 -0.21865144569E+01  0.18954785380E+02  0.51100000000E-03 0.  1.
         12    1    3    3    0    0 -0.16181641035E+02  0.12788636711E+02 -0.17427849527E+02  0.27002308691E+02  0.00000000000E+00 0. -1.
</event>
<event>
 7    1  0.1333056E-013  0.7246182E+02  0.7816164E-02  0.1226707E+00
        -11   -1    0    0    0    0  0.00000000000E+00  0.00000000000E+00  0.45593999997E+02  0.45594000000E+02  0.51100000000E-03 0. -1.
         11   -1    0    0    0    0 -0.00000000000E+00 -0.00000000000E+00 -0.45593999997E+02  0.45594000000E+02  0.51100000000E-03 0.  1.
    9900012    2    1    2    0    0  0.13622974831E+01 -0.12278568356E+02 -0.14073043668E+02  0.72461824380E+02  0.70000330992E+02 0.  0.
         12    1    1    2    0    0 -0.13622974831E+01  0.12278568356E+02  0.14073043668E+02  0.18726175620E+02  0.00000000000E+00 0. -1.
         11    1    3    3    0    0 -0.17690298523E+02 -0.16894449529E+02 -0.16866333362E+02  0.29712662083E+02  0.51100000000E-03 0. -1.
        -11    1    3    3    0    0  0.82717429417E+01  0.70261869245E+01 -0.16949143395E+02  0.20126164465E+02  0.51100000000E-03 0.  1.
         12    1    3    3    0    0  0.10780853064E+02 -0.24103057512E+01  0.19742433089E+02  0.22622997832E+02  0.00000000000E+00 0. -1.
</event>
<event>
 7    1  0.1333056E-013  0.7246153E+02  0.7816164E-02  0.1226708E+00
        -11   -1    0    0    0    0  0.00000000000E+00  0.00000000000E+00  0.45593999997E+02  0.45594000000E+02  0.51100000000E-03 0.  1.
         11   -1    0    0    0    0 -0.00000000000E+00 -0.00000000000E+00 -0.45593999997E+02  0.45594000000E+02  0.51100000000E-03 0. -1.
    9900012    2    1    2    0    0 -0.13679849711E+02  0.12025569840E+02  0.43506588604E+01  0.72461525409E+02  0.69999941528E+02 0.  0.
         12    1    1    2    0    0  0.13679849711E+02 -0.12025569840E+02 -0.43506588604E+01  0.18726474591E+02  0.00000000000E+00 0. -1.
         11    1    3    3    0    0 -0.54454375317E+01 -0.25353172951E+02 -0.42923300327E+01  0.26284220855E+02  0.51100000000E-03 0. -1.
        -11    1    3    3    0    0 -0.12925085553E+01  0.26017683066E+02  0.16386554247E+02  0.30775145342E+02  0.51100000000E-03 0.  1.
         12    1    3    3    0    0 -0.69419036246E+01  0.11361059724E+02 -0.77435653538E+01  0.15402159211E+02  0.00000000000E+00 0. -1.
</event>
<event>
 7    1  0.1333056E-013  0.7246146E+02  0.7816164E-02  0.1226708E+00
        -11   -1    0    0    0    0  0.00000000000E+00  0.00000000000E+00  0.45593999997E+02  0.45594000000E+02  0.51100000000E-03 0. -1.
         11   -1    0    0    0    0 -0.00000000000E+00 -0.00000000000E+00 -0.45593999997E+02  0.45594000000E+02  0.51100000000E-03 0.  1.
    9900012    2    1    2    0    0  0.58470321735E+01 -0.12251107741E+02 -0.12899845488E+02  0.72461456279E+02  0.69999851474E+02 0.  0.
         12    1    1    2    0    0 -0.58470321735E+01  0.12251107741E+02  0.12899845488E+02  0.18726543721E+02  0.00000000000E+00 0. -1.
         11    1    3    3    0    0  0.10578128920E+02 -0.15764853865E+02  0.25935507335E+02  0.32141530297E+02  0.51100000000E-03 0. -1.
        -11    1    3    3    0    0 -0.29821410815E+00  0.52827309722E+01 -0.27762927036E+02  0.28262630735E+02  0.51100000000E-03 0.  1.
        -12    1    3    3    0    0 -0.44328826379E+01 -0.17689848482E+01 -0.11072425787E+02  0.12057295247E+02  0.00000000000E+00 0.  1.
</event>
<event>
 7    1  0.1333056E-013  0.7246148E+02  0.7816164E-02  0.1226708E+00
        -11   -1    0    0    0    0  0.00000000000E+00  0.00000000000E+00  0.45593999997E+02  0.45594000000E+02  0.51100000000E-03 0.  1.
         11   -1    0    0    0    0 -0.00000000000E+00 -0.00000000000E+00 -0.45593999997E+02  0.45594000000E+02  0.51100000000E-03 0. -1.
    9900012    2    1    2    0    0  0.99178528439E+01  0.13610094856E+02  0.81904841688E+01  0.72461480891E+02  0.69999883535E+02 0.  0.
         12    1    1    2    0    0 -0.99178528439E+01 -0.13610094856E+02 -0.81904841688E+01  0.18726519109E+02  0.00000000000E+00 0. -1.
         11    1    3    3    0    0 -0.76964807793E+01  0.30710416488E+02 -0.11644319168E+02  0.33733598479E+02  0.51100000000E-03 0. -1.
        -11    1    3    3    0    0 -0.21181473051E+01 -0.12859821577E+02  0.67841239600E+01  0.14693056086E+02  0.51100000000E-03 0.  1.
         12    1    3    3    0    0  0.19732480928E+02 -0.42405000549E+01  0.13050679376E+02  0.24034826325E+02  0.00000000000E+00 0. -1.
</event>
<event>
 7    1  0.1333056E-013  0.7246161E+02  0.7816164E-02  0.1226708E+00
        -11   -1    0    0    0    0  0.00000000000E+00  0.00000000000E+00  0.45593999997E+02  0.45594000000E+02  0.51100000000E-03 0. -1.
         11   -1    0    0    0    0 -0.00000000000E+00 -0.00000000000E+00 -0.45593999997E+02  0.45594000000E+02  0.51100000000E-03 0.  1.
    9900012    2    1    2    0    0  0.40264167492E+01 -0.46415745524E+01 -0.17689590115E+02  0.72461605670E+02  0.70000046084E+02 0.  0.
         12    1    1    2    0    0 -0.40264167492E+01  0.46415745524E+01  0.17689590115E+02  0.18726394330E+02  0.00000000000E+00 0. -1.
         11    1    3    3    0    0 -0.84551503906E+01  0.98562587473E+01 -0.29898724887E+02  0.32597072794E+02  0.51100000000E-03 0.  1.
        -11    1    3    3    0    0  0.14485797173E+02 -0.42695082053E+01  0.21248137995E+02  0.26068187290E+02  0.51100000000E-03 0. -1.
         12    1    3    3    0    0 -0.20042300334E+01 -0.10228325094E+02 -0.90390032230E+01  0.13796345586E+02  0.00000000000E+00 0. -1.
</event>
<event>
 7    1  0.1333056E-013  0.7246156E+02  0.7816164E-02  0.1226708E+00
        -11   -1    0    0    0    0  0.00000000000E+00  0.00000000000E+00  0.45593999997E+02  0.45594000000E+02  0.51100000000E-03 0.  1.
         11   -1    0    0    0    0 -0.00000000000E+00 -0.00000000000E+00 -0.45593999997E+02  0.45594000000E+02  0.51100000000E-03 0. -1.
    9900012    2    1    2    0    0  0.60677027580E+00 -0.16768526148E+02  0.83143242314E+01  0.72461558086E+02  0.69999984096E+02 0.  0.
         12    1    1    2    0    0 -0.60677027580E+00  0.16768526148E+02 -0.83143242314E+01  0.18726441914E+02  0.00000000000E+00 0. -1.
         11    1    3    3    0    0 -0.90115333902E+01 -0.35380301981E+02  0.31989963151E+01  0.36649789631E+02  0.51100000000E-03 0. -1.
        -11    1    3    3    0    0 -0.80113006293E+01  0.11381487721E+02  0.87128123077E+01  0.16420484131E+02  0.51100000000E-03 0.  1.
         12    1    3    3    0    0  0.17629604295E+02  0.72302881125E+01 -0.35974843914E+01  0.19391284324E+02  0.00000000000E+00 0. -1.
</event>
<event>
 7    1  0.1333056E-013  0.7246157E+02  0.7816164E-02  0.1226708E+00
        -11   -1    0    0    0    0  0.00000000000E+00  0.00000000000E+00  0.45593999997E+02  0.45594000000E+02  0.51100000000E-03 0. -1.
         11   -1    0    0    0    0 -0.00000000000E+00 -0.00000000000E+00 -0.45593999997E+02  0.45594000000E+02  0.51100000000E-03 0.  1.
    9900012    2    1    2    0    0 -0.60815119332E+01  0.13974297961E+02 -0.10881799790E+02  0.72461565273E+02  0.69999993459E+02 0.  0.
         12    1    1    2    0    0  0.60815119332E+01 -0.13974297961E+02  0.10881799790E+02  0.18726434727E+02  0.00000000000E+00 0. -1.
         11    1    3    3    0    0  0.15903278624E+02  0.24017033933E+02  0.18157810298E+02  0.34050525179E+02  0.51100000000E-03 0. -1.
        -11    1    3    3    0    0 -0.48806442765E+01 -0.18677533016E-01 -0.31749723642E+01  0.58224983623E+01  0.51100000000E-03 0.  1.
         12    1    3    3    0    0 -0.17104146281E+02 -0.10024058438E+02 -0.25864637724E+02  0.32588541731E+02  0.00000000000E+00 0. -1.
</event>
<event>
 7    1  0.1333056E-013  0.7246161E+02  0.7816164E-02  0.1226708E+00
        -11   -1    0    0    0    0  0.00000000000E+00  0.00000000000E+00  0.45593999997E+02  0.45594000000E+02  0.51100000000E-03 0. -1.
         11   -1    0    0    0    0 -0.00000000000E+00 -0.00000000000E+00 -0.45593999997E+02  0.45594000000E+02  0.51100000000E-03 0.  1.
    9900012    2    1    2    0    0 -0.46695272356E+00 -0.13282634368E+02 -0.13192088541E+02  0.72461611649E+02  0.70000053872E+02 0.  0.
         12    1    1    2    0    0  0.46695272356E+00  0.13282634368E+02  0.13192088541E+02  0.18726388351E+02  0.00000000000E+00 0. -1.
         11    1    3    3    0    0 -0.65536419961E+01  0.16162684835E+02  0.75801214388E-01  0.17440996261E+02  0.51100000000E-03 0. -1.
        -11    1    3    3    0    0  0.38571240412E+01 -0.26615853139E+02  0.12034047048E+02  0.29463525465E+02  0.51100000000E-03 0.  1.
         12    1    3    3    0    0  0.22295652313E+01 -0.28294660638E+01 -0.25301936804E+02  0.25557089923E+02  0.00000000000E+00 0. -1.
</event>
<event>
 7    1  0.1333056E-013  0.7246156E+02  0.7816164E-02  0.1226708E+00
        -11   -1    0    0    0    0  0.00000000000E+00  0.00000000000E+00  0.45593999997E+02  0.45594000000E+02  0.51100000000E-03 0. -1.
         11   -1    0    0    0    0 -0.00000000000E+00 -0.00000000000E+00 -0.45593999997E+02  0.45594000000E+02  0.51100000000E-03 0.  1.
    9900012    2    1    2    0    0  0.13113000244E+01  0.18644137260E+02  0.11646203554E+01  0.72461556064E+02  0.69999981462E+02 0.  0.
         12    1    1    2    0    0 -0.13113000244E+01 -0.18644137260E+02 -0.11646203554E+01  0.18726443936E+02  0.00000000000E+00 0. -1.
         11    1    3    3    0    0 -0.18216826278E+02  0.37209898101E+02  0.83328689929E+00  0.41438190642E+02  0.51100000000E-03 0. -1.
        -11    1    3    3    0    0  0.16593952966E+02 -0.52902904638E+01  0.55455675083E+00  0.17425670193E+02  0.51100000000E-03 0.  1.
         12    1    3    3    0    0  0.29341733361E+01 -0.13275470377E+02 -0.22322329474E+00  0.13597695229E+02  0.00000000000E+00 0. -1.
</event>
<event>
 7    1  0.1333056E-013  0.7246155E+02  0.7816164E-02  0.1226708E+00
        -11   -1    0    0    0    0  0.00000000000E+00  0.00000000000E+00  0.45593999997E+02  0.45594000000E+02  0.51100000000E-03 0.  1.
         11   -1    0    0    0    0 -0.00000000000E+00 -0.00000000000E+00 -0.45593999997E+02  0.45594000000E+02  0.51100000000E-03 0. -1.
    9900012    2    1    2    0    0  0.17898755395E+01 -0.18023351365E+02  0.47576520826E+01  0.72461545391E+02  0.69999967559E+02 0.  0.
         12    1    1    2    0    0 -0.17898755395E+01  0.18023351365E+02 -0.47576520826E+01  0.18726454609E+02  0.00000000000E+00 0. -1.
         11    1    3    3    0    0 -0.12306766321E+02  0.49087363595E+01 -0.18918530009E+02  0.23096817268E+02  0.51100000000E-03 0. -1.
        -11    1    3    3    0    0  0.29856198285E+01  0.86437196873E+01  0.89475057052E+01  0.12793970236E+02  0.51100000000E-03 0.  1.
         12    1    3    3    0    0  0.11111022032E+02 -0.31575807412E+02  0.14728676387E+02  0.36570757887E+02  0.00000000000E+00 0. -1.
</event>
<event>
 7    1  0.1333056E-013  0.7246159E+02  0.7816164E-02  0.1226708E+00
        -11   -1    0    0    0    0  0.00000000000E+00  0.00000000000E+00  0.45593999997E+02  0.45594000000E+02  0.51100000000E-03 0. -1.
         11   -1    0    0    0    0 -0.00000000000E+00 -0.00000000000E+00 -0.45593999997E+02  0.45594000000E+02  0.51100000000E-03 0.  1.
    9900012    2    1    2    0    0 -0.13208596838E+02  0.13191820762E+02  0.14789743286E+01  0.72461587356E+02  0.70000022226E+02 0.  0.
         12    1    1    2    0    0  0.13208596838E+02 -0.13191820762E+02 -0.14789743286E+01  0.18726412644E+02  0.00000000000E+00 0. -1.
         11    1    3    3    0    0 -0.88765987565E+01  0.88595068085E+01  0.19236364802E+02  0.22963505774E+02  0.51100000000E-03 0. -1.
        -11    1    3    3    0    0 -0.10203238529E+02  0.13491910367E+02 -0.29176703918E+02  0.33725624881E+02  0.51100000000E-03 0.  1.
        -12    1    3    3    0    0  0.58712404467E+01 -0.91595964137E+01  0.11419313445E+02  0.15772456701E+02  0.00000000000E+00 0.  1.
</event>
<event>
 7    1  0.1333056E-013  0.7246157E+02  0.7816164E-02  0.1226708E+00
        -11   -1    0    0    0    0  0.00000000000E+00  0.00000000000E+00  0.45593999997E+02  0.45594000000E+02  0.51100000000E-03 0. -1.
         11   -1    0    0    0    0 -0.00000000000E+00 -0.00000000000E+00 -0.45593999997E+02  0.45594000000E+02  0.51100000000E-03 0.  1.
    9900012    2    1    2    0    0 -0.14282407842E+02 -0.11131542262E+02  0.47729046884E+01  0.72461574124E+02  0.70000004989E+02 0.  0.
         12    1    1    2    0    0  0.14282407842E+02  0.11131542262E+02 -0.47729046884E+01  0.18726425876E+02  0.00000000000E+00 0. -1.
         11    1    3    3    0    0 -0.23382818786E+02 -0.21542155556E+02  0.11082361811E+02  0.33669562278E+02  0.51100000000E-03 0. -1.
        -11    1    3    3    0    0 -0.34211413282E+01  0.83500398347E+01 -0.18882683844E+02  0.20928046317E+02  0.51100000000E-03 0.  1.
         12    1    3    3    0    0  0.12521552272E+02  0.20605734594E+01  0.12573226721E+02  0.17863965530E+02  0.00000000000E+00 0. -1.
</event>
<event>
 7    1  0.1333056E-013  0.7246163E+02  0.7816164E-02  0.1226708E+00
        -11   -1    0    0    0    0  0.00000000000E+00  0.00000000000E+00  0.45593999997E+02  0.45594000000E+02  0.51100000000E-03 0. -1.
         11   -1    0    0    0    0 -0.00000000000E+00 -0.00000000000E+00 -0.45593999997E+02  0.45594000000E+02  0.51100000000E-03 0.  1.
    9900012    2    1    2    0    0  0.73413124001E+01  0.66790913411E+01 -0.15879921266E+02  0.72461627465E+02  0.70000074476E+02 0.  0.
         12    1    1    2    0    0 -0.73413124001E+01 -0.66790913411E+01  0.15879921266E+02  0.18726372535E+02  0.00000000000E+00 0. -1.
         11    1    3    3    0    0  0.13036167625E+02 -0.79938544545E+01 -0.25073498172E+02  0.29368753570E+02  0.51100000000E-03 0. -1.
        -11    1    3    3    0    0 -0.91345998646E+01  0.22413271067E+02 -0.66736136959E+01  0.25106428552E+02  0.51100000000E-03 0.  1.
         12    1    3    3    0    0  0.34397446394E+01 -0.77403252719E+01  0.15867190602E+02  0.17986445344E+02  0.00000000000E+00 0. -1.
</event>
<event>
 7    1  0.1333056E-013  0.7246156E+02  0.7816164E-02  0.1226708E+00
        -11   -1    0    0    0    0  0.00000000000E+00  0.00000000000E+00  0.45593999997E+02  0.45594000000E+02  0.51100000000E-03 0. -1.
         11   -1    0    0    0    0 -0.00000000000E+00 -0.00000000000E+00 -0.45593999997E+02  0.45594000000E+02  0.51100000000E-03 0.  1.
    9900012    2    1    2    0    0 -0.11903344513E+02  0.52786536649E+01 -0.13458297244E+02  0.72461559874E+02  0.69999986425E+02 0.  0.
         12    1    1    2    0    0  0.11903344513E+02 -0.52786536649E+01  0.13458297244E+02  0.18726440126E+02  0.00000000000E+00 0. -1.
         11    1    3    3    0    0 -0.16618216479E+02 -0.68618385157E+00  0.19368257686E+02  0.25529695910E+02  0.51100000000E-03 0. -1.
        -11    1    3    3    0    0 -0.13196259499E+02 -0.23282222766E+01 -0.16912003130E+02  0.21577250377E+02  0.51100000000E-03 0.  1.
         12    1    3    3    0    0  0.17911131465E+02  0.82930597931E+01 -0.15914551801E+02  0.25354613586E+02  0.00000000000E+00 0. -1.
</event>
<event>
 7    1  0.1333056E-013  0.7246159E+02  0.7816164E-02  0.1226708E+00
        -11   -1    0    0    0    0  0.00000000000E+00  0.00000000000E+00  0.45593999997E+02  0.45594000000E+02  0.51100000000E-03 0. -1.
         11   -1    0    0    0    0 -0.00000000000E+00 -0.00000000000E+00 -0.45593999997E+02  0.45594000000E+02  0.51100000000E-03 0.  1.
    9900012    2    1    2    0    0 -0.18585895648E+02  0.53014012819E-01 -0.22891578794E+01  0.72461586267E+02  0.70000020807E+02 0.  0.
         12    1    1    2    0    0  0.18585895648E+02 -0.53014012819E-01  0.22891578794E+01  0.18726413733E+02  0.00000000000E+00 0. -1.
         11    1    3    3    0    0 -0.16711009487E+02  0.20307843226E+02  0.64364156567E+00  0.26307424984E+02  0.51100000000E-03 0. -1.
        -11    1    3    3    0    0 -0.41513653375E+01 -0.19125866584E+02 -0.20536124964E+02  0.28368380912E+02  0.51100000000E-03 0.  1.
         12    1    3    3    0    0  0.22764791768E+01 -0.11289626286E+01  0.17603325519E+02  0.17785780371E+02  0.00000000000E+00 0. -1.
</event>
<event>
 7    1  0.1333056E-013  0.7246162E+02  0.7816164E-02  0.1226708E+00
        -11   -1    0    0    0    0  0.00000000000E+00  0.00000000000E+00  0.45593999997E+02  0.45594000000E+02  0.51100000000E-03 0.  1.
         11   -1    0    0    0    0 -0.00000000000E+00 -0.00000000000E+00 -0.45593999997E+02  0.45594000000E+02  0.51100000000E-03 0. -1.
    9900012    2    1    2    0    0  0.12058205064E+02 -0.13394684992E+02  0.50852056085E+01  0.72461622574E+02  0.70000068104E+02 0.  0.
         12    1    1    2    0    0 -0.12058205064E+02  0.13394684992E+02 -0.50852056085E+01  0.18726377426E+02  0.00000000000E+00 0. -1.
         11    1    3    3    0    0  0.13121859685E+02 -0.17942390824E+02  0.20113090340E+02  0.29977474766E+02  0.51100000000E-03 0.  1.
        -11    1    3    3    0    0 -0.14026884469E+02  0.16751211745E+02 -0.96609058034E+01  0.23889112248E+02  0.51100000000E-03 0. -1.
        -12    1    3    3    0    0  0.12963229848E+02 -0.12203505913E+02 -0.53669789281E+01  0.18595035560E+02  0.00000000000E+00 0.  1.
</event>
<event>
 7    1  0.1333056E-013  0.7246155E+02  0.7816164E-02  0.1226708E+00
        -11   -1    0    0    0    0  0.00000000000E+00  0.00000000000E+00  0.45593999997E+02  0.45594000000E+02  0.51100000000E-03 0.  1.
         11   -1    0    0    0    0 -0.00000000000E+00 -0.00000000000E+00 -0.45593999997E+02  0.45594000000E+02  0.51100000000E-03 0. -1.
    9900012    2    1    2    0    0  0.31640662012E+01  0.71651200414E+01  0.17009692748E+02  0.72461550589E+02  0.69999974331E+02 0.  0.
         12    1    1    2    0    0 -0.31640662012E+01 -0.71651200414E+01 -0.17009692748E+02  0.18726449411E+02  0.00000000000E+00 0. -1.
         11    1    3    3    0    0 -0.20075074093E+02  0.15504524212E+02 -0.77766799373E+01  0.26530654383E+02  0.51100000000E-03 0.  1.
        -11    1    3    3    0    0  0.20808401806E+02 -0.18374616302E+02  0.21444216490E+02  0.35078063388E+02  0.51100000000E-03 0. -1.
        -12    1    3    3    0    0  0.24307384889E+01  0.10035212132E+02  0.33421561959E+01  0.10852832818E+02  0.00000000000E+00 0.  1.
</event>
<event>
 7    1  0.1333056E-013  0.7246164E+02  0.7816164E-02  0.1226708E+00
        -11   -1    0    0    0    0  0.00000000000E+00  0.00000000000E+00  0.45593999997E+02  0.45594000000E+02  0.51100000000E-03 0. -1.
         11   -1    0    0    0    0 -0.00000000000E+00 -0.00000000000E+00 -0.45593999997E+02  0.45594000000E+02  0.51100000000E-03 0.  1.
    9900012    2    1    2    0    0  0.10036048474E+02 -0.49162108559E+01 -0.15026146683E+02  0.72461642045E+02  0.70000093468E+02 0.  0.
         12    1    1    2    0    0 -0.10036048474E+02  0.49162108559E+01  0.15026146683E+02  0.18726357955E+02  0.00000000000E+00 0. -1.
         11    1    3    3    0    0 -0.12469614186E+02 -0.17390456534E+02  0.10174646616E+02  0.23694781925E+02  0.51100000000E-03 0.  1.
        -11    1    3    3    0    0  0.20732406276E+02  0.21931425487E+02 -0.24923651060E+02  0.39140879861E+02  0.51100000000E-03 0. -1.
        -12    1    3    3    0    0  0.17732563836E+01 -0.94571798083E+01 -0.27714223956E+00  0.96259802591E+01  0.00000000000E+00 0.  1.
</event>
<event>
 7    1  0.1333056E-013  0.7246157E+02  0.7816164E-02  0.1226708E+00
        -11   -1    0    0    0    0  0.00000000000E+00  0.00000000000E+00  0.45593999997E+02  0.45594000000E+02  0.51100000000E-03 0.  1.
         11   -1    0    0    0    0 -0.00000000000E+00 -0.00000000000E+00 -0.45593999997E+02  0.45594000000E+02  0.51100000000E-03 0. -1.
    9900012    2    1    2    0    0 -0.54115161067E+01  0.19824647487E+01  0.17817530772E+02  0.72461572795E+02  0.70000003258E+02 0.  0.
         12    1    1    2    0    0  0.54115161067E+01 -0.19824647487E+01 -0.17817530772E+02  0.18726427205E+02  0.00000000000E+00 0. -1.
         11    1    3    3    0    0  0.99318535546E+01  0.21147417937E+02  0.67430628122E+01  0.24317152316E+02  0.51100000000E-03 0. -1.
        -11    1    3    3    0    0  0.63776415860E+01 -0.23788195363E+02  0.51655931283E+01  0.25164178975E+02  0.51100000000E-03 0.  1.
         12    1    3    3    0    0 -0.21721011247E+02  0.46232421753E+01  0.59088748315E+01  0.22980241504E+02  0.00000000000E+00 0. -1.
</event>
<event>
 7    1  0.1333056E-013  0.7246149E+02  0.7816164E-02  0.1226708E+00
        -11   -1    0    0    0    0  0.00000000000E+00  0.00000000000E+00  0.45593999997E+02  0.45594000000E+02  0.51100000000E-03 0. -1.
         11   -1    0    0    0    0 -0.00000000000E+00 -0.00000000000E+00 -0.45593999997E+02  0.45594000000E+02  0.51100000000E-03 0.  1.
    9900012    2    1    2    0    0 -0.17809875413E+02  0.21375503906E+01 -0.53778744496E+01  0.72461486243E+02  0.69999890508E+02 0.  0.
         12    1    1    2    0    0  0.17809875413E+02 -0.21375503906E+01  0.53778744496E+01  0.18726513757E+02  0.00000000000E+00 0. -1.
         11    1    3    3    0    0 -0.82729475407E+01  0.29149610510E+01  0.82213607277E+00  0.88099129918E+01  0.51100000000E-03 0. -1.
        -11    1    3    3    0    0  0.25677060504E+02 -0.48669251059E+01 -0.10033825007E+02  0.27994214414E+02  0.51100000000E-03 0.  1.
        -12    1    3    3    0    0 -0.35213988376E+02  0.40895144455E+01  0.38338144844E+01  0.35657358837E+02  0.00000000000E+00 0.  1.
</event>
<event>
 7    1  0.1333056E-013  0.7246160E+02  0.7816164E-02  0.1226708E+00
        -11   -1    0    0    0    0  0.00000000000E+00  0.00000000000E+00  0.45593999997E+02  0.45594000000E+02  0.51100000000E-03 0.  1.
         11   -1    0    0    0    0 -0.00000000000E+00 -0.00000000000E+00 -0.45593999997E+02  0.45594000000E+02  0.51100000000E-03 0. -1.
    9900012    2    1    2    0    0  0.11827368362E+02 -0.19922422089E+01  0.14381324161E+02  0.72461597356E+02  0.70000035252E+02 0.  0.
         12    1    1    2    0    0 -0.11827368362E+02  0.19922422089E+01 -0.14381324161E+02  0.18726402644E+02  0.00000000000E+00 0. -1.
         11    1    3    3    0    0  0.12853397840E+02 -0.14580986371E+02 -0.86896356875E+01  0.21291424758E+02  0.51100000000E-03 0. -1.
        -11    1    3    3    0    0  0.13646781483E+02  0.63992546502E+01  0.30176973205E+02  0.33731807200E+02  0.51100000000E-03 0.  1.
        -12    1    3    3    0    0 -0.14672810961E+02  0.61894895118E+01 -0.71060133566E+01  0.17438365397E+02  0.00000000000E+00 0.  1.
</event>
<event>
 7    1  0.1333056E-013  0.7246140E+02  0.7816164E-02  0.1226708E+00
        -11   -1    0    0    0    0  0.00000000000E+00  0.00000000000E+00  0.45593999997E+02  0.45594000000E+02  0.51100000000E-03 0.  1.
         11   -1    0    0    0    0 -0.00000000000E+00 -0.00000000000E+00 -0.45593999997E+02  0.45594000000E+02  0.51100000000E-03 0. -1.
    9900012    2    1    2    0    0 -0.61644742531E+01 -0.15015714667E+01  0.17619030842E+02  0.72461395730E+02  0.69999772597E+02 0.  0.
         12    1    1    2    0    0  0.61644742531E+01  0.15015714667E+01 -0.17619030842E+02  0.18726604270E+02  0.00000000000E+00 0. -1.
         11    1    3    3    0    0 -0.73388558511E+01  0.31244741834E+02  0.15856956639E+02  0.35798544267E+02  0.51100000000E-03 0. -1.
        -11    1    3    3    0    0 -0.25514268657E+01 -0.14176060596E+02 -0.67388383832E+01  0.15902277072E+02  0.51100000000E-03 0.  1.
         12    1    3    3    0    0  0.37258084637E+01 -0.18570252705E+02  0.85009125861E+01  0.20760574391E+02  0.00000000000E+00 0. -1.
</event>
<event>
 7    1  0.1333056E-013  0.7246149E+02  0.7816164E-02  0.1226708E+00
        -11   -1    0    0    0    0  0.00000000000E+00  0.00000000000E+00  0.45593999997E+02  0.45594000000E+02  0.51100000000E-03 0.  1.
         11   -1    0    0    0    0 -0.00000000000E+00 -0.00000000000E+00 -0.45593999997E+02  0.45594000000E+02  0.51100000000E-03 0. -1.
    9900012    2    1    2    0    0  0.98936982605E+01 -0.11022875812E+02  0.11458324216E+02  0.72461488038E+02  0.69999892845E+02 0.  0.
         12    1    1    2    0    0 -0.98936982605E+01  0.11022875812E+02 -0.11458324216E+02  0.18726511962E+02  0.00000000000E+00 0. -1.
         11    1    3    3    0    0 -0.74245667797E+01  0.11544675528E+02 -0.10590330530E+02  0.17336632485E+02  0.51100000000E-03 0. -1.
        -11    1    3    3    0    0 -0.87917962060E+00 -0.21170382745E+02  0.28722164909E+02  0.35692027397E+02  0.51100000000E-03 0.  1.
        -12    1    3    3    0    0  0.18197444661E+02 -0.13971685940E+01 -0.66735101626E+01  0.19432828156E+02  0.00000000000E+00 0.  1.
</event>
<event>
 7    1  0.1333056E-013  0.7246156E+02  0.7816164E-02  0.1226708E+00
        -11   -1    0    0    0    0  0.00000000000E+00  0.00000000000E+00  0.45593999997E+02  0.45594000000E+02  0.51100000000E-03 0. -1.
         11   -1    0    0    0    0 -0.00000000000E+00 -0.00000000000E+00 -0.45593999997E+02  0.45594000000E+02  0.51100000000E-03 0.  1.
    9900012    2    1    2    0    0 -0.77457739977E+01 -0.16942428271E+02 -0.19070149683E+01  0.72461558890E+02  0.69999985144E+02 0.  0.
         12    1    1    2    0    0  0.77457739977E+01  0.16942428271E+02  0.19070149683E+01  0.18726441110E+02  0.00000000000E+00 0. -1.
         11    1    3    3    0    0 -0.69943629037E+01 -0.80616996783E+01  0.16509533617E+02  0.19659013572E+02  0.51100000000E-03 0. -1.
        -11    1    3    3    0    0  0.10952505822E+02 -0.14123113433E+02 -0.30391112076E+02  0.35256764036E+02  0.51100000000E-03 0.  1.
        -12    1    3    3    0    0 -0.11703916916E+02  0.52423848408E+01  0.11974563490E+02  0.17545781282E+02  0.00000000000E+00 0.  1.
</event>
<event>
 7    1  0.1333056E-013  0.7246156E+02  0.7816164E-02  0.1226708E+00
        -11   -1    0    0    0    0  0.00000000000E+00  0.00000000000E+00  0.45593999997E+02  0.45594000000E+02  0.51100000000E-03 0.  1.
         11   -1    0    0    0    0 -0.00000000000E+00 -0.00000000000E+00 -0.45593999997E+02  0.45594000000E+02  0.51100000000E-03 0. -1.
    9900012    2    1    2    0    0  0.14945973561E+02 -0.41379323850E+01  0.10496427698E+02  0.72461558679E+02  0.69999984869E+02 0.  0.
         12    1    1    2    0    0 -0.14945973561E+02  0.41379323850E+01 -0.10496427698E+02  0.18726441321E+02  0.00000000000E+00 0. -1.
         11    1    3    3    0    0  0.13673994132E+02  0.42312346141E+01 -0.17131255002E+02  0.22324008603E+02  0.51100000000E-03 0. -1.
        -11    1    3    3    0    0  0.64732159928E+00 -0.24977964832E+02  0.19143229064E+02  0.31476673453E+02  0.51100000000E-03 0.  1.
        -12    1    3    3    0    0  0.62465783040E+00  0.16608797833E+02  0.84844536360E+01  0.18660876624E+02  0.00000000000E+00 0.  1.
</event>
<event>
 7    1  0.1333056E-013  0.7246158E+02  0.7816164E-02  0.1226708E+00
        -11   -1    0    0    0    0  0.00000000000E+00  0.00000000000E+00  0.45593999997E+02  0.45594000000E+02  0.51100000000E-03 0. -1.
         11   -1    0    0    0    0 -0.00000000000E+00 -0.00000000000E+00 -0.45593999997E+02  0.45594000000E+02  0.51100000000E-03 0.  1.
    9900012    2    1    2    0    0  0.49553800096E+01  0.12994137852E+02 -0.12540951669E+02  0.72461578069E+02  0.70000010128E+02 0.  0.
         12    1    1    2    0    0 -0.49553800096E+01 -0.12994137852E+02  0.12540951669E+02  0.18726421931E+02  0.00000000000E+00 0. -1.
         11    1    3    3    0    0 -0.18913559919E+02 -0.21405973897E+02 -0.23023760848E+01  0.28657274874E+02  0.51100000000E-03 0. -1.
        -11    1    3    3    0    0  0.93809912962E+01  0.74720657808E+01 -0.34862350776E+01  0.12489539624E+02  0.51100000000E-03 0.  1.
         12    1    3    3    0    0  0.14487948632E+02  0.26928045968E+02 -0.67523405071E+01  0.31314763572E+02  0.00000000000E+00 0. -1.
</event>
<event>
 7    1  0.1333056E-013  0.7246156E+02  0.7816164E-02  0.1226708E+00
        -11   -1    0    0    0    0  0.00000000000E+00  0.00000000000E+00  0.45593999997E+02  0.45594000000E+02  0.51100000000E-03 0.  1.
         11   -1    0    0    0    0 -0.00000000000E+00 -0.00000000000E+00 -0.45593999997E+02  0.45594000000E+02  0.51100000000E-03 0. -1.
    9900012    2    1    2    0    0 -0.83006712576E+01  0.15079934880E+02  0.73738626709E+01  0.72461563340E+02  0.69999990940E+02 0.  0.
         12    1    1    2    0    0  0.83006712576E+01 -0.15079934880E+02 -0.73738626709E+01  0.18726436660E+02  0.00000000000E+00 0. -1.
         11    1    3    3    0    0  0.10916427966E+02 -0.42321703161E+00  0.10995122397E+02  0.15499684802E+02  0.51100000000E-03 0. -1.
        -11    1    3    3    0    0 -0.18869419264E+02 -0.14216592170E+02 -0.11409990237E+02  0.26236508033E+02  0.51100000000E-03 0.  1.
        -12    1    3    3    0    0 -0.34767995908E+00  0.29719744082E+02  0.77887305106E+01  0.30725370504E+02  0.00000000000E+00 0.  1.
</event>
<event>
 7    1  0.1333056E-013  0.7246165E+02  0.7816164E-02  0.1226708E+00
        -11   -1    0    0    0    0  0.00000000000E+00  0.00000000000E+00  0.45593999997E+02  0.45594000000E+02  0.51100000000E-03 0.  1.
         11   -1    0    0    0    0 -0.00000000000E+00 -0.00000000000E+00 -0.45593999997E+02  0.45594000000E+02  0.51100000000E-03 0. -1.
    9900012    2    1    2    0    0  0.99212827526E+01 -0.82008304213E+01  0.13601135682E+02  0.72461645232E+02  0.70000097621E+02 0.  0.
         12    1    1    2    0    0 -0.99212827526E+01  0.82008304213E+01 -0.13601135682E+02  0.18726354768E+02  0.00000000000E+00 0. -1.
         11    1    3    3    0    0  0.11063850212E+02 -0.27593880397E+01 -0.13976350811E+02  0.18037776640E+02  0.51100000000E-03 0. -1.
        -11    1    3    3    0    0 -0.23193520785E+02  0.19089387255E+01  0.17359328238E+02  0.29033252153E+02  0.51100000000E-03 0.  1.
        -12    1    3    3    0    0  0.22050953326E+02 -0.73503811071E+01  0.10218158255E+02  0.25390616439E+02  0.00000000000E+00 0.  1.
</event>
<event>
 7    1  0.1333056E-013  0.7246155E+02  0.7816164E-02  0.1226708E+00
        -11   -1    0    0    0    0  0.00000000000E+00  0.00000000000E+00  0.45593999997E+02  0.45594000000E+02  0.51100000000E-03 0.  1.
         11   -1    0    0    0    0 -0.00000000000E+00 -0.00000000000E+00 -0.45593999997E+02  0.45594000000E+02  0.51100000000E-03 0. -1.
    9900012    2    1    2    0    0  0.41103921360E+01 -0.53009577923E+01 -0.17483831211E+02  0.72461552637E+02  0.69999976998E+02 0.  0.
         12    1    1    2    0    0 -0.41103921360E+01  0.53009577923E+01  0.17483831211E+02  0.18726447363E+02  0.00000000000E+00 0. -1.
         11    1    3    3    0    0 -0.22450336805E+02 -0.74316542384E+01  0.73453241231E+00  0.23659810767E+02  0.51100000000E-03 0. -1.
        -11    1    3    3    0    0  0.10369918130E+02  0.17799268098E+02 -0.16150393854E+02  0.26176026604E+02  0.51100000000E-03 0.  1.
         12    1    3    3    0    0  0.16190810811E+02 -0.15668571652E+02 -0.20679697689E+01  0.22625715266E+02  0.00000000000E+00 0. -1.
</event>
<event>
 7    1  0.1333056E-013  0.7246161E+02  0.7816164E-02  0.1226708E+00
        -11   -1    0    0    0    0  0.00000000000E+00  0.00000000000E+00  0.45593999997E+02  0.45594000000E+02  0.51100000000E-03 0.  1.
         11   -1    0    0    0    0 -0.00000000000E+00 -0.00000000000E+00 -0.45593999997E+02  0.45594000000E+02  0.51100000000E-03 0. -1.
    9900012    2    1    2    0    0 -0.12696322494E+02 -0.86184154921E+01  0.10733312827E+02  0.72461609672E+02  0.70000051297E+02 0.  0.
         12    1    1    2    0    0  0.12696322494E+02  0.86184154921E+01 -0.10733312827E+02  0.18726390328E+02  0.00000000000E+00 0. -1.
         11    1    3    3    0    0 -0.11165014426E+01 -0.20520208618E+02 -0.22898093914E+02  0.30767649283E+02  0.51100000000E-03 0. -1.
        -11    1    3    3    0    0 -0.10898974051E+02 -0.83047137373E+00  0.98681856435E+01  0.14726113073E+02  0.51100000000E-03 0.  1.
         12    1    3    3    0    0 -0.68084700009E+00  0.12732264500E+02  0.23763221098E+02  0.26967847317E+02  0.00000000000E+00 0. -1.
</event>
<event>
 7    1  0.1333056E-013  0.7246165E+02  0.7816164E-02  0.1226708E+00
        -11   -1    0    0    0    0  0.00000000000E+00  0.00000000000E+00  0.45593999997E+02  0.45594000000E+02  0.51100000000E-03 0. -1.
         11   -1    0    0    0    0 -0.00000000000E+00 -0.00000000000E+00 -0.45593999997E+02  0.45594000000E+02  0.51100000000E-03 0.  1.
    9900012    2    1    2    0    0  0.17577957399E+02 -0.64531657207E+01  0.21940795077E+00  0.72461652946E+02  0.70000107669E+02 0.  0.
         12    1    1    2    0    0 -0.17577957399E+02  0.64531657207E+01 -0.21940795077E+00  0.18726347054E+02  0.00000000000E+00 0. -1.
         11    1    3    3    0    0 -0.64940303718E+01 -0.14986861283E+02 -0.96136793337E-02  0.16333356491E+02  0.51100000000E-03 0. -1.
        -11    1    3    3    0    0 -0.49279186904E+01  0.19470524764E+02  0.11506016440E+02  0.23146795281E+02  0.51100000000E-03 0.  1.
        -12    1    3    3    0    0  0.28999906461E+02 -0.10936829202E+02 -0.11276994810E+02  0.32981501174E+02  0.00000000000E+00 0.  1.
</event>
<event>
 7    1  0.1333056E-013  0.7246153E+02  0.7816164E-02  0.1226708E+00
        -11   -1    0    0    0    0  0.00000000000E+00  0.00000000000E+00  0.45593999997E+02  0.45594000000E+02  0.51100000000E-03 0.  1.
         11   -1    0    0    0    0 -0.00000000000E+00 -0.00000000000E+00 -0.45593999997E+02  0.45594000000E+02  0.51100000000E-03 0. -1.
    9900012    2    1    2    0    0  0.12078903584E+02 -0.11443260655E+02  0.85925794682E+01  0.72461533485E+02  0.69999952049E+02 0.  0.
         12    1    1    2    0    0 -0.12078903584E+02  0.11443260655E+02 -0.85925794682E+01  0.18726466515E+02  0.00000000000E+00 0. -1.
         11    1    3    3    0    0 -0.47685294758E+01  0.72873405427E+00  0.14675198740E+02  0.15447698372E+02  0.51100000000E-03 0.  1.
        -11    1    3    3    0    0  0.61791569011E+01 -0.32489839064E+02 -0.78708632130E+01  0.33995913143E+02  0.51100000000E-03 0. -1.
        -12    1    3    3    0    0  0.10668276159E+02  0.20317844355E+02  0.17882439413E+01  0.23017921970E+02  0.00000000000E+00 0.  1.
</event>
<event>
 7    1  0.1333056E-013  0.7246161E+02  0.7816164E-02  0.1226708E+00
        -11   -1    0    0    0    0  0.00000000000E+00  0.00000000000E+00  0.45593999997E+02  0.45594000000E+02  0.51100000000E-03 0.  1.
         11   -1    0    0    0    0 -0.00000000000E+00 -0.00000000000E+00 -0.45593999997E+02  0.45594000000E+02  0.51100000000E-03 0. -1.
    9900012    2    1    2    0    0  0.15302117517E+02 -0.50879838511E+01  0.95202657113E+01  0.72461605809E+02  0.70000046264E+02 0.  0.
         12    1    1    2    0    0 -0.15302117517E+02  0.50879838511E+01 -0.95202657113E+01  0.18726394191E+02  0.00000000000E+00 0. -1.
         11    1    3    3    0    0  0.33755260699E+02  0.55994748405E+01  0.12645787489E+02  0.36478592144E+02  0.51100000000E-03 0. -1.
        -11    1    3    3    0    0 -0.20322142889E+02 -0.25221637168E+01  0.80613438832E+01  0.22007636559E+02  0.51100000000E-03 0.  1.
        -12    1    3    3    0    0  0.18689997077E+01 -0.81652949749E+01 -0.11186865661E+02  0.13975377106E+02  0.00000000000E+00 0.  1.
</event>
<event>
 7    1  0.1333056E-013  0.7246168E+02  0.7816164E-02  0.1226708E+00
        -11   -1    0    0    0    0  0.00000000000E+00  0.00000000000E+00  0.45593999997E+02  0.45594000000E+02  0.51100000000E-03 0. -1.
         11   -1    0    0    0    0 -0.00000000000E+00 -0.00000000000E+00 -0.45593999997E+02  0.45594000000E+02  0.51100000000E-03 0.  1.
    9900012    2    1    2    0    0 -0.87865116792E+01 -0.15016345375E+02  0.69268661883E+01  0.72461684530E+02  0.70000148812E+02 0.  0.
         12    1    1    2    0    0  0.87865116792E+01  0.15016345375E+02 -0.69268661883E+01  0.18726315470E+02  0.00000000000E+00 0. -1.
         11    1    3    3    0    0  0.11505474829E+02  0.12305359099E+02  0.78508462299E+01  0.18585844086E+02  0.51100000000E-03 0. -1.
        -11    1    3    3    0    0 -0.32651513901E+02 -0.16275099880E+02 -0.49503638420E+01  0.36817201666E+02  0.51100000000E-03 0.  1.
        -12    1    3    3    0    0  0.12359527393E+02 -0.11046604594E+02  0.40263838004E+01  0.17058638777E+02  0.00000000000E+00 0.  1.
</event>
<event>
 7    1  0.1333056E-013  0.7246158E+02  0.7816164E-02  0.1226708E+00
        -11   -1    0    0    0    0  0.00000000000E+00  0.00000000000E+00  0.45593999997E+02  0.45594000000E+02  0.51100000000E-03 0. -1.
         11   -1    0    0    0    0 -0.00000000000E+00 -0.00000000000E+00 -0.45593999997E+02  0.45594000000E+02  0.51100000000E-03 0.  1.
    9900012    2    1    2    0    0  0.54724390368E+01  0.16964434592E+02 -0.57392739759E+01  0.72461577603E+02  0.70000009521E+02 0.  0.
         12    1    1    2    0    0 -0.54724390368E+01 -0.16964434592E+02  0.57392739759E+01  0.18726422397E+02  0.00000000000E+00 0. -1.
         11    1    3    3    0    0  0.14612093967E+02 -0.23548235733E+02  0.39817773283E+01  0.27997986484E+02  0.51100000000E-03 0. -1.
        -11    1    3    3    0    0 -0.34965283124E+01  0.14567501711E+02  0.25782878247E+01  0.15201492845E+02  0.51100000000E-03 0.  1.
         12    1    3    3    0    0 -0.56431266178E+01  0.25945168613E+02 -0.12299339129E+02  0.29262098274E+02  0.00000000000E+00 0. -1.
</event>
<event>
 7    1  0.1333056E-013  0.7246158E+02  0.7816164E-02  0.1226708E+00
        -11   -1    0    0    0    0  0.00000000000E+00  0.00000000000E+00  0.45593999997E+02  0.45594000000E+02  0.51100000000E-03 0.  1.
         11   -1    0    0    0    0 -0.00000000000E+00 -0.00000000000E+00 -0.45593999997E+02  0.45594000000E+02  0.51100000000E-03 0. -1.
    9900012    2    1    2    0    0 -0.90204649741E+01  0.16054004537E+02 -0.34027866243E+01  0.72461579978E+02  0.70000012615E+02 0.  0.
         12    1    1    2    0    0  0.90204649741E+01 -0.16054004537E+02  0.34027866243E+01  0.18726420022E+02  0.00000000000E+00 0. -1.
         11    1    3    3    0    0 -0.15379296269E+02 -0.13103801186E+02  0.20281990562E+01  0.20306303231E+02  0.51100000000E-03 0. -1.
        -11    1    3    3    0    0 -0.14783111445E+01  0.38585100265E+02 -0.84552190257E+01  0.39528294870E+02  0.51100000000E-03 0.  1.
         12    1    3    3    0    0  0.78371424395E+01 -0.94272945421E+01  0.30242333452E+01  0.12626981877E+02  0.00000000000E+00 0. -1.
</event>
<event>
 7    1  0.1333056E-013  0.7246156E+02  0.7816164E-02  0.1226708E+00
        -11   -1    0    0    0    0  0.00000000000E+00  0.00000000000E+00  0.45593999997E+02  0.45594000000E+02  0.51100000000E-03 0. -1.
         11   -1    0    0    0    0 -0.00000000000E+00 -0.00000000000E+00 -0.45593999997E+02  0.45594000000E+02  0.51100000000E-03 0.  1.
    9900012    2    1    2    0    0  0.18005015089E+02 -0.21249953923E+01 -0.46886381511E+01  0.72461561431E+02  0.69999988454E+02 0.  0.
         12    1    1    2    0    0 -0.18005015089E+02  0.21249953923E+01  0.46886381511E+01  0.18726438569E+02  0.00000000000E+00 0. -1.
         11    1    3    3    0    0 -0.69775727550E+01 -0.24567428601E+01 -0.15267579707E+02  0.16965290961E+02  0.51100000000E-03 0.  1.
        -11    1    3    3    0    0  0.23909578210E+02 -0.12098501937E+02  0.24846520301E+02  0.36543005495E+02  0.51100000000E-03 0. -1.
        -12    1    3    3    0    0  0.10730096338E+01  0.12430249405E+02 -0.14267578745E+02  0.18953264974E+02  0.00000000000E+00 0.  1.
</event>
<event>
 7    1  0.1333056E-013  0.7246147E+02  0.7816164E-02  0.1226708E+00
        -11   -1    0    0    0    0  0.00000000000E+00  0.00000000000E+00  0.45593999997E+02  0.45594000000E+02  0.51100000000E-03 0. -1.
         11   -1    0    0    0    0 -0.00000000000E+00 -0.00000000000E+00 -0.45593999997E+02  0.45594000000E+02  0.51100000000E-03 0.  1.
    9900012    2    1    2    0    0 -0.18123288840E+02 -0.29504078782E+01 -0.36775664452E+01  0.72461468021E+02  0.69999866769E+02 0.  0.
         12    1    1    2    0    0  0.18123288840E+02  0.29504078782E+01  0.36775664452E+01  0.18726531979E+02  0.00000000000E+00 0. -1.
         11    1    3    3    0    0 -0.17298671954E+02 -0.54391896591E+01  0.20721446059E+02  0.27535561780E+02  0.51100000000E-03 0. -1.
        -11    1    3    3    0    0  0.60494055071E+01 -0.12979011574E+02 -0.24056715107E+02  0.27995992400E+02  0.51100000000E-03 0.  1.
        -12    1    3    3    0    0 -0.68740223927E+01  0.15467793355E+02 -0.34229739641E+00  0.16929913840E+02  0.00000000000E+00 0.  1.
</event>
<event>
 7    1  0.1333056E-013  0.7246161E+02  0.7816164E-02  0.1226708E+00
        -11   -1    0    0    0    0  0.00000000000E+00  0.00000000000E+00  0.45593999997E+02  0.45594000000E+02  0.51100000000E-03 0.  1.
         11   -1    0    0    0    0 -0.00000000000E+00 -0.00000000000E+00 -0.45593999997E+02  0.45594000000E+02  0.51100000000E-03 0. -1.
    9900012    2    1    2    0    0 -0.16107589748E+02  0.59738162660E+01  0.74523040795E+01  0.72461607812E+02  0.70000048874E+02 0.  0.
         12    1    1    2    0    0  0.16107589748E+02 -0.59738162660E+01 -0.74523040795E+01  0.18726392188E+02  0.00000000000E+00 0. -1.
         11    1    3    3    0    0 -0.94566314168E-01  0.15083459105E+01 -0.31378112120E+01  0.34828019807E+01  0.51100000000E-03 0. -1.
        -11    1    3    3    0    0  0.15963657527E+02 -0.19910470087E+02  0.13112716270E+02  0.28691610429E+02  0.51100000000E-03 0.  1.
        -12    1    3    3    0    0 -0.31976680961E+02  0.24375940443E+02 -0.25226009788E+01  0.40287195403E+02  0.00000000000E+00 0.  1.
</event>
<event>
 7    1  0.1333056E-013  0.7246157E+02  0.7816164E-02  0.1226708E+00
        -11   -1    0    0    0    0  0.00000000000E+00  0.00000000000E+00  0.45593999997E+02  0.45594000000E+02  0.51100000000E-03 0.  1.
         11   -1    0    0    0    0 -0.00000000000E+00 -0.00000000000E+00 -0.45593999997E+02  0.45594000000E+02  0.51100000000E-03 0. -1.
    9900012    2    1    2    0    0  0.15893622161E+02  0.37100499645E+01  0.91819135897E+01  0.72461568592E+02  0.69999997782E+02 0.  0.
         12    1    1    2    0    0 -0.15893622161E+02 -0.37100499645E+01 -0.91819135897E+01  0.18726431408E+02  0.00000000000E+00 0. -1.
         11    1    3    3    0    0  0.16107608912E+02  0.31438439212E+01 -0.21935439898E+02  0.27395297831E+02  0.51100000000E-03 0. -1.
        -11    1    3    3    0    0 -0.17709100728E+01  0.16453137766E+02  0.14187108454E+02  0.21797153745E+02  0.51100000000E-03 0.  1.
        -12    1    3    3    0    0  0.15569233210E+01 -0.15886931722E+02  0.16930245034E+02  0.23269117015E+02  0.00000000000E+00 0.  1.
</event>
<event>
 7    1  0.1333056E-013  0.7246159E+02  0.7816164E-02  0.1226708E+00
        -11   -1    0    0    0    0  0.00000000000E+00  0.00000000000E+00  0.45593999997E+02  0.45594000000E+02  0.51100000000E-03 0. -1.
         11   -1    0    0    0    0 -0.00000000000E+00 -0.00000000000E+00 -0.45593999997E+02  0.45594000000E+02  0.51100000000E-03 0.  1.
    9900012    2    1    2    0    0  0.12914791250E+02 -0.13560467190E+02  0.13559552479E-01  0.72461593850E+02  0.70000030685E+02 0.  0.
         12    1    1    2    0    0 -0.12914791250E+02  0.13560467190E+02 -0.13559552479E-01  0.18726406150E+02  0.00000000000E+00 0. -1.
         11    1    3    3    0    0 -0.96056652052E+01  0.35326235369E+01 -0.48888605964E+01  0.11342362685E+02  0.51100000000E-03 0. -1.
        -11    1    3    3    0    0  0.27506044964E+02 -0.31772428736E+02 -0.55967455652E+01  0.42395675470E+02  0.51100000000E-03 0.  1.
        -12    1    3    3    0    0 -0.49855885088E+01  0.14679338009E+02  0.10499165714E+02  0.18723555695E+02  0.00000000000E+00 0.  1.
</event>
<event>
 7    1  0.1333056E-013  0.7246161E+02  0.7816164E-02  0.1226708E+00
        -11   -1    0    0    0    0  0.00000000000E+00  0.00000000000E+00  0.45593999997E+02  0.45594000000E+02  0.51100000000E-03 0.  1.
         11   -1    0    0    0    0 -0.00000000000E+00 -0.00000000000E+00 -0.45593999997E+02  0.45594000000E+02  0.51100000000E-03 0. -1.
    9900012    2    1    2    0    0 -0.32064465499E+00 -0.17157089307E+02  0.74972843984E+01  0.72461606866E+02  0.70000047641E+02 0.  0.
         12    1    1    2    0    0  0.32064465499E+00  0.17157089307E+02 -0.74972843984E+01  0.18726393134E+02  0.00000000000E+00 0. -1.
         11    1    3    3    0    0 -0.11231525106E+02 -0.59421456463E+01 -0.87059071121E+01  0.15402891611E+02  0.51100000000E-03 0.  1.
        -11    1    3    3    0    0  0.16859987902E+02  0.16506368682E+02 -0.14842247305E+01  0.23641538073E+02  0.51100000000E-03 0. -1.
        -12    1    3    3    0    0 -0.59491074515E+01 -0.27721312343E+02  0.17687416241E+02  0.33417177181E+02  0.00000000000E+00 0.  1.
</event>
<event>
 7    1  0.1333056E-013  0.7246155E+02  0.7816164E-02  0.1226708E+00
        -11   -1    0    0    0    0  0.00000000000E+00  0.00000000000E+00  0.45593999997E+02  0.45594000000E+02  0.51100000000E-03 0.  1.
         11   -1    0    0    0    0 -0.00000000000E+00 -0.00000000000E+00 -0.45593999997E+02  0.45594000000E+02  0.51100000000E-03 0. -1.
    9900012    2    1    2    0    0  0.92431661032E+01 -0.16080966872E+02 -0.25780420549E+01  0.72461550364E+02  0.69999974037E+02 0.  0.
         12    1    1    2    0    0 -0.92431661032E+01  0.16080966872E+02  0.25780420549E+01  0.18726449636E+02  0.00000000000E+00 0. -1.
         11    1    3    3    0    0  0.84478256202E+01  0.68529557100E+01 -0.30698801842E+02  0.32569083415E+02  0.51100000000E-03 0. -1.
        -11    1    3    3    0    0 -0.56393664238E+01 -0.18396622395E+02  0.24694218915E+02  0.31305632357E+02  0.51100000000E-03 0.  1.
         12    1    3    3    0    0  0.64347069068E+01 -0.45373001869E+01  0.34265408727E+01  0.85868345922E+01  0.00000000000E+00 0. -1.
</event>
<event>
 7    1  0.1333056E-013  0.7246148E+02  0.7816164E-02  0.1226708E+00
        -11   -1    0    0    0    0  0.00000000000E+00  0.00000000000E+00  0.45593999997E+02  0.45594000000E+02  0.51100000000E-03 0. -1.
         11   -1    0    0    0    0 -0.00000000000E+00 -0.00000000000E+00 -0.45593999997E+02  0.45594000000E+02  0.51100000000E-03 0.  1.
    9900012    2    1    2    0    0 -0.16123276258E+02 -0.69700744529E+01  0.64915630736E+01  0.72461484940E+02  0.69999888810E+02 0.  0.
         12    1    1    2    0    0  0.16123276258E+02  0.69700744529E+01 -0.64915630736E+01  0.18726515060E+02  0.00000000000E+00 0. -1.
         11    1    3    3    0    0 -0.23886398321E+02  0.20079404355E+02  0.49438623586E+01  0.31594054492E+02  0.51100000000E-03 0. -1.
        -11    1    3    3    0    0  0.79926579582E+01 -0.20600695372E+02 -0.12515066581E+02  0.25394844415E+02  0.51100000000E-03 0.  1.
        -12    1    3    3    0    0 -0.22953589544E+00 -0.64487834353E+01  0.14062767296E+02  0.15472586033E+02  0.00000000000E+00 0.  1.
</event>
<event>
 7    1  0.1333056E-013  0.7246156E+02  0.7816164E-02  0.1226708E+00
        -11   -1    0    0    0    0  0.00000000000E+00  0.00000000000E+00  0.45593999997E+02  0.45594000000E+02  0.51100000000E-03 0. -1.
         11   -1    0    0    0    0 -0.00000000000E+00 -0.00000000000E+00 -0.45593999997E+02  0.45594000000E+02  0.51100000000E-03 0.  1.
    9900012    2    1    2    0    0  0.17961056834E+02 -0.44144992846E+01 -0.29312229951E+01  0.72461563212E+02  0.69999990774E+02 0.  0.
         12    1    1    2    0    0 -0.17961056834E+02  0.44144992846E+01  0.29312229951E+01  0.18726436788E+02  0.00000000000E+00 0. -1.
         11    1    3    3    0    0 -0.11058378198E+02  0.12252198505E+02 -0.65782074323E-01  0.16504800033E+02  0.51100000000E-03 0. -1.
        -11    1    3    3    0    0  0.32479006312E+02  0.19215298720E+01  0.88449312288E+01  0.33716627007E+02  0.51100000000E-03 0.  1.
        -12    1    3    3    0    0 -0.34595712790E+01 -0.18588227662E+02 -0.11710372150E+02  0.22240136171E+02  0.00000000000E+00 0.  1.
</event>
<event>
 7    1  0.1333056E-013  0.7246141E+02  0.7816164E-02  0.1226708E+00
        -11   -1    0    0    0    0  0.00000000000E+00  0.00000000000E+00  0.45593999997E+02  0.45594000000E+02  0.51100000000E-03 0.  1.
         11   -1    0    0    0    0 -0.00000000000E+00 -0.00000000000E+00 -0.45593999997E+02  0.45594000000E+02  0.51100000000E-03 0. -1.
    9900012    2    1    2    0    0 -0.14104952833E+02  0.61218242335E+01  0.10689186460E+02  0.72461411054E+02  0.69999792560E+02 0.  0.
         12    1    1    2    0    0  0.14104952833E+02 -0.61218242335E+01 -0.10689186460E+02  0.18726588946E+02  0.00000000000E+00 0. -1.
         11    1    3    3    0    0 -0.14447125990E+01  0.15294783165E+02 -0.26331168939E+02  0.30485210258E+02  0.51100000000E-03 0. -1.
        -11    1    3    3    0    0 -0.12339747620E+02 -0.54774730123E+01  0.17479043025E+02  0.22085946374E+02  0.51100000000E-03 0.  1.
         12    1    3    3    0    0 -0.32049261427E+00 -0.36954859191E+01  0.19541312373E+02  0.19890254422E+02  0.00000000000E+00 0. -1.
</event>
<event>
 7    1  0.1333056E-013  0.7246158E+02  0.7816164E-02  0.1226708E+00
        -11   -1    0    0    0    0  0.00000000000E+00  0.00000000000E+00  0.45593999997E+02  0.45594000000E+02  0.51100000000E-03 0.  1.
         11   -1    0    0    0    0 -0.00000000000E+00 -0.00000000000E+00 -0.45593999997E+02  0.45594000000E+02  0.51100000000E-03 0. -1.
    9900012    2    1    2    0    0  0.44155936806E+01  0.34687958601E+00  0.18195079343E+02  0.72461582690E+02  0.70000016147E+02 0.  0.
         12    1    1    2    0    0 -0.44155936806E+01 -0.34687958601E+00 -0.18195079343E+02  0.18726417310E+02  0.00000000000E+00 0. -1.
         11    1    3    3    0    0  0.34419709438E+02 -0.76798476980E+01  0.33104517214E+01  0.35421117279E+02  0.51100000000E-03 0. -1.
        -11    1    3    3    0    0 -0.11560857600E+02  0.95939418865E+01  0.94546743539E+01  0.17750718768E+02  0.51100000000E-03 0.  1.
         12    1    3    3    0    0 -0.18443258157E+02 -0.15672146026E+01  0.54299532674E+01  0.19289746643E+02  0.00000000000E+00 0. -1.
</event>
<event>
 7    1  0.1333056E-013  0.7246132E+02  0.7816164E-02  0.1226709E+00
        -11   -1    0    0    0    0  0.00000000000E+00  0.00000000000E+00  0.45593999997E+02  0.45594000000E+02  0.51100000000E-03 0.  1.
         11   -1    0    0    0    0 -0.00000000000E+00 -0.00000000000E+00 -0.45593999997E+02  0.45594000000E+02  0.51100000000E-03 0. -1.
    9900012    2    1    2    0    0 -0.57722103778E+01  0.29083424284E+01  0.17575884197E+02  0.72461319204E+02  0.69999672908E+02 0.  0.
         12    1    1    2    0    0  0.57722103778E+01 -0.29083424284E+01 -0.17575884197E+02  0.18726680796E+02  0.00000000000E+00 0. -1.
         11    1    3    3    0    0  0.16308045706E+02  0.10400302921E+02  0.19231571885E+02  0.27275850363E+02  0.51100000000E-03 0. -1.
        -11    1    3    3    0    0 -0.18249305918E+02  0.13538044533E+02 -0.57082606256E+01  0.23428616176E+02  0.51100000000E-03 0.  1.
         12    1    3    3    0    0 -0.38309501653E+01 -0.21030005025E+02  0.40525729374E+01  0.21756852666E+02  0.00000000000E+00 0. -1.
</event>
<event>
 7    1  0.1333056E-013  0.7246156E+02  0.7816164E-02  0.1226708E+00
        -11   -1    0    0    0    0  0.00000000000E+00  0.00000000000E+00  0.45593999997E+02  0.45594000000E+02  0.51100000000E-03 0.  1.
         11   -1    0    0    0    0 -0.00000000000E+00 -0.00000000000E+00 -0.45593999997E+02  0.45594000000E+02  0.51100000000E-03 0. -1.
    9900012    2    1    2    0    0  0.11588866640E+02  0.12449247437E+02  0.78354230387E+01  0.72461562914E+02  0.69999990386E+02 0.  0.
         12    1    1    2    0    0 -0.11588866640E+02 -0.12449247437E+02 -0.78354230387E+01  0.18726437086E+02  0.00000000000E+00 0. -1.
         11    1    3    3    0    0  0.91608842611E+01 -0.59748490340E+01 -0.26633032747E+02  0.28791301724E+02  0.51100000000E-03 0. -1.
        -11    1    3    3    0    0 -0.83479502602E+01  0.87328083369E+01  0.12790793038E+02  0.17594163856E+02  0.51100000000E-03 0.  1.
         12    1    3    3    0    0  0.10775932639E+02  0.96912881337E+01  0.21677662748E+02  0.26076097333E+02  0.00000000000E+00 0. -1.
</event>
<event>
 7    1  0.1333056E-013  0.7246159E+02  0.7816164E-02  0.1226708E+00
        -11   -1    0    0    0    0  0.00000000000E+00  0.00000000000E+00  0.45593999997E+02  0.45594000000E+02  0.51100000000E-03 0. -1.
         11   -1    0    0    0    0 -0.00000000000E+00 -0.00000000000E+00 -0.45593999997E+02  0.45594000000E+02  0.51100000000E-03 0.  1.
    9900012    2    1    2    0    0  0.12612157941E+02 -0.95175556666E+01 -0.10051273852E+02  0.72461588175E+02  0.70000023292E+02 0.  0.
         12    1    1    2    0    0 -0.12612157941E+02  0.95175556666E+01  0.10051273852E+02  0.18726411825E+02  0.00000000000E+00 0. -1.
         11    1    3    3    0    0  0.26887708634E+02  0.10109801631E+02  0.42449982379E+01  0.29037509792E+02  0.51100000000E-03 0. -1.
        -11    1    3    3    0    0  0.29953270978E+01 -0.22684502790E+02 -0.11681824634E+02  0.25690925992E+02  0.51100000000E-03 0.  1.
        -12    1    3    3    0    0 -0.17270877791E+02  0.30571454933E+01 -0.26144474555E+01  0.17733152391E+02  0.00000000000E+00 0.  1.
</event>
<event>
 7    1  0.1333056E-013  0.7246156E+02  0.7816164E-02  0.1226708E+00
        -11   -1    0    0    0    0  0.00000000000E+00  0.00000000000E+00  0.45593999997E+02  0.45594000000E+02  0.51100000000E-03 0. -1.
         11   -1    0    0    0    0 -0.00000000000E+00 -0.00000000000E+00 -0.45593999997E+02  0.45594000000E+02  0.51100000000E-03 0.  1.
    9900012    2    1    2    0    0 -0.67321314838E+01 -0.39749806393E+01 -0.17016385963E+02  0.72461562628E+02  0.69999990013E+02 0.  0.
         12    1    1    2    0    0  0.67321314838E+01  0.39749806393E+01  0.17016385963E+02  0.18726437372E+02  0.00000000000E+00 0. -1.
         11    1    3    3    0    0 -0.36530280255E+02 -0.34889673917E+01 -0.27099366104E+01  0.36796440394E+02  0.51100000000E-03 0. -1.
        -11    1    3    3    0    0  0.18832736832E+02  0.20018623040E+01 -0.20772957884E+01  0.19052416837E+02  0.51100000000E-03 0.  1.
        -12    1    3    3    0    0  0.10965411939E+02 -0.24878755516E+01 -0.12229153564E+02  0.16612705398E+02  0.00000000000E+00 0.  1.
</event>
<event>
 7    1  0.1333056E-013  0.7246161E+02  0.7816164E-02  0.1226708E+00
        -11   -1    0    0    0    0  0.00000000000E+00  0.00000000000E+00  0.45593999997E+02  0.45594000000E+02  0.51100000000E-03 0. -1.
         11   -1    0    0    0    0 -0.00000000000E+00 -0.00000000000E+00 -0.45593999997E+02  0.45594000000E+02  0.51100000000E-03 0.  1.
    9900012    2    1    2    0    0  0.13891554258E+02 -0.10460363465E+02 -0.69486134438E+01  0.72461609202E+02  0.70000050684E+02 0.  0.
         12    1    1    2    0    0 -0.13891554258E+02  0.10460363465E+02  0.69486134438E+01  0.18726390798E+02  0.00000000000E+00 0. -1.
         11    1    3    3    0    0  0.47355720034E+01 -0.14031515060E+02  0.14911276721E+02  0.21015594942E+02  0.51100000000E-03 0. -1.
        -11    1    3    3    0    0  0.16588708720E+02  0.14438906971E+02 -0.29056638750E+02  0.36441124396E+02  0.51100000000E-03 0.  1.
        -12    1    3    3    0    0 -0.74327264652E+01 -0.10867755376E+02  0.71967485858E+01  0.15004889864E+02  0.00000000000E+00 0.  1.
</event>
<event>
 7    1  0.1333056E-013  0.7246114E+02  0.7816164E-02  0.1226709E+00
        -11   -1    0    0    0    0  0.00000000000E+00  0.00000000000E+00  0.45593999997E+02  0.45594000000E+02  0.51100000000E-03 0.  1.
         11   -1    0    0    0    0 -0.00000000000E+00 -0.00000000000E+00 -0.45593999997E+02  0.45594000000E+02  0.51100000000E-03 0. -1.
    9900012    2    1    2    0    0 -0.11817569908E+02 -0.97201421851E+01  0.10796261949E+02  0.72461137083E+02  0.69999435660E+02 0.  0.
         12    1    1    2    0    0  0.11817569908E+02  0.97201421851E+01 -0.10796261949E+02  0.18726862917E+02  0.00000000000E+00 0. -1.
         11    1    3    3    0    0 -0.67088218923E+01  0.29179523248E+00 -0.14129789525E+02  0.15644308483E+02  0.51100000000E-03 0. -1.
        -11    1    3    3    0    0  0.13713965285E+02  0.55410300046E+01  0.28529109748E+02  0.32135431546E+02  0.51100000000E-03 0.  1.
        -12    1    3    3    0    0 -0.18822713301E+02 -0.15552967422E+02 -0.36030582748E+01  0.24681397055E+02  0.00000000000E+00 0.  1.
</event>
<event>
 7    1  0.2161201E-013  0.7246155E+02  0.7816164E-02  0.1226708E+00
        -11   -1    0    0    0    0  0.00000000000E+00  0.00000000000E+00  0.45593999997E+02  0.45594000000E+02  0.51100000000E-03 0. -1.
         11   -1    0    0    0    0 -0.00000000000E+00 -0.00000000000E+00 -0.45593999997E+02  0.45594000000E+02  0.51100000000E-03 0.  1.
    9900012    2    1    2    0    0 -0.89259575685E+01  0.46074104519E+01 -0.15804393044E+02  0.72461553752E+02  0.69999978450E+02 0.  0.
         12    1    1    2    0    0  0.89259575685E+01 -0.46074104519E+01  0.15804393044E+02  0.18726446248E+02  0.00000000000E+00 0. -1.
         11    1    3    3    0    0 -0.29682375820E+02  0.28711126637E+01 -0.37123164414E+01  0.30051090094E+02  0.51100000000E-03 0. -1.
        -11    1    3    3    0    0  0.17668442894E+02  0.71190618164E+01  0.85325654307E+01  0.20872460050E+02  0.51100000000E-03 0.  1.
        -12    1    3    3    0    0  0.30879753574E+01 -0.53827640282E+01 -0.20624642034E+02  0.21538003608E+02  0.00000000000E+00 0.  1.
</event>
<event>
 7    1  0.1333056E-013  0.7246158E+02  0.7816164E-02  0.1226708E+00
        -11   -1    0    0    0    0  0.00000000000E+00  0.00000000000E+00  0.45593999997E+02  0.45594000000E+02  0.51100000000E-03 0. -1.
         11   -1    0    0    0    0 -0.00000000000E+00 -0.00000000000E+00 -0.45593999997E+02  0.45594000000E+02  0.51100000000E-03 0.  1.
    9900012    2    1    2    0    0 -0.50662127731E+01 -0.17414525795E+02 -0.46633040938E+01  0.72461584817E+02  0.70000018919E+02 0.  0.
         12    1    1    2    0    0  0.50662127731E+01  0.17414525795E+02  0.46633040938E+01  0.18726415183E+02  0.00000000000E+00 0. -1.
         11    1    3    3    0    0  0.19448843433E+02 -0.25487576650E+02 -0.13890046402E+02  0.34940055290E+02  0.51100000000E-03 0.  1.
        -11    1    3    3    0    0 -0.12960841249E+02  0.13180654154E+02 -0.43355987474E+01  0.18987113171E+02  0.51100000000E-03 0. -1.
        -12    1    3    3    0    0 -0.11554214957E+02 -0.51076032992E+01  0.13562341056E+02  0.18534416356E+02  0.00000000000E+00 0.  1.
</event>
<event>
 7    1  0.1333056E-013  0.7246161E+02  0.7816164E-02  0.1226708E+00
        -11   -1    0    0    0    0  0.00000000000E+00  0.00000000000E+00  0.45593999997E+02  0.45594000000E+02  0.51100000000E-03 0. -1.
         11   -1    0    0    0    0 -0.00000000000E+00 -0.00000000000E+00 -0.45593999997E+02  0.45594000000E+02  0.51100000000E-03 0.  1.
    9900012    2    1    2    0    0 -0.60582691588E+01 -0.13120927114E+02 -0.11908664355E+02  0.72461611127E+02  0.70000053191E+02 0.  0.
         12    1    1    2    0    0  0.60582691588E+01  0.13120927114E+02  0.11908664355E+02  0.18726388873E+02  0.00000000000E+00 0. -1.
         11    1    3    3    0    0 -0.15674842901E+02  0.18924449471E+01  0.85848948707E+01  0.17971712997E+02  0.51100000000E-03 0. -1.
        -11    1    3    3    0    0  0.87957128681E+01 -0.19053280931E+02 -0.34228572517E+02  0.40149561092E+02  0.51100000000E-03 0.  1.
         12    1    3    3    0    0  0.82086087365E+00  0.40399088705E+01  0.13735013291E+02  0.14340337038E+02  0.00000000000E+00 0. -1.
</event>
<event>
 7    1  0.1333056E-013  0.7246155E+02  0.7816164E-02  0.1226708E+00
        -11   -1    0    0    0    0  0.00000000000E+00  0.00000000000E+00  0.45593999997E+02  0.45594000000E+02  0.51100000000E-03 0.  1.
         11   -1    0    0    0    0 -0.00000000000E+00 -0.00000000000E+00 -0.45593999997E+02  0.45594000000E+02  0.51100000000E-03 0. -1.
    9900012    2    1    2    0    0  0.38794710364E+01 -0.16510482868E+02  0.79393737806E+01  0.72461548225E+02  0.69999971251E+02 0.  0.
         12    1    1    2    0    0 -0.38794710364E+01  0.16510482868E+02 -0.79393737806E+01  0.18726451775E+02  0.00000000000E+00 0. -1.
         11    1    3    3    0    0  0.20814968746E+02  0.14316836779E+02  0.12672250489E+02  0.28263415788E+02  0.51100000000E-03 0. -1.
        -11    1    3    3    0    0 -0.95480006282E+01 -0.34407202921E+02 -0.32377867896E+01  0.35853914604E+02  0.51100000000E-03 0.  1.
        -12    1    3    3    0    0 -0.73874970817E+01  0.35798832741E+01 -0.14950899190E+01  0.83442178336E+01  0.00000000000E+00 0.  1.
</event>
<event>
 7    1  0.1333056E-013  0.7246158E+02  0.7816164E-02  0.1226708E+00
        -11   -1    0    0    0    0  0.00000000000E+00  0.00000000000E+00  0.45593999997E+02  0.45594000000E+02  0.51100000000E-03 0.  1.
         11   -1    0    0    0    0 -0.00000000000E+00 -0.00000000000E+00 -0.45593999997E+02  0.45594000000E+02  0.51100000000E-03 0. -1.
    9900012    2    1    2    0    0  0.91498019357E+01  0.28091138852E+01  0.16095617695E+02  0.72461577350E+02  0.70000009191E+02 0.  0.
         12    1    1    2    0    0 -0.91498019357E+01 -0.28091138852E+01 -0.16095617695E+02  0.18726422650E+02  0.00000000000E+00 0. -1.
         11    1    3    3    0    0  0.10493605451E+02 -0.27679366241E+02 -0.76733820324E+00  0.29611684840E+02  0.51100000000E-03 0. -1.
        -11    1    3    3    0    0 -0.10512105820E+02  0.10390537494E+02  0.14377890028E+02  0.20620168770E+02  0.51100000000E-03 0.  1.
        -12    1    3    3    0    0  0.91683023048E+01  0.20097942632E+02  0.24850658708E+01  0.22229723741E+02  0.00000000000E+00 0.  1.
</event>
<event>
 7    1  0.1333056E-013  0.7246157E+02  0.7816164E-02  0.1226708E+00
        -11   -1    0    0    0    0  0.00000000000E+00  0.00000000000E+00  0.45593999997E+02  0.45594000000E+02  0.51100000000E-03 0.  1.
         11   -1    0    0    0    0 -0.00000000000E+00 -0.00000000000E+00 -0.45593999997E+02  0.45594000000E+02  0.51100000000E-03 0. -1.
    9900012    2    1    2    0    0  0.39196101928E+01  0.85379749720E+01  0.16199343753E+02  0.72461572185E+02  0.70000002463E+02 0.  0.
         12    1    1    2    0    0 -0.39196101928E+01 -0.85379749720E+01 -0.16199343753E+02  0.18726427815E+02  0.00000000000E+00 0. -1.
         11    1    3    3    0    0 -0.32412008899E+01 -0.13832228970E+02  0.16228072761E+01  0.14299281283E+02  0.51100000000E-03 0. -1.
        -11    1    3    3    0    0 -0.11439924971E+02  0.30526098816E+02  0.18490775099E+02  0.37478305142E+02  0.51100000000E-03 0.  1.
        -12    1    3    3    0    0  0.18600736054E+02 -0.81558948738E+01 -0.39142386220E+01  0.20683985760E+02  0.00000000000E+00 0.  1.
</event>
<event>
 7    1  0.1333056E-013  0.7246190E+02  0.7816164E-02  0.1226707E+00
        -11   -1    0    0    0    0  0.00000000000E+00  0.00000000000E+00  0.45593999997E+02  0.45594000000E+02  0.51100000000E-03 0. -1.
         11   -1    0    0    0    0 -0.00000000000E+00 -0.00000000000E+00 -0.45593999997E+02  0.45594000000E+02  0.51100000000E-03 0.  1.
    9900012    2    1    2    0    0  0.13286051564E+02  0.11518674758E+02 -0.64395361688E+01  0.72461904294E+02  0.70000435095E+02 0.  0.
         12    1    1    2    0    0 -0.13286051564E+02 -0.11518674758E+02  0.64395361688E+01  0.18726095706E+02  0.00000000000E+00 0. -1.
         11    1    3    3    0    0 -0.16184089481E+02 -0.44634193884E+01 -0.38729518341E+01  0.17229237393E+02  0.51100000000E-03 0. -1.
        -11    1    3    3    0    0  0.10172541243E+02  0.14441329803E+02  0.19208756105E+02  0.26096147478E+02  0.51100000000E-03 0.  1.
        -12    1    3    3    0    0  0.19297599802E+02  0.15407643434E+01 -0.21775340439E+02  0.29136519424E+02  0.00000000000E+00 0.  1.
</event>
<event>
 7    1  0.1333056E-013  0.7246201E+02  0.7816164E-02  0.1226707E+00
        -11   -1    0    0    0    0  0.00000000000E+00  0.00000000000E+00  0.45593999997E+02  0.45594000000E+02  0.51100000000E-03 0.  1.
         11   -1    0    0    0    0 -0.00000000000E+00 -0.00000000000E+00 -0.45593999997E+02  0.45594000000E+02  0.51100000000E-03 0. -1.
    9900012    2    1    2    0    0  0.13343180868E+02 -0.85149201736E+01 -0.10005918996E+02  0.72462008539E+02  0.70000570893E+02 0.  0.
         12    1    1    2    0    0 -0.13343180868E+02  0.85149201736E+01  0.10005918996E+02  0.18725991461E+02  0.00000000000E+00 0. -1.
         11    1    3    3    0    0 -0.21145763644E+02 -0.21584123410E+02 -0.92523367343E+01  0.31601003762E+02  0.51100000000E-03 0. -1.
        -11    1    3    3    0    0  0.28371888617E+02  0.11284418061E+02 -0.76439085135E+01  0.31475887474E+02  0.51100000000E-03 0.  1.
         12    1    3    3    0    0  0.61170558944E+01  0.17847851759E+01  0.68903262514E+01  0.93851173030E+01  0.00000000000E+00 0. -1.
</event>
<event>
 7    1  0.1333056E-013  0.7246159E+02  0.7816164E-02  0.1226708E+00
        -11   -1    0    0    0    0  0.00000000000E+00  0.00000000000E+00  0.45593999997E+02  0.45594000000E+02  0.51100000000E-03 0.  1.
         11   -1    0    0    0    0 -0.00000000000E+00 -0.00000000000E+00 -0.45593999997E+02  0.45594000000E+02  0.51100000000E-03 0. -1.
    9900012    2    1    2    0    0 -0.17831268922E+02 -0.70764617774E+00 -0.56765760569E+01  0.72461590034E+02  0.70000025715E+02 0.  0.
         12    1    1    2    0    0  0.17831268922E+02  0.70764617774E+00  0.56765760569E+01  0.18726409966E+02  0.00000000000E+00 0. -1.
         11    1    3    3    0    0  0.16428500086E+02 -0.13955106684E+02  0.14941731274E+01  0.21607248118E+02  0.51100000000E-03 0. -1.
        -11    1    3    3    0    0 -0.66275647647E+00  0.15702210153E+02 -0.69063811771E+01  0.17166733849E+02  0.51100000000E-03 0.  1.
         12    1    3    3    0    0 -0.33597012531E+02 -0.24547496459E+01 -0.26436800723E+00  0.33687608067E+02  0.00000000000E+00 0. -1.
</event>
<event>
 7    1  0.1333056E-013  0.7246147E+02  0.7816164E-02  0.1226708E+00
        -11   -1    0    0    0    0  0.00000000000E+00  0.00000000000E+00  0.45593999997E+02  0.45594000000E+02  0.51100000000E-03 0.  1.
         11   -1    0    0    0    0 -0.00000000000E+00 -0.00000000000E+00 -0.45593999997E+02  0.45594000000E+02  0.51100000000E-03 0. -1.
    9900012    2    1    2    0    0 -0.23857754736E+00 -0.15678564117E+02  0.10237617354E+02  0.72461465321E+02  0.69999863252E+02 0.  0.
         12    1    1    2    0    0  0.23857754736E+00  0.15678564117E+02 -0.10237617354E+02  0.18726534679E+02  0.00000000000E+00 0. -1.
         11    1    3    3    0    0  0.95287762878E+01  0.24012381372E+01 -0.19819700733E+02  0.22122026570E+02  0.51100000000E-03 0. -1.
        -11    1    3    3    0    0  0.83185671572E+01 -0.17430993631E+02  0.24916863820E+02  0.31525992473E+02  0.51100000000E-03 0.  1.
         12    1    3    3    0    0 -0.18085920992E+02 -0.64880862265E+00  0.51404542667E+01  0.18813446278E+02  0.00000000000E+00 0. -1.
</event>
<event>
 7    1  0.1333056E-013  0.7246158E+02  0.7816164E-02  0.1226708E+00
        -11   -1    0    0    0    0  0.00000000000E+00  0.00000000000E+00  0.45593999997E+02  0.45594000000E+02  0.51100000000E-03 0.  1.
         11   -1    0    0    0    0 -0.00000000000E+00 -0.00000000000E+00 -0.45593999997E+02  0.45594000000E+02  0.51100000000E-03 0. -1.
    9900012    2    1    2    0    0  0.40677232844E+01 -0.17479180868E+02 -0.53488983712E+01  0.72461578817E+02  0.70000011102E+02 0.  0.
         12    1    1    2    0    0 -0.40677232844E+01  0.17479180868E+02  0.53488983712E+01  0.18726421183E+02  0.00000000000E+00 0. -1.
         11    1    3    3    0    0 -0.14781566388E+02  0.63096319712E+01 -0.13608899972E+02  0.21059637205E+02  0.51100000000E-03 0. -1.
        -11    1    3    3    0    0  0.29014952748E+02 -0.25669400159E+02  0.97024003124E+00  0.38752121922E+02  0.51100000000E-03 0.  1.
        -12    1    3    3    0    0 -0.10165663075E+02  0.18805873201E+01  0.72897615698E+01  0.12649819689E+02  0.00000000000E+00 0.  1.
</event>
<event>
 7    1  0.1333056E-013  0.7246157E+02  0.7816164E-02  0.1226708E+00
        -11   -1    0    0    0    0  0.00000000000E+00  0.00000000000E+00  0.45593999997E+02  0.45594000000E+02  0.51100000000E-03 0.  1.
         11   -1    0    0    0    0 -0.00000000000E+00 -0.00000000000E+00 -0.45593999997E+02  0.45594000000E+02  0.51100000000E-03 0. -1.
    9900012    2    1    2    0    0  0.21335193750E+01 -0.30596075939E+00  0.18601983960E+02  0.72461566166E+02  0.69999994622E+02 0.  0.
         12    1    1    2    0    0 -0.21335193750E+01  0.30596075939E+00 -0.18601983960E+02  0.18726433834E+02  0.00000000000E+00 0. -1.
         11    1    3    3    0    0  0.20015600926E+02  0.65742454619E+01 -0.19550738405E+02  0.28741544083E+02  0.51100000000E-03 0. -1.
        -11    1    3    3    0    0 -0.11303785328E+02 -0.54288259794E+01  0.14714814696E+02  0.19333222340E+02  0.51100000000E-03 0.  1.
         12    1    3    3    0    0 -0.65782962231E+01 -0.14513802419E+01  0.23437907669E+02  0.24386799743E+02  0.00000000000E+00 0. -1.
</event>
<event>
 7    1  0.1333056E-013  0.7246161E+02  0.7816164E-02  0.1226708E+00
        -11   -1    0    0    0    0  0.00000000000E+00  0.00000000000E+00  0.45593999997E+02  0.45594000000E+02  0.51100000000E-03 0. -1.
         11   -1    0    0    0    0 -0.00000000000E+00 -0.00000000000E+00 -0.45593999997E+02  0.45594000000E+02  0.51100000000E-03 0.  1.
    9900012    2    1    2    0    0  0.18705971395E+02 -0.29273076791E+00  0.82388883864E+00  0.72461605527E+02  0.70000045897E+02 0.  0.
         12    1    1    2    0    0 -0.18705971395E+02  0.29273076791E+00 -0.82388883864E+00  0.18726394473E+02  0.00000000000E+00 0. -1.
         11    1    3    3    0    0  0.74197471090E+01 -0.48481230577E+01  0.14644034670E+02  0.17117379941E+02  0.51100000000E-03 0. -1.
        -11    1    3    3    0    0 -0.19981625384E+02  0.72981369399E+01 -0.10669868418E+02  0.23798618618E+02  0.51100000000E-03 0.  1.
        -12    1    3    3    0    0  0.31267849671E+02 -0.27427446501E+01 -0.31502774141E+01  0.31545606969E+02  0.00000000000E+00 0.  1.
</event>
<event>
 7    1  0.1333056E-013  0.7246157E+02  0.7816164E-02  0.1226708E+00
        -11   -1    0    0    0    0  0.00000000000E+00  0.00000000000E+00  0.45593999997E+02  0.45594000000E+02  0.51100000000E-03 0.  1.
         11   -1    0    0    0    0 -0.00000000000E+00 -0.00000000000E+00 -0.45593999997E+02  0.45594000000E+02  0.51100000000E-03 0. -1.
    9900012    2    1    2    0    0 -0.15015700606E+02 -0.55751483884E+01 -0.97018360127E+01  0.72461570381E+02  0.70000000114E+02 0.  0.
         12    1    1    2    0    0  0.15015700606E+02  0.55751483884E+01  0.97018360127E+01  0.18726429619E+02  0.00000000000E+00 0. -1.
         11    1    3    3    0    0 -0.13272964801E+02 -0.51247639800E+01  0.12085866741E+02  0.18668234399E+02  0.51100000000E-03 0. -1.
        -11    1    3    3    0    0  0.17824094619E+02 -0.96251247040E+01 -0.24747091047E+02  0.31980617413E+02  0.51100000000E-03 0.  1.
        -12    1    3    3    0    0 -0.19566830424E+02  0.91747402956E+01  0.29593882934E+01  0.21812718570E+02  0.00000000000E+00 0.  1.
</event>
<event>
 7    1  0.1333056E-013  0.7246157E+02  0.7816164E-02  0.1226708E+00
        -11   -1    0    0    0    0  0.00000000000E+00  0.00000000000E+00  0.45593999997E+02  0.45594000000E+02  0.51100000000E-03 0.  1.
         11   -1    0    0    0    0 -0.00000000000E+00 -0.00000000000E+00 -0.45593999997E+02  0.45594000000E+02  0.51100000000E-03 0. -1.
    9900012    2    1    2    0    0  0.14197305618E+02  0.11689287949E+02 -0.35321773640E+01  0.72461569040E+02  0.69999998366E+02 0.  0.
         12    1    1    2    0    0 -0.14197305618E+02 -0.11689287949E+02  0.35321773640E+01  0.18726430960E+02  0.00000000000E+00 0. -1.
         11    1    3    3    0    0  0.19307906461E+00 -0.16302199586E+00 -0.21350162589E+02  0.21351657981E+02  0.51100000000E-03 0. -1.
        -11    1    3    3    0    0  0.11910212529E+02 -0.96550918697E+01  0.24137833458E+02  0.28595610954E+02  0.51100000000E-03 0.  1.
        -12    1    3    3    0    0  0.20940140245E+01  0.21507401815E+02 -0.63198482336E+01  0.22514300106E+02  0.00000000000E+00 0.  1.
</event>
<event>
 7    1  0.1333056E-013  0.7246158E+02  0.7816164E-02  0.1226708E+00
        -11   -1    0    0    0    0  0.00000000000E+00  0.00000000000E+00  0.45593999997E+02  0.45594000000E+02  0.51100000000E-03 0.  1.
         11   -1    0    0    0    0 -0.00000000000E+00 -0.00000000000E+00 -0.45593999997E+02  0.45594000000E+02  0.51100000000E-03 0. -1.
    9900012    2    1    2    0    0  0.62418083729E+01  0.79591280085E+01  0.15759782730E+02  0.72461584376E+02  0.70000018344E+02 0.  0.
         12    1    1    2    0    0 -0.62418083729E+01 -0.79591280085E+01 -0.15759782730E+02  0.18726415624E+02  0.00000000000E+00 0. -1.
         11    1    3    3    0    0  0.45673760134E+01 -0.20646139517E+01 -0.24579431602E+01  0.55825656518E+01  0.51100000000E-03 0. -1.
        -11    1    3    3    0    0 -0.24981893131E+02  0.16088649169E+02 -0.60501193361E+01  0.30323976664E+02  0.51100000000E-03 0.  1.
        -12    1    3    3    0    0  0.26656325490E+02 -0.60649072084E+01  0.24267845227E+02  0.36555042060E+02  0.00000000000E+00 0.  1.
</event>
<event>
 7    1  0.1333056E-013  0.7246157E+02  0.7816164E-02  0.1226708E+00
        -11   -1    0    0    0    0  0.00000000000E+00  0.00000000000E+00  0.45593999997E+02  0.45594000000E+02  0.51100000000E-03 0. -1.
         11   -1    0    0    0    0 -0.00000000000E+00 -0.00000000000E+00 -0.45593999997E+02  0.45594000000E+02  0.51100000000E-03 0.  1.
    9900012    2    1    2    0    0 -0.90642360669E+01  0.91146282131E+01 -0.13617718186E+02  0.72461572910E+02  0.70000003408E+02 0.  0.
         12    1    1    2    0    0  0.90642360669E+01 -0.91146282131E+01  0.13617718186E+02  0.18726427090E+02  0.00000000000E+00 0. -1.
         11    1    3    3    0    0 -0.27330032592E+02 -0.14198015256E+02  0.93057603294E+01  0.32173148653E+02  0.51100000000E-03 0. -1.
        -11    1    3    3    0    0  0.80404730212E+01  0.15858941215E+02 -0.20955734302E+02  0.27482685882E+02  0.51100000000E-03 0.  1.
        -12    1    3    3    0    0  0.10225323504E+02  0.74537022539E+01 -0.19677442134E+01  0.12805738376E+02  0.00000000000E+00 0.  1.
</event>
<event>
 7    1  0.1333056E-013  0.7246180E+02  0.7816164E-02  0.1226707E+00
        -11   -1    0    0    0    0  0.00000000000E+00  0.00000000000E+00  0.45593999997E+02  0.45594000000E+02  0.51100000000E-03 0.  1.
         11   -1    0    0    0    0 -0.00000000000E+00 -0.00000000000E+00 -0.45593999997E+02  0.45594000000E+02  0.51100000000E-03 0. -1.
    9900012    2    1    2    0    0 -0.16266267141E+02  0.40491159304E+01  0.83476838387E+01  0.72461798784E+02  0.70000297649E+02 0.  0.
         12    1    1    2    0    0  0.16266267141E+02 -0.40491159304E+01 -0.83476838387E+01  0.18726201216E+02  0.00000000000E+00 0. -1.
         11    1    3    3    0    0 -0.10220800756E+02 -0.70295773821E+01 -0.99796153545E+01  0.15920818106E+02  0.51100000000E-03 0. -1.
        -11    1    3    3    0    0 -0.87466096289E+01  0.31079940522E+02  0.16545301962E+02  0.36279648567E+02  0.51100000000E-03 0.  1.
        -12    1    3    3    0    0  0.27011432438E+01 -0.20001247210E+02  0.17819972307E+01  0.20261332111E+02  0.00000000000E+00 0.  1.
</event>
<event>
 7    1  0.1333056E-013  0.7246150E+02  0.7816164E-02  0.1226708E+00
        -11   -1    0    0    0    0  0.00000000000E+00  0.00000000000E+00  0.45593999997E+02  0.45594000000E+02  0.51100000000E-03 0.  1.
         11   -1    0    0    0    0 -0.00000000000E+00 -0.00000000000E+00 -0.45593999997E+02  0.45594000000E+02  0.51100000000E-03 0. -1.
    9900012    2    1    2    0    0 -0.18357511372E+02 -0.23152227998E+01  0.28850255307E+01  0.72461498653E+02  0.69999906674E+02 0.  0.
         12    1    1    2    0    0  0.18357511372E+02  0.23152227998E+01 -0.28850255307E+01  0.18726501347E+02  0.00000000000E+00 0. -1.
         11    1    3    3    0    0 -0.23704437673E+02  0.15474014496E+02  0.16321607070E+02  0.32676296418E+02  0.51100000000E-03 0. -1.
        -11    1    3    3    0    0  0.14557168033E+02 -0.13552715996E+02  0.33552069642E+01  0.20170390825E+02  0.51100000000E-03 0.  1.
        -12    1    3    3    0    0 -0.92102417323E+01 -0.42365212996E+01 -0.16791788503E+02  0.19614811410E+02  0.00000000000E+00 0.  1.
</event>
<event>
 7    1  0.1333056E-013  0.7246151E+02  0.7816164E-02  0.1226708E+00
        -11   -1    0    0    0    0  0.00000000000E+00  0.00000000000E+00  0.45593999997E+02  0.45594000000E+02  0.51100000000E-03 0.  1.
         11   -1    0    0    0    0 -0.00000000000E+00 -0.00000000000E+00 -0.45593999997E+02  0.45594000000E+02  0.51100000000E-03 0. -1.
    9900012    2    1    2    0    0  0.12656466335E+02 -0.10651878607E+02  0.87768323403E+01  0.72461509569E+02  0.69999920894E+02 0.  0.
         12    1    1    2    0    0 -0.12656466335E+02  0.10651878607E+02 -0.87768323403E+01  0.18726490431E+02  0.00000000000E+00 0. -1.
         11    1    3    3    0    0  0.29135965230E+02 -0.77595121095E+01  0.27832123628E+01  0.30279708872E+02  0.51100000000E-03 0. -1.
        -11    1    3    3    0    0  0.21296986976E+00  0.13555356372E+02  0.11873108664E+02  0.18021202850E+02  0.51100000000E-03 0.  1.
         12    1    3    3    0    0 -0.16692468766E+02 -0.16447722870E+02 -0.58794886864E+01  0.24160597847E+02  0.00000000000E+00 0. -1.
</event>
<event>
 7    1  0.1333056E-013  0.7246162E+02  0.7816164E-02  0.1226708E+00
        -11   -1    0    0    0    0  0.00000000000E+00  0.00000000000E+00  0.45593999997E+02  0.45594000000E+02  0.51100000000E-03 0.  1.
         11   -1    0    0    0    0 -0.00000000000E+00 -0.00000000000E+00 -0.45593999997E+02  0.45594000000E+02  0.51100000000E-03 0. -1.
    9900012    2    1    2    0    0 -0.16333462010E+02 -0.28783114816E+01  0.86954359675E+01  0.72461621149E+02  0.70000066247E+02 0.  0.
         12    1    1    2    0    0  0.16333462010E+02  0.28783114816E+01 -0.86954359675E+01  0.18726378851E+02  0.00000000000E+00 0. -1.
         11    1    3    3    0    0  0.16171519595E+01  0.23747657565E+02  0.15457785413E+01  0.23852795472E+02  0.51100000000E-03 0. -1.
        -11    1    3    3    0    0 -0.16598329288E+02 -0.35450967356E+02  0.61626463399E+01  0.39626428451E+02  0.51100000000E-03 0.  1.
        -12    1    3    3    0    0 -0.13522846817E+01  0.88249983098E+01  0.98701108642E+00  0.89823972253E+01  0.00000000000E+00 0.  1.
</event>
<event>
 7    1  0.1333056E-013  0.7246158E+02  0.7816164E-02  0.1226708E+00
        -11   -1    0    0    0    0  0.00000000000E+00  0.00000000000E+00  0.45593999997E+02  0.45594000000E+02  0.51100000000E-03 0. -1.
         11   -1    0    0    0    0 -0.00000000000E+00 -0.00000000000E+00 -0.45593999997E+02  0.45594000000E+02  0.51100000000E-03 0.  1.
    9900012    2    1    2    0    0  0.13949733302E+02 -0.10324454775E+02 -0.70348819730E+01  0.72461575089E+02  0.70000006246E+02 0.  0.
         12    1    1    2    0    0 -0.13949733302E+02  0.10324454775E+02  0.70348819730E+01  0.18726424911E+02  0.00000000000E+00 0. -1.
         11    1    3    3    0    0 -0.50429000165E+01 -0.21272951765E+02  0.20253306705E+02  0.29802109826E+02  0.51100000000E-03 0. -1.
        -11    1    3    3    0    0  0.15777334141E+02 -0.32162994622E+01 -0.21866746219E+02  0.27155541705E+02  0.51100000000E-03 0.  1.
         12    1    3    3    0    0  0.32152991773E+01  0.14164796453E+02 -0.54214424591E+01  0.15503923558E+02  0.00000000000E+00 0. -1.
</event>
<event>
 7    1  0.1333056E-013  0.7246155E+02  0.7816164E-02  0.1226708E+00
        -11   -1    0    0    0    0  0.00000000000E+00  0.00000000000E+00  0.45593999997E+02  0.45594000000E+02  0.51100000000E-03 0.  1.
         11   -1    0    0    0    0 -0.00000000000E+00 -0.00000000000E+00 -0.45593999997E+02  0.45594000000E+02  0.51100000000E-03 0. -1.
    9900012    2    1    2    0    0 -0.68056737777E+01  0.85730663211E+01  0.15194247029E+02  0.72461553341E+02  0.69999977915E+02 0.  0.
         12    1    1    2    0    0  0.68056737777E+01 -0.85730663211E+01 -0.15194247029E+02  0.18726446659E+02  0.00000000000E+00 0. -1.
         11    1    3    3    0    0  0.42311188178E+01 -0.22848397539E+02  0.14507595958E+02  0.27393831007E+02  0.51100000000E-03 0. -1.
        -11    1    3    3    0    0 -0.64457877329E+01  0.21668008472E+02 -0.14193727492E+02  0.26692932979E+02  0.51100000000E-03 0.  1.
         12    1    3    3    0    0 -0.45910048627E+01  0.97534553879E+01  0.14880378563E+02  0.18374789355E+02  0.00000000000E+00 0. -1.
</event>
<event>
 7    1  0.1333056E-013  0.7246156E+02  0.7816164E-02  0.1226708E+00
        -11   -1    0    0    0    0  0.00000000000E+00  0.00000000000E+00  0.45593999997E+02  0.45594000000E+02  0.51100000000E-03 0.  1.
         11   -1    0    0    0    0 -0.00000000000E+00 -0.00000000000E+00 -0.45593999997E+02  0.45594000000E+02  0.51100000000E-03 0. -1.
    9900012    2    1    2    0    0  0.37460722407E+01 -0.11042070569E+02  0.14653297703E+02  0.72461561117E+02  0.69999988045E+02 0.  0.
         12    1    1    2    0    0 -0.37460722407E+01  0.11042070569E+02 -0.14653297703E+02  0.18726438883E+02  0.00000000000E+00 0. -1.
         11    1    3    3    0    0 -0.12732439580E+02  0.27189126383E+01  0.15038659186E+02  0.19891424634E+02  0.51100000000E-03 0. -1.
        -11    1    3    3    0    0  0.58316895007E+01 -0.19520828287E+02 -0.20622503320E+02  0.28988945874E+02  0.51100000000E-03 0.  1.
         12    1    3    3    0    0  0.10646822320E+02  0.57598450800E+01  0.20237141836E+02  0.23581190610E+02  0.00000000000E+00 0. -1.
</event>
<event>
 7    1  0.1333056E-013  0.7246157E+02  0.7816164E-02  0.1226708E+00
        -11   -1    0    0    0    0  0.00000000000E+00  0.00000000000E+00  0.45593999997E+02  0.45594000000E+02  0.51100000000E-03 0.  1.
         11   -1    0    0    0    0 -0.00000000000E+00 -0.00000000000E+00 -0.45593999997E+02  0.45594000000E+02  0.51100000000E-03 0. -1.
    9900012    2    1    2    0    0  0.15262639359E+02 -0.22190168491E+00  0.10848122404E+02  0.72461570542E+02  0.70000000322E+02 0.  0.
         12    1    1    2    0    0 -0.15262639359E+02  0.22190168491E+00 -0.10848122404E+02  0.18726429458E+02  0.00000000000E+00 0. -1.
         11    1    3    3    0    0 -0.15816593215E+02 -0.12190849253E+02 -0.26083661008E+01  0.20139141005E+02  0.51100000000E-03 0. -1.
        -11    1    3    3    0    0  0.27200225359E+02  0.42235851737E+01 -0.84266642922E+01  0.28787143010E+02  0.51100000000E-03 0.  1.
        -12    1    3    3    0    0  0.38790072152E+01  0.77453623943E+01  0.21883152797E+02  0.23535286527E+02  0.00000000000E+00 0.  1.
</event>
<event>
 8    1  0.1333056E-013  0.7246161E+02  0.7816164E-02  0.1226708E+00
        -11   -1    0    0    0    0  0.00000000000E+00  0.00000000000E+00  0.45593999997E+02  0.45594000000E+02  0.51100000000E-03 0.  1.
         11   -1    0    0    0    0 -0.00000000000E+00 -0.00000000000E+00 -0.45593999997E+02  0.45594000000E+02  0.51100000000E-03 0. -1.
    9900012    2    1    2    0    0  0.79597594514E+01 -0.29523172374E+01  0.16691425994E+02  0.72461610885E+02  0.70000052876E+02 0.  0.
        -24    2    3    3    0    0 -0.10953500974E+02  0.49074433659E+00  0.58573493469E+01  0.50394818867E+02  0.48837579932E+02 0.  0.
         12    1    1    2    0    0 -0.79597594514E+01  0.29523172374E+01 -0.16691425994E+02  0.18726389115E+02  0.00000000000E+00 0. -1.
         11    1    4    4    0    0 -0.20440850515E+02  0.19824284383E+02  0.43595946197E+01  0.28806886097E+02  0.51100000000E-03 0. -1.
        -11    1    3    3    0    0  0.18913260425E+02 -0.34430615740E+01  0.10834076647E+02  0.22066792018E+02  0.51100000000E-03 0.  1.
        -12    1    4    4    0    0  0.94873495416E+01 -0.19333540046E+02  0.14977547272E+01  0.21587932770E+02  0.00000000000E+00 0.  1.
</event>
<event>
 7    1  0.1333056E-013  0.7246140E+02  0.7816164E-02  0.1226708E+00
        -11   -1    0    0    0    0  0.00000000000E+00  0.00000000000E+00  0.45593999997E+02  0.45594000000E+02  0.51100000000E-03 0.  1.
         11   -1    0    0    0    0 -0.00000000000E+00 -0.00000000000E+00 -0.45593999997E+02  0.45594000000E+02  0.51100000000E-03 0. -1.
    9900012    2    1    2    0    0 -0.18684408769E+02  0.12416265734E+01  0.19146462098E+00  0.72461403238E+02  0.69999782378E+02 0.  0.
         12    1    1    2    0    0  0.18684408769E+02 -0.12416265734E+01 -0.19146462098E+00  0.18726596762E+02  0.00000000000E+00 0. -1.
         11    1    3    3    0    0  0.70647500488E+01 -0.17702163821E+02  0.23008687682E+01  0.19198210712E+02  0.51100000000E-03 0. -1.
        -11    1    3    3    0    0 -0.34083451798E+02  0.14959970778E+02 -0.12589134773E+02  0.39293367466E+02  0.51100000000E-03 0.  1.
        -12    1    3    3    0    0  0.83342929811E+01  0.39838196161E+01  0.10479730626E+02  0.13969825060E+02  0.00000000000E+00 0.  1.
</event>
<event>
 7    1  0.1333056E-013  0.7246162E+02  0.7816164E-02  0.1226708E+00
        -11   -1    0    0    0    0  0.00000000000E+00  0.00000000000E+00  0.45593999997E+02  0.45594000000E+02  0.51100000000E-03 0.  1.
         11   -1    0    0    0    0 -0.00000000000E+00 -0.00000000000E+00 -0.45593999997E+02  0.45594000000E+02  0.51100000000E-03 0. -1.
    9900012    2    1    2    0    0  0.87474906690E+01  0.14794390393E+02 -0.74353778726E+01  0.72461616894E+02  0.70000060705E+02 0.  0.
         12    1    1    2    0    0 -0.87474906690E+01 -0.14794390393E+02  0.74353778726E+01  0.18726383106E+02  0.00000000000E+00 0. -1.
         11    1    3    3    0    0  0.50145533334E+01  0.38691998592E+02 -0.17850071649E+02  0.42905029523E+02  0.51100000000E-03 0. -1.
        -11    1    3    3    0    0  0.19164082782E+01 -0.11131432552E+02  0.12099382403E+02  0.16552234475E+02  0.51100000000E-03 0.  1.
         12    1    3    3    0    0  0.18165290574E+01 -0.12766175647E+02 -0.16846886270E+01  0.13004352896E+02  0.00000000000E+00 0. -1.
</event>
<event>
 7    1  0.1333056E-013  0.7246156E+02  0.7816164E-02  0.1226708E+00
        -11   -1    0    0    0    0  0.00000000000E+00  0.00000000000E+00  0.45593999997E+02  0.45594000000E+02  0.51100000000E-03 0.  1.
         11   -1    0    0    0    0 -0.00000000000E+00 -0.00000000000E+00 -0.45593999997E+02  0.45594000000E+02  0.51100000000E-03 0. -1.
    9900012    2    1    2    0    0  0.45648714947E+01  0.12272420523E+02  0.13387657034E+02  0.72461555647E+02  0.69999980919E+02 0.  0.
         12    1    1    2    0    0 -0.45648714947E+01 -0.12272420523E+02 -0.13387657034E+02  0.18726444353E+02  0.00000000000E+00 0. -1.
         11    1    3    3    0    0 -0.55976440266E+01 -0.82940495488E+01 -0.81414466689E+01  0.12899923670E+02  0.51100000000E-03 0. -1.
        -11    1    3    3    0    0  0.27328115068E+02  0.65615389709E+01 -0.78775520018E+00  0.28115835847E+02  0.51100000000E-03 0.  1.
        -12    1    3    3    0    0 -0.17165599547E+02  0.14004931101E+02  0.22316858903E+02  0.31445796130E+02  0.00000000000E+00 0.  1.
</event>
<event>
 7    1  0.1333056E-013  0.7246155E+02  0.7816164E-02  0.1226708E+00
        -11   -1    0    0    0    0  0.00000000000E+00  0.00000000000E+00  0.45593999997E+02  0.45594000000E+02  0.51100000000E-03 0. -1.
         11   -1    0    0    0    0 -0.00000000000E+00 -0.00000000000E+00 -0.45593999997E+02  0.45594000000E+02  0.51100000000E-03 0.  1.
    9900012    2    1    2    0    0 -0.75910964637E+01 -0.16741511714E+02  0.35744699677E+01  0.72461553579E+02  0.69999978225E+02 0.  0.
         12    1    1    2    0    0  0.75910964637E+01  0.16741511714E+02 -0.35744699677E+01  0.18726446421E+02  0.00000000000E+00 0. -1.
         11    1    3    3    0    0  0.26916180645E+02  0.39997831055E+01 -0.36096360806E+01  0.27450109623E+02  0.51100000000E-03 0. -1.
        -11    1    3    3    0    0 -0.16434004712E+02 -0.14999823879E+02 -0.45508764035E+01  0.22710827893E+02  0.51100000000E-03 0.  1.
         12    1    3    3    0    0 -0.18073272396E+02 -0.57414709413E+01  0.11734982452E+02  0.22300616064E+02  0.00000000000E+00 0. -1.
</event>
<event>
 7    1  0.1333056E-013  0.7246158E+02  0.7816164E-02  0.1226708E+00
        -11   -1    0    0    0    0  0.00000000000E+00  0.00000000000E+00  0.45593999997E+02  0.45594000000E+02  0.51100000000E-03 0.  1.
         11   -1    0    0    0    0 -0.00000000000E+00 -0.00000000000E+00 -0.45593999997E+02  0.45594000000E+02  0.51100000000E-03 0. -1.
    9900012    2    1    2    0    0  0.84027823472E+01 -0.14231396316E+02  0.88056436260E+01  0.72461581443E+02  0.70000014524E+02 0.  0.
         12    1    1    2    0    0 -0.84027823472E+01  0.14231396316E+02 -0.88056436260E+01  0.18726418557E+02  0.00000000000E+00 0. -1.
         11    1    3    3    0    0 -0.11000939946E+02 -0.23370744582E+02 -0.15816691309E+02  0.30288283316E+02  0.51100000000E-03 0. -1.
        -11    1    3    3    0    0  0.11980496102E+02  0.18555972230E+02  0.13972281569E+02  0.26135819190E+02  0.51100000000E-03 0.  1.
        -12    1    3    3    0    0  0.74232261913E+01 -0.94166239645E+01  0.10650053366E+02  0.16037478937E+02  0.00000000000E+00 0.  1.
</event>
<event>
 7    1  0.1333056E-013  0.7246155E+02  0.7816164E-02  0.1226708E+00
        -11   -1    0    0    0    0  0.00000000000E+00  0.00000000000E+00  0.45593999997E+02  0.45594000000E+02  0.51100000000E-03 0. -1.
         11   -1    0    0    0    0 -0.00000000000E+00 -0.00000000000E+00 -0.45593999997E+02  0.45594000000E+02  0.51100000000E-03 0.  1.
    9900012    2    1    2    0    0  0.13745926735E+02 -0.66573900943E+01 -0.10835516399E+02  0.72461554520E+02  0.69999979451E+02 0.  0.
         12    1    1    2    0    0 -0.13745926735E+02  0.66573900943E+01  0.10835516399E+02  0.18726445480E+02  0.00000000000E+00 0. -1.
         11    1    3    3    0    0 -0.23697945741E+01 -0.74567595004E+00  0.12227903458E+02  0.12477723437E+02  0.51100000000E-03 0. -1.
        -11    1    3    3    0    0  0.14550946347E+02  0.17428919624E+02 -0.28027501510E+02  0.36069906017E+02  0.51100000000E-03 0.  1.
        -12    1    3    3    0    0  0.15647749620E+01 -0.23340633769E+02  0.49640816532E+01  0.23913925066E+02  0.00000000000E+00 0.  1.
</event>
<event>
 7    1  0.1333056E-013  0.7246158E+02  0.7816164E-02  0.1226708E+00
        -11   -1    0    0    0    0  0.00000000000E+00  0.00000000000E+00  0.45593999997E+02  0.45594000000E+02  0.51100000000E-03 0. -1.
         11   -1    0    0    0    0 -0.00000000000E+00 -0.00000000000E+00 -0.45593999997E+02  0.45594000000E+02  0.51100000000E-03 0.  1.
    9900012    2    1    2    0    0  0.11346118819E+02  0.13613904774E+02 -0.60502776863E+01  0.72461583484E+02  0.70000017182E+02 0.  0.
         12    1    1    2    0    0 -0.11346118819E+02 -0.13613904774E+02  0.60502776863E+01  0.18726416516E+02  0.00000000000E+00 0. -1.
         11    1    3    3    0    0 -0.10342163104E+02 -0.20612951883E+01 -0.34959683773E+01  0.11109953676E+02  0.51100000000E-03 0. -1.
        -11    1    3    3    0    0  0.17769773248E+02  0.26720132084E+02 -0.21817337607E+02  0.38803692097E+02  0.51100000000E-03 0.  1.
        -12    1    3    3    0    0  0.39185086751E+01 -0.11044932122E+02  0.19263028298E+02  0.22547937711E+02  0.00000000000E+00 0.  1.
</event>
<event>
 7    1  0.1333056E-013  0.7246151E+02  0.7816164E-02  0.1226708E+00
        -11   -1    0    0    0    0  0.00000000000E+00  0.00000000000E+00  0.45593999997E+02  0.45594000000E+02  0.51100000000E-03 0.  1.
         11   -1    0    0    0    0 -0.00000000000E+00 -0.00000000000E+00 -0.45593999997E+02  0.45594000000E+02  0.51100000000E-03 0. -1.
    9900012    2    1    2    0    0  0.29554220498E+01 -0.21842584127E+00  0.18490519954E+02  0.72461506534E+02  0.69999916941E+02 0.  0.
         12    1    1    2    0    0 -0.29554220498E+01  0.21842584127E+00 -0.18490519954E+02  0.18726493466E+02  0.00000000000E+00 0. -1.
         11    1    3    3    0    0 -0.25267762048E+02  0.18990425948E+02  0.31985607342E+01  0.31769905062E+02  0.51100000000E-03 0. -1.
        -11    1    3    3    0    0  0.28588207832E+01 -0.10504466849E+02  0.40870410746E+01  0.11628438634E+02  0.51100000000E-03 0.  1.
         12    1    3    3    0    0  0.25364363315E+02 -0.87043849403E+01  0.11204918145E+02  0.29063162839E+02  0.00000000000E+00 0. -1.
</event>
<event>
 7    1  0.1333056E-013  0.7246117E+02  0.7816164E-02  0.1226709E+00
        -11   -1    0    0    0    0  0.00000000000E+00  0.00000000000E+00  0.45593999997E+02  0.45594000000E+02  0.51100000000E-03 0. -1.
         11   -1    0    0    0    0 -0.00000000000E+00 -0.00000000000E+00 -0.45593999997E+02  0.45594000000E+02  0.51100000000E-03 0.  1.
    9900012    2    1    2    0    0  0.18300806594E+02 -0.37235180236E+01 -0.13820515265E+01  0.72461169652E+02  0.69999478087E+02 0.  0.
         12    1    1    2    0    0 -0.18300806594E+02  0.37235180236E+01  0.13820515265E+01  0.18726830348E+02  0.00000000000E+00 0. -1.
         11    1    3    3    0    0  0.12302222305E+02 -0.15782667008E+02  0.16626193777E+02  0.26016678714E+02  0.51100000000E-03 0. -1.
        -11    1    3    3    0    0 -0.20248217521E+01  0.25212676723E+01 -0.29389058422E+02  0.29566424353E+02  0.51100000000E-03 0.  1.
        -12    1    3    3    0    0  0.80234060408E+01  0.95378813124E+01  0.11380813119E+02  0.16878066586E+02  0.00000000000E+00 0.  1.
</event>
<event>
 7    1  0.1333056E-013  0.7246151E+02  0.7816164E-02  0.1226708E+00
        -11   -1    0    0    0    0  0.00000000000E+00  0.00000000000E+00  0.45593999997E+02  0.45594000000E+02  0.51100000000E-03 0. -1.
         11   -1    0    0    0    0 -0.00000000000E+00 -0.00000000000E+00 -0.45593999997E+02  0.45594000000E+02  0.51100000000E-03 0.  1.
    9900012    2    1    2    0    0  0.90896643436E+01  0.13992661370E+02 -0.85008737746E+01  0.72461510072E+02  0.69999921549E+02 0.  0.
         12    1    1    2    0    0 -0.90896643436E+01 -0.13992661370E+02  0.85008737746E+01  0.18726489928E+02  0.00000000000E+00 0. -1.
         11    1    3    3    0    0 -0.42400024851E+00  0.31440810045E+02 -0.12567451144E+02  0.33862149091E+02  0.51100000000E-03 0. -1.
        -11    1    3    3    0    0  0.13009474754E+02 -0.23883763286E+02 -0.42395665662E+01  0.27525524646E+02  0.51100000000E-03 0.  1.
         12    1    3    3    0    0 -0.34958101621E+01  0.64356146108E+01  0.83061439358E+01  0.11073836336E+02  0.00000000000E+00 0. -1.
</event>
<event>
 7    1  0.1333056E-013  0.7246161E+02  0.7816164E-02  0.1226708E+00
        -11   -1    0    0    0    0  0.00000000000E+00  0.00000000000E+00  0.45593999997E+02  0.45594000000E+02  0.51100000000E-03 0. -1.
         11   -1    0    0    0    0 -0.00000000000E+00 -0.00000000000E+00 -0.45593999997E+02  0.45594000000E+02  0.51100000000E-03 0.  1.
    9900012    2    1    2    0    0 -0.16599779159E+02  0.86404942329E+01  0.68336230512E+00  0.72461607054E+02  0.70000047887E+02 0.  0.
         12    1    1    2    0    0  0.16599779159E+02 -0.86404942329E+01 -0.68336230512E+00  0.18726392946E+02  0.00000000000E+00 0. -1.
         11    1    3    3    0    0 -0.22393348882E+02 -0.10819476012E+02 -0.16781990860E+02  0.30002639097E+02  0.51100000000E-03 0. -1.
        -11    1    3    3    0    0  0.10200606786E+02  0.21097359961E+02 -0.94974575392E+00  0.23453208594E+02  0.51100000000E-03 0.  1.
         12    1    3    3    0    0 -0.44070370628E+01 -0.16373897154E+01  0.18415098919E+02  0.19005759363E+02  0.00000000000E+00 0. -1.
</event>
<event>
 7    1  0.1333056E-013  0.7246157E+02  0.7816164E-02  0.1226708E+00
        -11   -1    0    0    0    0  0.00000000000E+00  0.00000000000E+00  0.45593999997E+02  0.45594000000E+02  0.51100000000E-03 0. -1.
         11   -1    0    0    0    0 -0.00000000000E+00 -0.00000000000E+00 -0.45593999997E+02  0.45594000000E+02  0.51100000000E-03 0.  1.
    9900012    2    1    2    0    0  0.15182338827E+02 -0.84117691015E+01 -0.70297932899E+01  0.72461567735E+02  0.69999996666E+02 0.  0.
         12    1    1    2    0    0 -0.15182338827E+02  0.84117691015E+01  0.70297932899E+01  0.18726432265E+02  0.00000000000E+00 0. -1.
         11    1    3    3    0    0 -0.81847820662E+01  0.51559711450E+01 -0.38557944828E+01  0.10413541534E+02  0.51100000000E-03 0. -1.
        -11    1    3    3    0    0  0.15744068211E+02 -0.23778935533E+02 -0.24239543969E+02  0.37428183912E+02  0.51100000000E-03 0.  1.
        -12    1    3    3    0    0  0.76230526825E+01  0.10211195286E+02  0.21065545162E+02  0.24619842289E+02  0.00000000000E+00 0.  1.
</event>
<event>
 7    1  0.1333056E-013  0.7246156E+02  0.7816164E-02  0.1226708E+00
        -11   -1    0    0    0    0  0.00000000000E+00  0.00000000000E+00  0.45593999997E+02  0.45594000000E+02  0.51100000000E-03 0.  1.
         11   -1    0    0    0    0 -0.00000000000E+00 -0.00000000000E+00 -0.45593999997E+02  0.45594000000E+02  0.51100000000E-03 0. -1.
    9900012    2    1    2    0    0  0.11923608050E+02  0.42505675794E+01  0.13799988798E+02  0.72461562952E+02  0.69999990435E+02 0.  0.
         12    1    1    2    0    0 -0.11923608050E+02 -0.42505675794E+01 -0.13799988798E+02  0.18726437048E+02  0.00000000000E+00 0. -1.
         11    1    3    3    0    0  0.20858941379E+02  0.73743570237E+01  0.14176087114E+02  0.26276187378E+02  0.51100000000E-03 0.  1.
        -11    1    3    3    0    0  0.45669367107E+01 -0.16046432241E+02 -0.15014736424E+02  0.22445204582E+02  0.51100000000E-03 0. -1.
        -12    1    3    3    0    0 -0.13502270040E+02  0.12922642797E+02  0.14638638108E+02  0.23740170993E+02  0.00000000000E+00 0.  1.
</event>
<event>
 7    1  0.1333056E-013  0.7246169E+02  0.7816164E-02  0.1226708E+00
        -11   -1    0    0    0    0  0.00000000000E+00  0.00000000000E+00  0.45593999997E+02  0.45594000000E+02  0.51100000000E-03 0.  1.
         11   -1    0    0    0    0 -0.00000000000E+00 -0.00000000000E+00 -0.45593999997E+02  0.45594000000E+02  0.51100000000E-03 0. -1.
    9900012    2    1    2    0    0  0.12618613392E+01  0.16856655781E+02  0.80582522390E+01  0.72461693175E+02  0.70000160074E+02 0.  0.
         12    1    1    2    0    0 -0.12618613392E+01 -0.16856655781E+02 -0.80582522390E+01  0.18726306825E+02  0.00000000000E+00 0. -1.
         11    1    3    3    0    0  0.79566365832E+01  0.28861180406E+01 -0.55691085860E+01  0.10131767554E+02  0.51100000000E-03 0. -1.
        -11    1    3    3    0    0 -0.21170813172E+02  0.29212258026E+02  0.18800806851E+02  0.40682056092E+02  0.51100000000E-03 0.  1.
        -12    1    3    3    0    0  0.14476037928E+02 -0.15241720286E+02 -0.51734460256E+01  0.21647869529E+02  0.00000000000E+00 0.  1.
</event>
<event>
 7    1  0.1333056E-013  0.7246154E+02  0.7816164E-02  0.1226708E+00
        -11   -1    0    0    0    0  0.00000000000E+00  0.00000000000E+00  0.45593999997E+02  0.45594000000E+02  0.51100000000E-03 0.  1.
         11   -1    0    0    0    0 -0.00000000000E+00 -0.00000000000E+00 -0.45593999997E+02  0.45594000000E+02  0.51100000000E-03 0. -1.
    9900012    2    1    2    0    0  0.27728000682E+01  0.18087115271E+02  0.39809597898E+01  0.72461542783E+02  0.69999964161E+02 0.  0.
         12    1    1    2    0    0 -0.27728000682E+01 -0.18087115271E+02 -0.39809597898E+01  0.18726457217E+02  0.00000000000E+00 0. -1.
         11    1    3    3    0    0 -0.41171262815E+01  0.31494946160E+02 -0.14301355604E+02  0.34834051370E+02  0.51100000000E-03 0. -1.
        -11    1    3    3    0    0 -0.18823012729E+01 -0.14459644463E+02  0.23285371863E+02  0.27474222812E+02  0.51100000000E-03 0.  1.
        -12    1    3    3    0    0  0.87722276226E+01  0.10518135745E+01 -0.50030564688E+01  0.10153268601E+02  0.00000000000E+00 0.  1.
</event>
<event>
 7    1  0.1333056E-013  0.7246136E+02  0.7816164E-02  0.1226709E+00
        -11   -1    0    0    0    0  0.00000000000E+00  0.00000000000E+00  0.45593999997E+02  0.45594000000E+02  0.51100000000E-03 0.  1.
         11   -1    0    0    0    0 -0.00000000000E+00 -0.00000000000E+00 -0.45593999997E+02  0.45594000000E+02  0.51100000000E-03 0. -1.
    9900012    2    1    2    0    0  0.27671045187E+01 -0.13994725087E+02  0.12131683215E+02  0.72461362947E+02  0.69999729891E+02 0.  0.
         12    1    1    2    0    0 -0.27671045187E+01  0.13994725087E+02 -0.12131683215E+02  0.18726637053E+02  0.00000000000E+00 0. -1.
         11    1    3    3    0    0 -0.82430758309E+01 -0.34528274454E+02  0.13114711215E+02  0.37843700750E+02  0.51100000000E-03 0. -1.
        -11    1    3    3    0    0  0.12506886308E+02  0.23619702618E+02 -0.70566032330E+01  0.27642507237E+02  0.51100000000E-03 0.  1.
        -12    1    3    3    0    0 -0.14967059580E+01 -0.30861532520E+01  0.60735752326E+01  0.69751549607E+01  0.00000000000E+00 0.  1.
</event>
<event>
 7    1  0.1333056E-013  0.7246156E+02  0.7816164E-02  0.1226708E+00
        -11   -1    0    0    0    0  0.00000000000E+00  0.00000000000E+00  0.45593999997E+02  0.45594000000E+02  0.51100000000E-03 0. -1.
         11   -1    0    0    0    0 -0.00000000000E+00 -0.00000000000E+00 -0.45593999997E+02  0.45594000000E+02  0.51100000000E-03 0.  1.
    9900012    2    1    2    0    0 -0.10883475309E+02  0.11696712744E+02 -0.97681277493E+01  0.72461562978E+02  0.69999990469E+02 0.  0.
         12    1    1    2    0    0  0.10883475309E+02 -0.11696712744E+02  0.97681277493E+01  0.18726437022E+02  0.00000000000E+00 0. -1.
         11    1    3    3    0    0  0.45112746557E+01  0.24209688954E+02 -0.11353982539E+02  0.27117771996E+02  0.51100000000E-03 0. -1.
        -11    1    3    3    0    0 -0.10040474117E+02 -0.20803053350E+02 -0.13915913475E+02  0.26967217085E+02  0.51100000000E-03 0.  1.
        -12    1    3    3    0    0 -0.53542758480E+01  0.82900771408E+01  0.15501768265E+02  0.18376573897E+02  0.00000000000E+00 0.  1.
</event>
<event>
 7    1  0.1333056E-013  0.7246154E+02  0.7816164E-02  0.1226708E+00
        -11   -1    0    0    0    0  0.00000000000E+00  0.00000000000E+00  0.45593999997E+02  0.45594000000E+02  0.51100000000E-03 0.  1.
         11   -1    0    0    0    0 -0.00000000000E+00 -0.00000000000E+00 -0.45593999997E+02  0.45594000000E+02  0.51100000000E-03 0. -1.
    9900012    2    1    2    0    0  0.95801682849E+01 -0.13470036390E+02  0.88010756588E+01  0.72461536440E+02  0.69999955899E+02 0.  0.
         12    1    1    2    0    0 -0.95801682849E+01  0.13470036390E+02 -0.88010756588E+01  0.18726463560E+02  0.00000000000E+00 0. -1.
         11    1    3    3    0    0  0.10747540066E+02  0.20839628148E+02 -0.12116410774E+02  0.26393315994E+02  0.51100000000E-03 0. -1.
        -11    1    3    3    0    0 -0.10339385920E+02 -0.90088978573E+01  0.10242242975E+02  0.17116269547E+02  0.51100000000E-03 0.  1.
         12    1    3    3    0    0  0.91720141383E+01 -0.25300766681E+02  0.10675243458E+02  0.28951950899E+02  0.00000000000E+00 0. -1.
</event>
<event>
 7    1  0.1333056E-013  0.7246164E+02  0.7816164E-02  0.1226708E+00
        -11   -1    0    0    0    0  0.00000000000E+00  0.00000000000E+00  0.45593999997E+02  0.45594000000E+02  0.51100000000E-03 0.  1.
         11   -1    0    0    0    0 -0.00000000000E+00 -0.00000000000E+00 -0.45593999997E+02  0.45594000000E+02  0.51100000000E-03 0. -1.
    9900012    2    1    2    0    0  0.61867829988E+01 -0.59137263912E+01  0.16656174034E+02  0.72461639512E+02  0.70000090168E+02 0.  0.
         12    1    1    2    0    0 -0.61867829988E+01  0.59137263912E+01 -0.16656174034E+02  0.18726360488E+02  0.00000000000E+00 0. -1.
         11    1    3    3    0    0  0.71301676621E+00  0.24958264068E+02 -0.87255694330E+01  0.26449175798E+02  0.51100000000E-03 0. -1.
        -11    1    3    3    0    0 -0.78652754613E+01 -0.61640306606E+01  0.41968355615E+01  0.10838415985E+02  0.51100000000E-03 0.  1.
         12    1    3    3    0    0  0.13339041694E+02 -0.24707959798E+02  0.21184907905E+02  0.35174047729E+02  0.00000000000E+00 0. -1.
</event>
<event>
 7    1  0.1333056E-013  0.7246150E+02  0.7816164E-02  0.1226708E+00
        -11   -1    0    0    0    0  0.00000000000E+00  0.00000000000E+00  0.45593999997E+02  0.45594000000E+02  0.51100000000E-03 0. -1.
         11   -1    0    0    0    0 -0.00000000000E+00 -0.00000000000E+00 -0.45593999997E+02  0.45594000000E+02  0.51100000000E-03 0.  1.
    9900012    2    1    2    0    0  0.26966003500E+01  0.45710725528E+01 -0.17958718423E+02  0.72461496720E+02  0.69999904155E+02 0.  0.
         12    1    1    2    0    0 -0.26966003500E+01 -0.45710725528E+01  0.17958718423E+02  0.18726503280E+02  0.00000000000E+00 0. -1.
         11    1    3    3    0    0 -0.69259265532E+01  0.30664769257E+02 -0.12150363948E+01  0.31460655523E+02  0.51100000000E-03 0. -1.
        -11    1    3    3    0    0  0.15355910919E+02 -0.16912819590E+02 -0.23114536570E+01  0.22960624663E+02  0.51100000000E-03 0.  1.
         12    1    3    3    0    0 -0.57333840154E+01 -0.91808771142E+01 -0.14432228371E+02  0.18040216534E+02  0.00000000000E+00 0. -1.
</event>
<event>
 7    1  0.1333056E-013  0.7246161E+02  0.7816164E-02  0.1226708E+00
        -11   -1    0    0    0    0  0.00000000000E+00  0.00000000000E+00  0.45593999997E+02  0.45594000000E+02  0.51100000000E-03 0.  1.
         11   -1    0    0    0    0 -0.00000000000E+00 -0.00000000000E+00 -0.45593999997E+02  0.45594000000E+02  0.51100000000E-03 0. -1.
    9900012    2    1    2    0    0 -0.15050054528E+02  0.47404453325E+01  0.10084724739E+02  0.72461611231E+02  0.70000053328E+02 0.  0.
         12    1    1    2    0    0  0.15050054528E+02 -0.47404453325E+01 -0.10084724739E+02  0.18726388769E+02  0.00000000000E+00 0. -1.
         11    1    3    3    0    0  0.12397294811E+02  0.97751415988E+01 -0.42036932153E+01  0.16337605358E+02  0.51100000000E-03 0. -1.
        -11    1    3    3    0    0 -0.13613481327E+02 -0.19690695067E+02  0.23872458572E+02  0.33807464036E+02  0.51100000000E-03 0.  1.
        -12    1    3    3    0    0 -0.13833868012E+02  0.14655998800E+02 -0.95840406173E+01  0.22316541837E+02  0.00000000000E+00 0.  1.
</event>
<event>
 7    1  0.1753412E-013  0.7246158E+02  0.7816164E-02  0.1226708E+00
        -11   -1    0    0    0    0  0.00000000000E+00  0.00000000000E+00  0.45593999997E+02  0.45594000000E+02  0.51100000000E-03 0. -1.
         11   -1    0    0    0    0 -0.00000000000E+00 -0.00000000000E+00 -0.45593999997E+02  0.45594000000E+02  0.51100000000E-03 0.  1.
    9900012    2    1    2    0    0 -0.12307113886E+01 -0.24997461913E+01 -0.18517980691E+02  0.72461575076E+02  0.70000006229E+02 0.  0.
         12    1    1    2    0    0  0.12307113886E+01  0.24997461913E+01  0.18517980691E+02  0.18726424924E+02  0.00000000000E+00 0. -1.
         11    1    3    3    0    0  0.89753067502E+01  0.12692050096E+02  0.15272899082E+02  0.21792331530E+02  0.51100000000E-03 0. -1.
        -11    1    3    3    0    0 -0.92338807171E-02 -0.19607149567E+02 -0.34340703614E+02  0.39543954334E+02  0.51100000000E-03 0.  1.
        -12    1    3    3    0    0 -0.10196784258E+02  0.44153532795E+01  0.54982384138E+00  0.11125289212E+02  0.00000000000E+00 0.  1.
</event>
<event>
 7    1  0.1333056E-013  0.7246156E+02  0.7816164E-02  0.1226708E+00
        -11   -1    0    0    0    0  0.00000000000E+00  0.00000000000E+00  0.45593999997E+02  0.45594000000E+02  0.51100000000E-03 0.  1.
         11   -1    0    0    0    0 -0.00000000000E+00 -0.00000000000E+00 -0.45593999997E+02  0.45594000000E+02  0.51100000000E-03 0. -1.
    9900012    2    1    2    0    0  0.18124402227E+02 -0.30547597955E+01  0.35852378686E+01  0.72461562964E+02  0.69999990451E+02 0.  0.
         12    1    1    2    0    0 -0.18124402227E+02  0.30547597955E+01 -0.35852378686E+01  0.18726437036E+02  0.00000000000E+00 0. -1.
         11    1    3    3    0    0  0.16870503144E+02 -0.14789396825E+02 -0.25732035253E+02  0.34139094501E+02  0.51100000000E-03 0. -1.
        -11    1    3    3    0    0  0.40649806139E+01 -0.30082196262E+01  0.20062375280E+02  0.20689909494E+02  0.51100000000E-03 0.  1.
        -12    1    3    3    0    0 -0.28110815307E+01  0.14742856656E+02  0.92548978420E+01  0.17632558970E+02  0.00000000000E+00 0.  1.
</event>
<event>
 7    1  0.1333056E-013  0.7246160E+02  0.7816164E-02  0.1226708E+00
        -11   -1    0    0    0    0  0.00000000000E+00  0.00000000000E+00  0.45593999997E+02  0.45594000000E+02  0.51100000000E-03 0. -1.
         11   -1    0    0    0    0 -0.00000000000E+00 -0.00000000000E+00 -0.45593999997E+02  0.45594000000E+02  0.51100000000E-03 0.  1.
    9900012    2    1    2    0    0 -0.10805568225E+02  0.87218100647E+01  0.12563748462E+02  0.72461600162E+02  0.70000038908E+02 0.  0.
         12    1    1    2    0    0  0.10805568225E+02 -0.87218100647E+01 -0.12563748462E+02  0.18726399838E+02  0.00000000000E+00 0. -1.
         11    1    3    3    0    0 -0.73851140673E+01 -0.24496906184E+01 -0.60411977404E+01  0.98507342017E+01  0.51100000000E-03 0. -1.
        -11    1    3    3    0    0  0.18934880638E+02  0.24681131068E+02  0.10231408718E+01  0.31124504061E+02  0.51100000000E-03 0.  1.
        -12    1    3    3    0    0 -0.22355334796E+02 -0.13509630385E+02  0.17581805330E+02  0.31486361899E+02  0.00000000000E+00 0.  1.
</event>
<event>
 7    1  0.1333056E-013  0.7246164E+02  0.7816164E-02  0.1226708E+00
        -11   -1    0    0    0    0  0.00000000000E+00  0.00000000000E+00  0.45593999997E+02  0.45594000000E+02  0.51100000000E-03 0. -1.
         11   -1    0    0    0    0 -0.00000000000E+00 -0.00000000000E+00 -0.45593999997E+02  0.45594000000E+02  0.51100000000E-03 0.  1.
    9900012    2    1    2    0    0  0.12600813069E+02 -0.13780666641E+02  0.14104116401E+01  0.72461640929E+02  0.70000092014E+02 0.  0.
         12    1    1    2    0    0 -0.12600813069E+02  0.13780666641E+02 -0.14104116401E+01  0.18726359071E+02  0.00000000000E+00 0. -1.
         11    1    3    3    0    0  0.15585230019E+02 -0.21941627200E+01  0.18928980173E+02  0.24617474189E+02  0.51100000000E-03 0. -1.
        -11    1    3    3    0    0 -0.21306478457E+02 -0.10416693575E+02 -0.19927540761E+01  0.23800096604E+02  0.51100000000E-03 0.  1.
        -12    1    3    3    0    0  0.18322061508E+02 -0.11698103457E+01 -0.15525814457E+02  0.24044070136E+02  0.00000000000E+00 0.  1.
</event>
<event>
 7    1  0.1333056E-013  0.7246157E+02  0.7816164E-02  0.1226708E+00
        -11   -1    0    0    0    0  0.00000000000E+00  0.00000000000E+00  0.45593999997E+02  0.45594000000E+02  0.51100000000E-03 0.  1.
         11   -1    0    0    0    0 -0.00000000000E+00 -0.00000000000E+00 -0.45593999997E+02  0.45594000000E+02  0.51100000000E-03 0. -1.
    9900012    2    1    2    0    0  0.56561289808E+01  0.17535882268E+02  0.33437033035E+01  0.72461566444E+02  0.69999994984E+02 0.  0.
         12    1    1    2    0    0 -0.56561289808E+01 -0.17535882268E+02 -0.33437033035E+01  0.18726433556E+02  0.00000000000E+00 0. -1.
         11    1    3    3    0    0  0.32342940409E+02  0.10769561565E+02  0.13735141015E+02  0.36751916271E+02  0.51100000000E-03 0.  1.
        -11    1    3    3    0    0 -0.15509305767E+02 -0.83257570788E+00 -0.14838915468E+02  0.21480809115E+02  0.51100000000E-03 0. -1.
        -12    1    3    3    0    0 -0.11177505661E+02  0.75988964104E+01  0.44474777564E+01  0.14228841058E+02  0.00000000000E+00 0.  1.
</event>
<event>
 7    1  0.1333056E-013  0.7246156E+02  0.7816164E-02  0.1226708E+00
        -11   -1    0    0    0    0  0.00000000000E+00  0.00000000000E+00  0.45593999997E+02  0.45594000000E+02  0.51100000000E-03 0. -1.
         11   -1    0    0    0    0 -0.00000000000E+00 -0.00000000000E+00 -0.45593999997E+02  0.45594000000E+02  0.51100000000E-03 0.  1.
    9900012    2    1    2    0    0  0.41721047691E+01  0.16868333747E+02  0.69808714649E+01  0.72461555917E+02  0.69999981270E+02 0.  0.
         12    1    1    2    0    0 -0.41721047691E+01 -0.16868333747E+02 -0.69808714649E+01  0.18726444083E+02  0.00000000000E+00 0. -1.
         11    1    3    3    0    0  0.30960812260E+02  0.20983503227E+02  0.10801838529E+02  0.38930181343E+02  0.51100000000E-03 0. -1.
        -11    1    3    3    0    0 -0.12308981129E+02 -0.11653350845E+02 -0.27496218558E+01  0.17171838078E+02  0.51100000000E-03 0.  1.
         12    1    3    3    0    0 -0.14479726362E+02  0.75381813647E+01 -0.10713452081E+01  0.16359536496E+02  0.00000000000E+00 0. -1.
</event>
<event>
 7    1  0.1333056E-013  0.7246159E+02  0.7816164E-02  0.1226708E+00
        -11   -1    0    0    0    0  0.00000000000E+00  0.00000000000E+00  0.45593999997E+02  0.45594000000E+02  0.51100000000E-03 0. -1.
         11   -1    0    0    0    0 -0.00000000000E+00 -0.00000000000E+00 -0.45593999997E+02  0.45594000000E+02  0.51100000000E-03 0.  1.
    9900012    2    1    2    0    0  0.16863665100E+02 -0.76726974479E+01 -0.27248792572E+01  0.72461589407E+02  0.70000024898E+02 0.  0.
         12    1    1    2    0    0 -0.16863665100E+02  0.76726974479E+01  0.27248792572E+01  0.18726410593E+02  0.00000000000E+00 0. -1.
         11    1    3    3    0    0  0.21194852551E+02 -0.21227874537E+02  0.34841687295E+01  0.30199070582E+02  0.51100000000E-03 0. -1.
        -11    1    3    3    0    0 -0.10424856579E+02  0.16734002860E+02 -0.19228823089E+02  0.27540009514E+02  0.51100000000E-03 0.  1.
         12    1    3    3    0    0  0.60936691276E+01 -0.31788257703E+01  0.13019775102E+02  0.14722509311E+02  0.00000000000E+00 0. -1.
</event>
<event>
 7    1  0.1333056E-013  0.7246144E+02  0.7816164E-02  0.1226708E+00
        -11   -1    0    0    0    0  0.00000000000E+00  0.00000000000E+00  0.45593999997E+02  0.45594000000E+02  0.51100000000E-03 0. -1.
         11   -1    0    0    0    0 -0.00000000000E+00 -0.00000000000E+00 -0.45593999997E+02  0.45594000000E+02  0.51100000000E-03 0.  1.
    9900012    2    1    2    0    0  0.53397971194E+01  0.17565163297E+02 -0.36926277867E+01  0.72461444126E+02  0.69999835642E+02 0.  0.
         12    1    1    2    0    0 -0.53397971194E+01 -0.17565163297E+02  0.36926277867E+01  0.18726555874E+02  0.00000000000E+00 0. -1.
         11    1    3    3    0    0 -0.49931392361E+01  0.38129383667E+01  0.11480201941E+02  0.13086824492E+02  0.51100000000E-03 0. -1.
        -11    1    3    3    0    0  0.53823831178E+00 -0.21030897341E+02 -0.81580327235E+01  0.22564171636E+02  0.51100000000E-03 0.  1.
        -12    1    3    3    0    0  0.97946980437E+01  0.34783122272E+02 -0.70147970040E+01  0.36810447997E+02  0.00000000000E+00 0.  1.
</event>
<event>
 7    1  0.1333056E-013  0.7246153E+02  0.7816164E-02  0.1226708E+00
        -11   -1    0    0    0    0  0.00000000000E+00  0.00000000000E+00  0.45593999997E+02  0.45594000000E+02  0.51100000000E-03 0.  1.
         11   -1    0    0    0    0 -0.00000000000E+00 -0.00000000000E+00 -0.45593999997E+02  0.45594000000E+02  0.51100000000E-03 0. -1.
    9900012    2    1    2    0    0 -0.90748950774E+01 -0.15138613851E+02 -0.62569533430E+01  0.72461526356E+02  0.69999942762E+02 0.  0.
         12    1    1    2    0    0  0.90748950774E+01  0.15138613851E+02  0.62569533430E+01  0.18726473644E+02  0.00000000000E+00 0. -1.
         11    1    3    3    0    0 -0.55334342277E+01  0.23965380871E+02  0.24868820240E+01  0.24721305732E+02  0.51100000000E-03 0. -1.
        -11    1    3    3    0    0 -0.67457526552E+01 -0.27927640079E+02 -0.17088788739E+02  0.33428804347E+02  0.51100000000E-03 0.  1.
         12    1    3    3    0    0  0.32042918054E+01 -0.11176354643E+02  0.83449533718E+01  0.14311416277E+02  0.00000000000E+00 0. -1.
</event>
<event>
 7    1  0.1333056E-013  0.7246161E+02  0.7816164E-02  0.1226708E+00
        -11   -1    0    0    0    0  0.00000000000E+00  0.00000000000E+00  0.45593999997E+02  0.45594000000E+02  0.51100000000E-03 0.  1.
         11   -1    0    0    0    0 -0.00000000000E+00 -0.00000000000E+00 -0.45593999997E+02  0.45594000000E+02  0.51100000000E-03 0. -1.
    9900012    2    1    2    0    0 -0.36052692575E+01 -0.48675442534E+01  0.17719671343E+02  0.72461609372E+02  0.70000050905E+02 0.  0.
         12    1    1    2    0    0  0.36052692575E+01  0.48675442534E+01 -0.17719671343E+02  0.18726390628E+02  0.00000000000E+00 0. -1.
         11    1    3    3    0    0  0.23247988264E+01  0.21157079867E+02 -0.15351536870E+02  0.26243025790E+02  0.51100000000E-03 0. -1.
        -11    1    3    3    0    0  0.62049000166E+01 -0.13364515810E+02  0.15817936680E+02  0.21617543527E+02  0.51100000000E-03 0.  1.
         12    1    3    3    0    0 -0.12134968100E+02 -0.12660108310E+02  0.17253271532E+02  0.24601040055E+02  0.00000000000E+00 0. -1.
</event>
<event>
 7    1  0.1333056E-013  0.7246154E+02  0.7816164E-02  0.1226708E+00
        -11   -1    0    0    0    0  0.00000000000E+00  0.00000000000E+00  0.45593999997E+02  0.45594000000E+02  0.51100000000E-03 0.  1.
         11   -1    0    0    0    0 -0.00000000000E+00 -0.00000000000E+00 -0.45593999997E+02  0.45594000000E+02  0.51100000000E-03 0. -1.
    9900012    2    1    2    0    0 -0.54920036484E+00 -0.19503260223E+01  0.18616527344E+02  0.72461535225E+02  0.69999954315E+02 0.  0.
         12    1    1    2    0    0  0.54920036484E+00  0.19503260223E+01 -0.18616527344E+02  0.18726464775E+02  0.00000000000E+00 0. -1.
         11    1    3    3    0    0  0.24039470288E+02  0.39154364968E+01 -0.99467119982E+01  0.26309007098E+02  0.51100000000E-03 0. -1.
        -11    1    3    3    0    0 -0.19418894923E+02  0.81903659088E+01  0.14286725513E+02  0.25461463035E+02  0.51100000000E-03 0.  1.
        -12    1    3    3    0    0 -0.51697757295E+01 -0.14056128428E+02  0.14276513829E+02  0.20691065091E+02  0.00000000000E+00 0.  1.
</event>
<event>
 7    1  0.1333056E-013  0.7246166E+02  0.7816164E-02  0.1226708E+00
        -11   -1    0    0    0    0  0.00000000000E+00  0.00000000000E+00  0.45593999997E+02  0.45594000000E+02  0.51100000000E-03 0. -1.
         11   -1    0    0    0    0 -0.00000000000E+00 -0.00000000000E+00 -0.45593999997E+02  0.45594000000E+02  0.51100000000E-03 0.  1.
    9900012    2    1    2    0    0 -0.14734320476E+02 -0.99806861335E+01  0.58276589302E+01  0.72461657480E+02  0.70000113575E+02 0.  0.
         12    1    1    2    0    0  0.14734320476E+02  0.99806861335E+01 -0.58276589302E+01  0.18726342520E+02  0.00000000000E+00 0. -1.
         11    1    3    3    0    0  0.78768992783E+01 -0.33552951618E+02 -0.27716230366E+01  0.34576408128E+02  0.51100000000E-03 0.  1.
        -11    1    3    3    0    0 -0.17287208661E+01  0.11066559098E+02 -0.19280816734E+01  0.11365505062E+02  0.51100000000E-03 0. -1.
         12    1    3    3    0    0 -0.20882498888E+02  0.12505706386E+02  0.10527363640E+02  0.26519744290E+02  0.00000000000E+00 0. -1.
</event>
<event>
 7    1  0.1333056E-013  0.7246156E+02  0.7816164E-02  0.1226708E+00
        -11   -1    0    0    0    0  0.00000000000E+00  0.00000000000E+00  0.45593999997E+02  0.45594000000E+02  0.51100000000E-03 0.  1.
         11   -1    0    0    0    0 -0.00000000000E+00 -0.00000000000E+00 -0.45593999997E+02  0.45594000000E+02  0.51100000000E-03 0. -1.
    9900012    2    1    2    0    0  0.18694064151E+02 -0.40049708245E+00  0.10253102238E+01  0.72461556305E+02  0.69999981777E+02 0.  0.
         12    1    1    2    0    0 -0.18694064151E+02  0.40049708245E+00 -0.10253102238E+01  0.18726443695E+02  0.00000000000E+00 0. -1.
         11    1    3    3    0    0 -0.51505288689E+01  0.10202643642E+02 -0.29319266159E+02  0.31468098978E+02  0.51100000000E-03 0. -1.
        -11    1    3    3    0    0  0.20850921176E+02 -0.77653534892E+01  0.20236811159E+02  0.30076405285E+02  0.51100000000E-03 0.  1.
         12    1    3    3    0    0  0.29936718440E+01 -0.28377872348E+01  0.10107765223E+02  0.10917052043E+02  0.00000000000E+00 0. -1.
</event>
<event>
 7    1  0.1333056E-013  0.7246152E+02  0.7816164E-02  0.1226708E+00
        -11   -1    0    0    0    0  0.00000000000E+00  0.00000000000E+00  0.45593999997E+02  0.45594000000E+02  0.51100000000E-03 0.  1.
         11   -1    0    0    0    0 -0.00000000000E+00 -0.00000000000E+00 -0.45593999997E+02  0.45594000000E+02  0.51100000000E-03 0. -1.
    9900012    2    1    2    0    0  0.13996549186E+01 -0.11308631399E+02  0.14860587218E+02  0.72461515267E+02  0.69999928316E+02 0.  0.
         12    1    1    2    0    0 -0.13996549186E+01  0.11308631399E+02 -0.14860587218E+02  0.18726484733E+02  0.00000000000E+00 0. -1.
         11    1    3    3    0    0  0.18702233427E+02 -0.25212592693E+02 -0.10706081834E+02  0.33167281377E+02  0.51100000000E-03 0. -1.
        -11    1    3    3    0    0  0.41922100972E+01  0.37426318787E+01  0.78003998510E+01  0.96139563643E+01  0.51100000000E-03 0.  1.
         12    1    3    3    0    0 -0.21494788605E+02  0.10161329415E+02  0.17766269201E+02  0.29680277525E+02  0.00000000000E+00 0. -1.
</event>
<event>
 7    1  0.1333056E-013  0.7246152E+02  0.7816164E-02  0.1226708E+00
        -11   -1    0    0    0    0  0.00000000000E+00  0.00000000000E+00  0.45593999997E+02  0.45594000000E+02  0.51100000000E-03 0.  1.
         11   -1    0    0    0    0 -0.00000000000E+00 -0.00000000000E+00 -0.45593999997E+02  0.45594000000E+02  0.51100000000E-03 0. -1.
    9900012    2    1    2    0    0 -0.47130914533E+01  0.10983927808E+02  0.14416007044E+02  0.72461517142E+02  0.69999930759E+02 0.  0.
         12    1    1    2    0    0  0.47130914533E+01 -0.10983927808E+02 -0.14416007044E+02  0.18726482858E+02  0.00000000000E+00 0. -1.
         11    1    3    3    0    0 -0.13437903638E+02 -0.17733665219E+02 -0.72556512823E+01  0.23403089798E+02  0.51100000000E-03 0.  1.
        -11    1    3    3    0    0  0.18527253877E+02  0.66383533769E+01  0.75696527528E+01  0.21086168804E+02  0.51100000000E-03 0. -1.
        -12    1    3    3    0    0 -0.98024416920E+01  0.22079239650E+02  0.14102005573E+02  0.27972258540E+02  0.00000000000E+00 0.  1.
</event>
<event>
 7    1  0.1333056E-013  0.7246158E+02  0.7816164E-02  0.1226708E+00
        -11   -1    0    0    0    0  0.00000000000E+00  0.00000000000E+00  0.45593999997E+02  0.45594000000E+02  0.51100000000E-03 0. -1.
         11   -1    0    0    0    0 -0.00000000000E+00 -0.00000000000E+00 -0.45593999997E+02  0.45594000000E+02  0.51100000000E-03 0.  1.
    9900012    2    1    2    0    0 -0.57018735254E+01 -0.16154653277E+02 -0.75627143675E+01  0.72461579285E+02  0.70000011712E+02 0.  0.
         12    1    1    2    0    0  0.57018735254E+01  0.16154653277E+02  0.75627143675E+01  0.18726420715E+02  0.00000000000E+00 0. -1.
         11    1    3    3    0    0 -0.25646838253E+02 -0.22592001087E+02 -0.19234782089E+02  0.39219072755E+02  0.51100000000E-03 0. -1.
        -11    1    3    3    0    0  0.16117989732E+02 -0.24681226078E+01 -0.20585319456E+01  0.16435290573E+02  0.51100000000E-03 0.  1.
         12    1    3    3    0    0  0.38269749958E+01  0.89054704185E+01  0.13730599667E+02  0.16807215957E+02  0.00000000000E+00 0. -1.
</event>
<event>
 7    1  0.1333056E-013  0.7246155E+02  0.7816164E-02  0.1226708E+00
        -11   -1    0    0    0    0  0.00000000000E+00  0.00000000000E+00  0.45593999997E+02  0.45594000000E+02  0.51100000000E-03 0.  1.
         11   -1    0    0    0    0 -0.00000000000E+00 -0.00000000000E+00 -0.45593999997E+02  0.45594000000E+02  0.51100000000E-03 0. -1.
    9900012    2    1    2    0    0  0.16750633377E+02  0.13240393285E+01  0.82670013368E+01  0.72461545190E+02  0.69999967297E+02 0.  0.
         12    1    1    2    0    0 -0.16750633377E+02 -0.13240393285E+01 -0.82670013368E+01  0.18726454810E+02  0.00000000000E+00 0. -1.
         11    1    3    3    0    0  0.18001490998E+01  0.17246851992E+02 -0.15226371213E+02  0.23076759326E+02  0.51100000000E-03 0. -1.
        -11    1    3    3    0    0  0.22273420060E+02 -0.10526355680E+02  0.29538021223E+02  0.38463022542E+02  0.51100000000E-03 0.  1.
         12    1    3    3    0    0 -0.73229357837E+01 -0.53964569836E+01 -0.60446486728E+01  0.10921763321E+02  0.00000000000E+00 0. -1.
</event>
<event>
 7    1  0.1333056E-013  0.7246154E+02  0.7816164E-02  0.1226708E+00
        -11   -1    0    0    0    0  0.00000000000E+00  0.00000000000E+00  0.45593999997E+02  0.45594000000E+02  0.51100000000E-03 0.  1.
         11   -1    0    0    0    0 -0.00000000000E+00 -0.00000000000E+00 -0.45593999997E+02  0.45594000000E+02  0.51100000000E-03 0. -1.
    9900012    2    1    2    0    0  0.17078685213E+02  0.48502328019E+01  0.59560142561E+01  0.72461538705E+02  0.69999958848E+02 0.  0.
         12    1    1    2    0    0 -0.17078685213E+02 -0.48502328019E+01 -0.59560142561E+01  0.18726461295E+02  0.00000000000E+00 0. -1.
         11    1    3    3    0    0  0.55866382503E+01  0.80168298125E+01 -0.23073747214E+02  0.25057491853E+02  0.51100000000E-03 0. -1.
        -11    1    3    3    0    0  0.19077957830E+02 -0.14366634244E+02  0.19868742145E+02  0.31066631120E+02  0.51100000000E-03 0.  1.
        -12    1    3    3    0    0 -0.75859108678E+01  0.11200037233E+02  0.91610193255E+01  0.16337415732E+02  0.00000000000E+00 0.  1.
</event>
<event>
 7    1  0.1333056E-013  0.7246155E+02  0.7816164E-02  0.1226708E+00
        -11   -1    0    0    0    0  0.00000000000E+00  0.00000000000E+00  0.45593999997E+02  0.45594000000E+02  0.51100000000E-03 0.  1.
         11   -1    0    0    0    0 -0.00000000000E+00 -0.00000000000E+00 -0.45593999997E+02  0.45594000000E+02  0.51100000000E-03 0. -1.
    9900012    2    1    2    0    0 -0.12544762812E+02 -0.12060808437E+02  0.69170681855E+01  0.72461547948E+02  0.69999970890E+02 0.  0.
         12    1    1    2    0    0  0.12544762812E+02  0.12060808437E+02 -0.69170681855E+01  0.18726452052E+02  0.00000000000E+00 0. -1.
         11    1    3    3    0    0  0.78431214310E+01 -0.15498426389E+02 -0.15185717801E+02  0.23072100028E+02  0.51100000000E-03 0. -1.
        -11    1    3    3    0    0 -0.15013711816E+02 -0.16819623068E+02  0.15705643820E+02  0.27476872287E+02  0.51100000000E-03 0.  1.
         12    1    3    3    0    0 -0.53741724271E+01  0.20257241020E+02  0.63971421659E+01  0.21912575633E+02  0.00000000000E+00 0. -1.
</event>
<event>
 7    1  0.1333056E-013  0.7246160E+02  0.7816164E-02  0.1226708E+00
        -11   -1    0    0    0    0  0.00000000000E+00  0.00000000000E+00  0.45593999997E+02  0.45594000000E+02  0.51100000000E-03 0.  1.
         11   -1    0    0    0    0 -0.00000000000E+00 -0.00000000000E+00 -0.45593999997E+02  0.45594000000E+02  0.51100000000E-03 0. -1.
    9900012    2    1    2    0    0  0.17118622343E+02 -0.61387391085E+01 -0.44661788885E+01  0.72461598781E+02  0.70000037109E+02 0.  0.
         12    1    1    2    0    0 -0.17118622343E+02  0.61387391085E+01  0.44661788885E+01  0.18726401219E+02  0.00000000000E+00 0. -1.
         11    1    3    3    0    0 -0.25527287897E+02  0.27025584911E+00 -0.49690822949E+01  0.26007830450E+02  0.51100000000E-03 0. -1.
        -11    1    3    3    0    0  0.23344721794E+02  0.50105207026E+01  0.21130104821E+01  0.23969692674E+02  0.51100000000E-03 0.  1.
         12    1    3    3    0    0  0.19301188446E+02 -0.11419515660E+02 -0.16101070757E+01  0.22484075657E+02  0.00000000000E+00 0. -1.
</event>
<event>
 7    1  0.1333056E-013  0.7246188E+02  0.7816164E-02  0.1226707E+00
        -11   -1    0    0    0    0  0.00000000000E+00  0.00000000000E+00  0.45593999997E+02  0.45594000000E+02  0.51100000000E-03 0. -1.
         11   -1    0    0    0    0 -0.00000000000E+00 -0.00000000000E+00 -0.45593999997E+02  0.45594000000E+02  0.51100000000E-03 0.  1.
    9900012    2    1    2    0    0  0.14835710688E+02  0.80314334962E+01  0.81280649954E+01  0.72461877171E+02  0.70000399763E+02 0.  0.
         12    1    1    2    0    0 -0.14835710688E+02 -0.80314334962E+01 -0.81280649954E+01  0.18726122829E+02  0.00000000000E+00 0. -1.
         11    1    3    3    0    0 -0.19520987618E+02  0.76592757520E+01  0.15000112809E+02  0.25782491097E+02  0.51100000000E-03 0. -1.
        -11    1    3    3    0    0 -0.16041398376E+01 -0.53223667719E+01 -0.85879646866E+01  0.10230053294E+02  0.51100000000E-03 0.  1.
         12    1    3    3    0    0  0.35960838143E+02  0.56945245161E+01  0.17159168726E+01  0.36449332781E+02  0.00000000000E+00 0. -1.
</event>
<event>
 7    1  0.1333056E-013  0.7246158E+02  0.7816164E-02  0.1226708E+00
        -11   -1    0    0    0    0  0.00000000000E+00  0.00000000000E+00  0.45593999997E+02  0.45594000000E+02  0.51100000000E-03 0.  1.
         11   -1    0    0    0    0 -0.00000000000E+00 -0.00000000000E+00 -0.45593999997E+02  0.45594000000E+02  0.51100000000E-03 0. -1.
    9900012    2    1    2    0    0  0.16455417054E+02 -0.39885528523E+01  0.79993364728E+01  0.72461583144E+02  0.70000016739E+02 0.  0.
         12    1    1    2    0    0 -0.16455417054E+02  0.39885528523E+01 -0.79993364728E+01  0.18726416856E+02  0.00000000000E+00 0. -1.
         11    1    3    3    0    0  0.19853501941E+02 -0.26178907589E+02  0.14938040609E+01  0.32889636555E+02  0.51100000000E-03 0. -1.
        -11    1    3    3    0    0 -0.12589515307E+02  0.26927456459E+01  0.11703247451E+02  0.17398642934E+02  0.51100000000E-03 0.  1.
         12    1    3    3    0    0  0.91914304189E+01  0.19497609090E+02 -0.51977150391E+01  0.22173303656E+02  0.00000000000E+00 0. -1.
</event>
<event>
 7    1  0.1333056E-013  0.7246155E+02  0.7816164E-02  0.1226708E+00
        -11   -1    0    0    0    0  0.00000000000E+00  0.00000000000E+00  0.45593999997E+02  0.45594000000E+02  0.51100000000E-03 0. -1.
         11   -1    0    0    0    0 -0.00000000000E+00 -0.00000000000E+00 -0.45593999997E+02  0.45594000000E+02  0.51100000000E-03 0.  1.
    9900012    2    1    2    0    0 -0.26637109717E+01  0.17736143334E+02 -0.53864284668E+01  0.72461554845E+02  0.69999979874E+02 0.  0.
         12    1    1    2    0    0  0.26637109717E+01 -0.17736143334E+02  0.53864284668E+01  0.18726445155E+02  0.00000000000E+00 0. -1.
         11    1    3    3    0    0  0.31000656163E+01 -0.10685278674E+02  0.19539895900E+01  0.11296179121E+02  0.51100000000E-03 0. -1.
        -11    1    3    3    0    0  0.72930211003E+01  0.32347788168E+02 -0.23035069962E+02  0.40375512437E+02  0.51100000000E-03 0.  1.
        -12    1    3    3    0    0 -0.13056797688E+02 -0.39263661598E+01  0.15694651905E+02  0.20789863287E+02  0.00000000000E+00 0.  1.
</event>
<event>
 7    1  0.1333056E-013  0.7246154E+02  0.7816164E-02  0.1226708E+00
        -11   -1    0    0    0    0  0.00000000000E+00  0.00000000000E+00  0.45593999997E+02  0.45594000000E+02  0.51100000000E-03 0.  1.
         11   -1    0    0    0    0 -0.00000000000E+00 -0.00000000000E+00 -0.45593999997E+02  0.45594000000E+02  0.51100000000E-03 0. -1.
    9900012    2    1    2    0    0  0.50975756892E+01 -0.37437546641E+01  0.17626102661E+02  0.72461535521E+02  0.69999954701E+02 0.  0.
         12    1    1    2    0    0 -0.50975756892E+01  0.37437546641E+01 -0.17626102661E+02  0.18726464479E+02  0.00000000000E+00 0. -1.
         11    1    3    3    0    0  0.13599210258E+02 -0.33838814353E+01 -0.19879322999E+02  0.24322348908E+02  0.51100000000E-03 0. -1.
        -11    1    3    3    0    0 -0.10321192857E+02  0.66890045392E+01  0.27150322783E+01  0.12595285001E+02  0.51100000000E-03 0.  1.
         12    1    3    3    0    0  0.18195582887E+01 -0.70488777680E+01  0.34790393382E+02  0.35543901612E+02  0.00000000000E+00 0. -1.
</event>
<event>
 7    1  0.1333056E-013  0.7246153E+02  0.7816164E-02  0.1226708E+00
        -11   -1    0    0    0    0  0.00000000000E+00  0.00000000000E+00  0.45593999997E+02  0.45594000000E+02  0.51100000000E-03 0. -1.
         11   -1    0    0    0    0 -0.00000000000E+00 -0.00000000000E+00 -0.45593999997E+02  0.45594000000E+02  0.51100000000E-03 0.  1.
    9900012    2    1    2    0    0  0.11889634284E+02 -0.11991756744E+02  0.80941475471E+01  0.72461525219E+02  0.69999941281E+02 0.  0.
         12    1    1    2    0    0 -0.11889634284E+02  0.11991756744E+02 -0.80941475471E+01  0.18726474781E+02  0.00000000000E+00 0. -1.
         11    1    3    3    0    0  0.11545586419E+02  0.24366118615E+02  0.18174302992E+01  0.27024273446E+02  0.51100000000E-03 0. -1.
        -11    1    3    3    0    0  0.64449855095E+01 -0.11766704850E+02 -0.87142811255E+01  0.15997871016E+02  0.51100000000E-03 0.  1.
         12    1    3    3    0    0 -0.61009376451E+01 -0.24591170508E+02  0.14990998373E+02  0.29439380757E+02  0.00000000000E+00 0. -1.
</event>
<event>
 7    1  0.1829770E-013  0.7246167E+02  0.7816164E-02  0.1226708E+00
        -11   -1    0    0    0    0  0.00000000000E+00  0.00000000000E+00  0.45593999997E+02  0.45594000000E+02  0.51100000000E-03 0. -1.
         11   -1    0    0    0    0 -0.00000000000E+00 -0.00000000000E+00 -0.45593999997E+02  0.45594000000E+02  0.51100000000E-03 0.  1.
    9900012    2    1    2    0    0  0.78050514555E+01  0.51356675302E+01 -0.16229033921E+02  0.72461669575E+02  0.70000129331E+02 0.  0.
         12    1    1    2    0    0 -0.78050514555E+01 -0.51356675302E+01  0.16229033921E+02  0.18726330425E+02  0.00000000000E+00 0. -1.
         11    1    3    3    0    0 -0.64799599330E+01  0.57220946468E+00  0.12838766521E+02  0.14392749232E+02  0.51100000000E-03 0. -1.
        -11    1    3    3    0    0  0.25133951345E+00  0.24627797667E+02 -0.20764440063E+02  0.32214182604E+02  0.51100000000E-03 0.  1.
        -12    1    3    3    0    0  0.14033671875E+02 -0.20064339602E+02 -0.83033603787E+01  0.25854737738E+02  0.00000000000E+00 0.  1.
</event>
<event>
 7    1  0.1333056E-013  0.7246169E+02  0.7816164E-02  0.1226708E+00
        -11   -1    0    0    0    0  0.00000000000E+00  0.00000000000E+00  0.45593999997E+02  0.45594000000E+02  0.51100000000E-03 0.  1.
         11   -1    0    0    0    0 -0.00000000000E+00 -0.00000000000E+00 -0.45593999997E+02  0.45594000000E+02  0.51100000000E-03 0. -1.
    9900012    2    1    2    0    0  0.78240611910E+01  0.58282441928E+01  0.15984064838E+02  0.72461689829E+02  0.70000155716E+02 0.  0.
         12    1    1    2    0    0 -0.78240611910E+01 -0.58282441928E+01 -0.15984064838E+02  0.18726310171E+02  0.00000000000E+00 0. -1.
         11    1    3    3    0    0 -0.15761534386E+02  0.14082833621E+02  0.37018545629E+01  0.21458236098E+02  0.51100000000E-03 0.  1.
        -11    1    3    3    0    0  0.29288189607E+02  0.57120606704E+01  0.18024828099E+02  0.34861441678E+02  0.51100000000E-03 0. -1.
         12    1    3    3    0    0 -0.57025940301E+01 -0.13966650098E+02 -0.57426178246E+01  0.16142012053E+02  0.00000000000E+00 0. -1.
</event>
<event>
 7    1  0.1333056E-013  0.7246157E+02  0.7816164E-02  0.1226708E+00
        -11   -1    0    0    0    0  0.00000000000E+00  0.00000000000E+00  0.45593999997E+02  0.45594000000E+02  0.51100000000E-03 0.  1.
         11   -1    0    0    0    0 -0.00000000000E+00 -0.00000000000E+00 -0.45593999997E+02  0.45594000000E+02  0.51100000000E-03 0. -1.
    9900012    2    1    2    0    0  0.58836106778E+01  0.16122762689E+02  0.74912466330E+01  0.72461571418E+02  0.70000001464E+02 0.  0.
         12    1    1    2    0    0 -0.58836106778E+01 -0.16122762689E+02 -0.74912466330E+01  0.18726428582E+02  0.00000000000E+00 0. -1.
         11    1    3    3    0    0 -0.43653627076E+01  0.15904901435E+02 -0.13602386188E+02  0.21378662060E+02  0.51100000000E-03 0. -1.
        -11    1    3    3    0    0  0.21818994417E+02  0.30700871528E+01  0.29266136866E+02  0.36633327993E+02  0.51100000000E-03 0.  1.
        -12    1    3    3    0    0 -0.11570021032E+02 -0.28522258988E+01 -0.81725040449E+01  0.14449581365E+02  0.00000000000E+00 0.  1.
</event>
<event>
 7    1  0.1333056E-013  0.7246154E+02  0.7816164E-02  0.1226708E+00
        -11   -1    0    0    0    0  0.00000000000E+00  0.00000000000E+00  0.45593999997E+02  0.45594000000E+02  0.51100000000E-03 0.  1.
         11   -1    0    0    0    0 -0.00000000000E+00 -0.00000000000E+00 -0.45593999997E+02  0.45594000000E+02  0.51100000000E-03 0. -1.
    9900012    2    1    2    0    0 -0.76845211384E+01  0.20884515589E+01  0.16948942572E+02  0.72461544133E+02  0.69999965919E+02 0.  0.
         12    1    1    2    0    0  0.76845211384E+01 -0.20884515589E+01 -0.16948942572E+02  0.18726455867E+02  0.00000000000E+00 0. -1.
         11    1    3    3    0    0 -0.14283435000E+02  0.11011769354E+02 -0.66784610561E+01  0.19232197535E+02  0.51100000000E-03 0. -1.
        -11    1    3    3    0    0  0.84085703294E+01 -0.24053526493E+02  0.27516890411E+02  0.37502739232E+02  0.51100000000E-03 0.  1.
         12    1    3    3    0    0 -0.18096564679E+01  0.15130208698E+02 -0.38894867828E+01  0.15726607365E+02  0.00000000000E+00 0. -1.
</event>
<event>
 7    1  0.1333056E-013  0.7246152E+02  0.7816164E-02  0.1226708E+00
        -11   -1    0    0    0    0  0.00000000000E+00  0.00000000000E+00  0.45593999997E+02  0.45594000000E+02  0.51100000000E-03 0.  1.
         11   -1    0    0    0    0 -0.00000000000E+00 -0.00000000000E+00 -0.45593999997E+02  0.45594000000E+02  0.51100000000E-03 0. -1.
    9900012    2    1    2    0    0  0.16621020580E+02 -0.77202671973E+01  0.38497119507E+01  0.72461517874E+02  0.69999931713E+02 0.  0.
         12    1    1    2    0    0 -0.16621020580E+02  0.77202671973E+01 -0.38497119507E+01  0.18726482126E+02  0.00000000000E+00 0. -1.
         11    1    3    3    0    0  0.31973344771E+02 -0.92433457831E+00 -0.39047959909E+01  0.32224161777E+02  0.51100000000E-03 0. -1.
        -11    1    3    3    0    0 -0.22501144679E+02 -0.16056952518E+02  0.38833627569E+01  0.27914292802E+02  0.51100000000E-03 0.  1.
        -12    1    3    3    0    0  0.71488204881E+01  0.92610198993E+01  0.38711451847E+01  0.12323063296E+02  0.00000000000E+00 0.  1.
</event>
<event>
 7    1  0.1333056E-013  0.7246165E+02  0.7816164E-02  0.1226708E+00
        -11   -1    0    0    0    0  0.00000000000E+00  0.00000000000E+00  0.45593999997E+02  0.45594000000E+02  0.51100000000E-03 0.  1.
         11   -1    0    0    0    0 -0.00000000000E+00 -0.00000000000E+00 -0.45593999997E+02  0.45594000000E+02  0.51100000000E-03 0. -1.
    9900012    2    1    2    0    0  0.54648685971E+01  0.15753513349E+02  0.85227970716E+01  0.72461653812E+02  0.70000108798E+02 0.  0.
         12    1    1    2    0    0 -0.54648685971E+01 -0.15753513349E+02 -0.85227970716E+01  0.18726346188E+02  0.00000000000E+00 0. -1.
         11    1    3    3    0    0  0.12633326481E+02 -0.89602075628E+01 -0.17566384894E+02  0.23419311178E+02  0.51100000000E-03 0. -1.
        -11    1    3    3    0    0  0.63635520269E+01  0.26591117943E+02  0.13622731533E+02  0.30547686697E+02  0.51100000000E-03 0.  1.
         12    1    3    3    0    0 -0.13532009911E+02 -0.18773970312E+01  0.12466450433E+02  0.18494655937E+02  0.00000000000E+00 0. -1.
</event>
<event>
 7    1  0.1333056E-013  0.7246145E+02  0.7816164E-02  0.1226708E+00
        -11   -1    0    0    0    0  0.00000000000E+00  0.00000000000E+00  0.45593999997E+02  0.45594000000E+02  0.51100000000E-03 0.  1.
         11   -1    0    0    0    0 -0.00000000000E+00 -0.00000000000E+00 -0.45593999997E+02  0.45594000000E+02  0.51100000000E-03 0. -1.
    9900012    2    1    2    0    0  0.23542010775E+01  0.37717921773E+01  0.18191073823E+02  0.72461445437E+02  0.69999837350E+02 0.  0.
         12    1    1    2    0    0 -0.23542010775E+01 -0.37717921773E+01 -0.18191073823E+02  0.18726554563E+02  0.00000000000E+00 0. -1.
         11    1    3    3    0    0  0.53804566767E+01 -0.21287752225E+02 -0.94574019904E+01  0.23907324432E+02  0.51100000000E-03 0. -1.
        -11    1    3    3    0    0  0.12014387852E+02  0.21082674385E+02  0.18423567085E+02  0.30467236486E+02  0.51100000000E-03 0.  1.
        -12    1    3    3    0    0 -0.15040643452E+02  0.39768700166E+01  0.92249087292E+01  0.18086884520E+02  0.00000000000E+00 0.  1.
</event>
<event>
 7    1  0.1333056E-013  0.7246157E+02  0.7816164E-02  0.1226708E+00
        -11   -1    0    0    0    0  0.00000000000E+00  0.00000000000E+00  0.45593999997E+02  0.45594000000E+02  0.51100000000E-03 0.  1.
         11   -1    0    0    0    0 -0.00000000000E+00 -0.00000000000E+00 -0.45593999997E+02  0.45594000000E+02  0.51100000000E-03 0. -1.
    9900012    2    1    2    0    0 -0.42581950831E+01  0.37475902793E+01  0.17846642726E+02  0.72461566414E+02  0.69999994945E+02 0.  0.
         12    1    1    2    0    0  0.42581950831E+01 -0.37475902793E+01 -0.17846642726E+02  0.18726433586E+02  0.00000000000E+00 0. -1.
         11    1    3    3    0    0 -0.17722274784E+02  0.28116791232E+01  0.26247394931E+02  0.31794815677E+02  0.51100000000E-03 0.  1.
        -11    1    3    3    0    0  0.24381598747E+02 -0.80215777536E+01 -0.53305525022E+01  0.26214935768E+02  0.51100000000E-03 0. -1.
         12    1    3    3    0    0 -0.10917519045E+02  0.89574889097E+01 -0.30701997024E+01  0.14451814969E+02  0.00000000000E+00 0. -1.
</event>
<event>
 7    1  0.1333056E-013  0.7246164E+02  0.7816164E-02  0.1226708E+00
        -11   -1    0    0    0    0  0.00000000000E+00  0.00000000000E+00  0.45593999997E+02  0.45594000000E+02  0.51100000000E-03 0.  1.
         11   -1    0    0    0    0 -0.00000000000E+00 -0.00000000000E+00 -0.45593999997E+02  0.45594000000E+02  0.51100000000E-03 0. -1.
    9900012    2    1    2    0    0 -0.15597798593E+02 -0.25653008123E+01 -0.10040149620E+02  0.72461636402E+02  0.70000086118E+02 0.  0.
         12    1    1    2    0    0  0.15597798593E+02  0.25653008123E+01  0.10040149620E+02  0.18726363598E+02  0.00000000000E+00 0. -1.
         11    1    3    3    0    0  0.16077853026E+02 -0.77468563655E+01 -0.42518239761E+01  0.18346366094E+02  0.51100000000E-03 0. -1.
        -11    1    3    3    0    0 -0.42308785462E+02  0.12188472316E+01 -0.30140116690E+01  0.42433514849E+02  0.51100000000E-03 0.  1.
        -12    1    3    3    0    0  0.10633133843E+02  0.39627083216E+01 -0.27743139752E+01  0.11681755459E+02  0.00000000000E+00 0.  1.
</event>
<event>
 7    1  0.1333056E-013  0.7246160E+02  0.7816164E-02  0.1226708E+00
        -11   -1    0    0    0    0  0.00000000000E+00  0.00000000000E+00  0.45593999997E+02  0.45594000000E+02  0.51100000000E-03 0.  1.
         11   -1    0    0    0    0 -0.00000000000E+00 -0.00000000000E+00 -0.45593999997E+02  0.45594000000E+02  0.51100000000E-03 0. -1.
    9900012    2    1    2    0    0 -0.71008209479E+01 -0.17285874932E+02  0.12062257382E+01  0.72461598562E+02  0.70000036824E+02 0.  0.
         12    1    1    2    0    0  0.71008209479E+01  0.17285874932E+02 -0.12062257382E+01  0.18726401438E+02  0.00000000000E+00 0. -1.
         11    1    3    3    0    0 -0.31591878648E+02 -0.90134639511E+01 -0.12830679097E+02  0.35269188469E+02  0.51100000000E-03 0. -1.
        -11    1    3    3    0    0  0.12891640086E+02 -0.15709573395E+02  0.10901083300E+02  0.23061194630E+02  0.51100000000E-03 0.  1.
         12    1    3    3    0    0  0.11599417614E+02  0.74371624149E+01  0.31358215350E+01  0.14131215463E+02  0.00000000000E+00 0. -1.
</event>
<event>
 7    1  0.1335841E-013  0.7246156E+02  0.7816164E-02  0.1226708E+00
        -11   -1    0    0    0    0  0.00000000000E+00  0.00000000000E+00  0.45593999997E+02  0.45594000000E+02  0.51100000000E-03 0. -1.
         11   -1    0    0    0    0 -0.00000000000E+00 -0.00000000000E+00 -0.45593999997E+02  0.45594000000E+02  0.51100000000E-03 0.  1.
    9900012    2    1    2    0    0  0.93363629383E+01  0.99489843615E+01 -0.12826903623E+02  0.72461563626E+02  0.69999991313E+02 0.  0.
         12    1    1    2    0    0 -0.93363629383E+01 -0.99489843615E+01  0.12826903623E+02  0.18726436374E+02  0.00000000000E+00 0. -1.
         11    1    3    3    0    0  0.11091619992E+02  0.13334652226E+02  0.17736051020E+02  0.24807347502E+02  0.51100000000E-03 0. -1.
        -11    1    3    3    0    0  0.99222077245E+01  0.14322047372E+01 -0.33259315128E+02  0.34737349634E+02  0.51100000000E-03 0.  1.
         12    1    3    3    0    0 -0.11677464778E+02 -0.48178726016E+01  0.26963604851E+01  0.12916866490E+02  0.00000000000E+00 0. -1.
</event>
<event>
 7    1  0.1333056E-013  0.7246158E+02  0.7816164E-02  0.1226708E+00
        -11   -1    0    0    0    0  0.00000000000E+00  0.00000000000E+00  0.45593999997E+02  0.45594000000E+02  0.51100000000E-03 0. -1.
         11   -1    0    0    0    0 -0.00000000000E+00 -0.00000000000E+00 -0.45593999997E+02  0.45594000000E+02  0.51100000000E-03 0.  1.
    9900012    2    1    2    0    0  0.13856365485E+02  0.70579468779E+01 -0.10433859806E+02  0.72461577249E+02  0.70000009060E+02 0.  0.
         12    1    1    2    0    0 -0.13856365485E+02 -0.70579468779E+01  0.10433859806E+02  0.18726422751E+02  0.00000000000E+00 0. -1.
         11    1    3    3    0    0 -0.65936363244E+01  0.15378623866E+02  0.20463913637E+02  0.26433877385E+02  0.51100000000E-03 0. -1.
        -11    1    3    3    0    0 -0.63353380024E+00 -0.12504964956E+02 -0.96992094741E+01  0.15838250481E+02  0.51100000000E-03 0.  1.
         12    1    3    3    0    0  0.21083535610E+02  0.41842879678E+01 -0.21198563970E+02  0.30189449382E+02  0.00000000000E+00 0. -1.
</event>
<event>
 7    1  0.1333056E-013  0.7246159E+02  0.7816164E-02  0.1226708E+00
        -11   -1    0    0    0    0  0.00000000000E+00  0.00000000000E+00  0.45593999997E+02  0.45594000000E+02  0.51100000000E-03 0. -1.
         11   -1    0    0    0    0 -0.00000000000E+00 -0.00000000000E+00 -0.45593999997E+02  0.45594000000E+02  0.51100000000E-03 0.  1.
    9900012    2    1    2    0    0 -0.15507810329E+02 -0.91132083235E+01  0.52092020382E+01  0.72461587289E+02  0.70000022138E+02 0.  0.
         12    1    1    2    0    0  0.15507810329E+02  0.91132083235E+01 -0.52092020382E+01  0.18726412711E+02  0.00000000000E+00 0. -1.
         11    1    3    3    0    0  0.23222441760E+01 -0.17521937644E+02  0.13220254572E+02  0.22072295939E+02  0.51100000000E-03 0. -1.
        -11    1    3    3    0    0 -0.32226089799E+02  0.11809612251E+02 -0.18694487666E+01  0.34372702021E+02  0.51100000000E-03 0.  1.
        -12    1    3    3    0    0  0.14396035294E+02 -0.34008829301E+01 -0.61416037671E+01  0.16016589329E+02  0.00000000000E+00 0.  1.
</event>
<event>
 7    1  0.1333056E-013  0.7246160E+02  0.7816164E-02  0.1226708E+00
        -11   -1    0    0    0    0  0.00000000000E+00  0.00000000000E+00  0.45593999997E+02  0.45594000000E+02  0.51100000000E-03 0. -1.
         11   -1    0    0    0    0 -0.00000000000E+00 -0.00000000000E+00 -0.45593999997E+02  0.45594000000E+02  0.51100000000E-03 0.  1.
    9900012    2    1    2    0    0  0.28344278426E+00 -0.69950615146E+01 -0.17368555438E+02  0.72461603032E+02  0.70000042647E+02 0.  0.
         12    1    1    2    0    0 -0.28344278426E+00  0.69950615146E+01  0.17368555438E+02  0.18726396968E+02  0.00000000000E+00 0. -1.
         11    1    3    3    0    0  0.17441857198E+02  0.12323097003E+01  0.21084575693E+02  0.27391537053E+02  0.51100000000E-03 0. -1.
        -11    1    3    3    0    0 -0.37657993314E+01 -0.93394540956E+01 -0.16532553410E+02  0.19357994987E+02  0.51100000000E-03 0.  1.
         12    1    3    3    0    0 -0.13392615083E+02  0.11120828806E+01 -0.21920577721E+02  0.25712070992E+02  0.00000000000E+00 0. -1.
</event>
<event>
 7    1  0.1386052E-013  0.7246146E+02  0.7816164E-02  0.1226708E+00
        -11   -1    0    0    0    0  0.00000000000E+00  0.00000000000E+00  0.45593999997E+02  0.45594000000E+02  0.51100000000E-03 0. -1.
         11   -1    0    0    0    0 -0.00000000000E+00 -0.00000000000E+00 -0.45593999997E+02  0.45594000000E+02  0.51100000000E-03 0.  1.
    9900012    2    1    2    0    0 -0.16533872778E+02 -0.81656916616E+01 -0.32612897325E+01  0.72461455202E+02  0.69999850071E+02 0.  0.
         12    1    1    2    0    0  0.16533872778E+02  0.81656916616E+01  0.32612897325E+01  0.18726544798E+02  0.00000000000E+00 0. -1.
         11    1    3    3    0    0  0.16561813524E+02  0.52773230364E+01 -0.99076403380E+01  0.20007627120E+02  0.51100000000E-03 0. -1.
        -11    1    3    3    0    0 -0.22272384064E+02  0.51951587034E+01  0.17045224373E+02  0.28523471739E+02  0.51100000000E-03 0.  1.
        -12    1    3    3    0    0 -0.10823302238E+02 -0.18638173401E+02 -0.10398873768E+02  0.23930356343E+02  0.00000000000E+00 0.  1.
</event>
<event>
 7    1  0.1333056E-013  0.7246153E+02  0.7816164E-02  0.1226708E+00
        -11   -1    0    0    0    0  0.00000000000E+00  0.00000000000E+00  0.45593999997E+02  0.45594000000E+02  0.51100000000E-03 0. -1.
         11   -1    0    0    0    0 -0.00000000000E+00 -0.00000000000E+00 -0.45593999997E+02  0.45594000000E+02  0.51100000000E-03 0.  1.
    9900012    2    1    2    0    0  0.91276054617E+00 -0.18121338890E+02 -0.46330076154E+01  0.72461526372E+02  0.69999942783E+02 0.  0.
         12    1    1    2    0    0 -0.91276054617E+00  0.18121338890E+02  0.46330076154E+01  0.18726473628E+02  0.00000000000E+00 0. -1.
         11    1    3    3    0    0  0.14955525304E+02 -0.41352156277E+01  0.18709316978E+02  0.24306507101E+02  0.51100000000E-03 0. -1.
        -11    1    3    3    0    0 -0.26116467308E+01 -0.25652906150E+02 -0.14196365504E+02  0.29435167510E+02  0.51100000000E-03 0.  1.
         12    1    3    3    0    0 -0.11431118027E+02  0.11666782888E+02 -0.91459590899E+01  0.18719851761E+02  0.00000000000E+00 0. -1.
</event>
<event>
 7    1  0.1333056E-013  0.7246155E+02  0.7816164E-02  0.1226708E+00
        -11   -1    0    0    0    0  0.00000000000E+00  0.00000000000E+00  0.45593999997E+02  0.45594000000E+02  0.51100000000E-03 0. -1.
         11   -1    0    0    0    0 -0.00000000000E+00 -0.00000000000E+00 -0.45593999997E+02  0.45594000000E+02  0.51100000000E-03 0.  1.
    9900012    2    1    2    0    0  0.14656180867E+02  0.32869518925E+01 -0.11183563116E+02  0.72461554146E+02  0.69999978964E+02 0.  0.
         12    1    1    2    0    0 -0.14656180867E+02 -0.32869518925E+01  0.11183563116E+02  0.18726445854E+02  0.00000000000E+00 0. -1.
         11    1    3    3    0    0  0.19561665697E+02  0.11498687447E+02  0.14497006095E+02  0.26926599559E+02  0.51100000000E-03 0. -1.
        -11    1    3    3    0    0 -0.19280804480E+02  0.32928807130E+00 -0.20228677764E+02  0.27947401603E+02  0.51100000000E-03 0.  1.
        -12    1    3    3    0    0  0.14375319650E+02 -0.85410236259E+01 -0.54518914469E+01  0.17587552984E+02  0.00000000000E+00 0.  1.
</event>
<event>
 7    1  0.1333056E-013  0.7246163E+02  0.7816164E-02  0.1226708E+00
        -11   -1    0    0    0    0  0.00000000000E+00  0.00000000000E+00  0.45593999997E+02  0.45594000000E+02  0.51100000000E-03 0.  1.
         11   -1    0    0    0    0 -0.00000000000E+00 -0.00000000000E+00 -0.45593999997E+02  0.45594000000E+02  0.51100000000E-03 0. -1.
    9900012    2    1    2    0    0  0.23609585694E+01  0.20172902803E+01  0.18467083329E+02  0.72461634839E+02  0.70000084082E+02 0.  0.
         12    1    1    2    0    0 -0.23609585694E+01 -0.20172902803E+01 -0.18467083329E+02  0.18726365161E+02  0.00000000000E+00 0. -1.
         11    1    3    3    0    0 -0.14966847891E+01  0.14328733020E+02 -0.16706024688E+02  0.22060007172E+02  0.51100000000E-03 0. -1.
        -11    1    3    3    0    0  0.15340476479E+02  0.38431627809E+01  0.11652964570E+02  0.19644126407E+02  0.51100000000E-03 0.  1.
         12    1    3    3    0    0 -0.11482833121E+02 -0.16154605521E+02  0.23520143447E+02  0.30757501260E+02  0.00000000000E+00 0. -1.
</event>
<event>
 8    1  0.1333056E-013  0.7246159E+02  0.7816164E-02  0.1226708E+00
        -11   -1    0    0    0    0  0.00000000000E+00  0.00000000000E+00  0.45593999997E+02  0.45594000000E+02  0.51100000000E-03 0.  1.
         11   -1    0    0    0    0 -0.00000000000E+00 -0.00000000000E+00 -0.45593999997E+02  0.45594000000E+02  0.51100000000E-03 0. -1.
    9900012    2    1    2    0    0 -0.96891593811E+01 -0.12984288960E+02 -0.93918584208E+01  0.72461586198E+02  0.70000020717E+02 0.  0.
        -24    2    3    3    0    0 -0.14358279899E+01  0.69460957026E+01 -0.11812091421E+02  0.50754554160E+02  0.48848637819E+02 0.  0.
         12    1    1    2    0    0  0.96891593811E+01  0.12984288960E+02  0.93918584208E+01  0.18726413802E+02  0.00000000000E+00 0. -1.
         11    1    4    4    0    0  0.22760567400E+02  0.19724460935E+01 -0.12501437146E+02  0.26042655451E+02  0.51100000000E-03 0. -1.
        -11    1    3    3    0    0 -0.82533313912E+01 -0.19930384662E+02  0.24202330000E+01  0.21707032038E+02  0.51100000000E-03 0.  1.
        -12    1    4    4    0    0 -0.24196395390E+02  0.49736496091E+01  0.68934572491E+00  0.24711898709E+02  0.00000000000E+00 0.  1.
</event>
<event>
 7    1  0.1333056E-013  0.7246157E+02  0.7816164E-02  0.1226708E+00
        -11   -1    0    0    0    0  0.00000000000E+00  0.00000000000E+00  0.45593999997E+02  0.45594000000E+02  0.51100000000E-03 0.  1.
         11   -1    0    0    0    0 -0.00000000000E+00 -0.00000000000E+00 -0.45593999997E+02  0.45594000000E+02  0.51100000000E-03 0. -1.
    9900012    2    1    2    0    0 -0.12269249223E+02 -0.66326145438E+01  0.12496129199E+02  0.72461566886E+02  0.69999995561E+02 0.  0.
         12    1    1    2    0    0  0.12269249223E+02  0.66326145438E+01 -0.12496129199E+02  0.18726433114E+02  0.00000000000E+00 0. -1.
         11    1    3    3    0    0 -0.69805447188E+01  0.10692063668E+02 -0.14789757859E+02  0.19539323628E+02  0.51100000000E-03 0. -1.
        -11    1    3    3    0    0 -0.10119979900E+02 -0.95474996921E+01  0.37026517139E+02  0.39554161794E+02  0.51100000000E-03 0.  1.
        -12    1    3    3    0    0  0.48312753953E+01 -0.77771785196E+01 -0.97406300808E+01  0.13368081465E+02  0.00000000000E+00 0.  1.
</event>
<event>
 7    1  0.1333056E-013  0.7246157E+02  0.7816164E-02  0.1226708E+00
        -11   -1    0    0    0    0  0.00000000000E+00  0.00000000000E+00  0.45593999997E+02  0.45594000000E+02  0.51100000000E-03 0.  1.
         11   -1    0    0    0    0 -0.00000000000E+00 -0.00000000000E+00 -0.45593999997E+02  0.45594000000E+02  0.51100000000E-03 0. -1.
    9900012    2    1    2    0    0 -0.53126030023E+01 -0.79014124780E+01  0.16125234341E+02  0.72461568082E+02  0.69999997119E+02 0.  0.
         12    1    1    2    0    0  0.53126030023E+01  0.79014124780E+01 -0.16125234341E+02  0.18726431918E+02  0.00000000000E+00 0. -1.
         11    1    3    3    0    0  0.27302260865E+02  0.16693669718E+01 -0.68602657847E+01  0.28200416333E+02  0.51100000000E-03 0. -1.
        -11    1    3    3    0    0 -0.18515210435E+02 -0.92328560075E+01  0.47850425421E+01  0.21235707662E+02  0.51100000000E-03 0.  1.
         12    1    3    3    0    0 -0.14099653433E+02 -0.33792344224E+00  0.18200457584E+02  0.23025444088E+02  0.00000000000E+00 0. -1.
</event>
<event>
 7    1  0.1333056E-013  0.7246156E+02  0.7816164E-02  0.1226708E+00
        -11   -1    0    0    0    0  0.00000000000E+00  0.00000000000E+00  0.45593999997E+02  0.45594000000E+02  0.51100000000E-03 0.  1.
         11   -1    0    0    0    0 -0.00000000000E+00 -0.00000000000E+00 -0.45593999997E+02  0.45594000000E+02  0.51100000000E-03 0. -1.
    9900012    2    1    2    0    0 -0.22385059851E+01 -0.17645367396E+02  0.58574519111E+01  0.72461557666E+02  0.69999983549E+02 0.  0.
         12    1    1    2    0    0  0.22385059851E+01  0.17645367396E+02 -0.58574519111E+01  0.18726442334E+02  0.00000000000E+00 0. -1.
         11    1    3    3    0    0 -0.21772251070E+02 -0.24663596224E+02  0.20973567359E+02  0.39015566424E+02  0.51100000000E-03 0. -1.
        -11    1    3    3    0    0  0.16934369131E+02  0.13074858070E+02 -0.60428050525E+01  0.22231515121E+02  0.51100000000E-03 0.  1.
         12    1    3    3    0    0  0.25993759544E+01 -0.60566292424E+01 -0.90733103957E+01  0.11214476121E+02  0.00000000000E+00 0. -1.
</event>
<event>
 7    1  0.1333056E-013  0.7246157E+02  0.7816164E-02  0.1226708E+00
        -11   -1    0    0    0    0  0.00000000000E+00  0.00000000000E+00  0.45593999997E+02  0.45594000000E+02  0.51100000000E-03 0. -1.
         11   -1    0    0    0    0 -0.00000000000E+00 -0.00000000000E+00 -0.45593999997E+02  0.45594000000E+02  0.51100000000E-03 0.  1.
    9900012    2    1    2    0    0  0.11071257519E+01  0.14461994671E+02 -0.11845000356E+02  0.72461573466E+02  0.70000004132E+02 0.  0.
         12    1    1    2    0    0 -0.11071257519E+01 -0.14461994671E+02  0.11845000356E+02  0.18726426534E+02  0.00000000000E+00 0. -1.
         11    1    3    3    0    0 -0.52921669026E+01 -0.33097290775E+01 -0.31951593694E+02  0.32555578276E+02  0.51100000000E-03 0. -1.
        -11    1    3    3    0    0  0.17260548565E+02  0.79154786783E+01  0.15562637000E+02  0.24551517471E+02  0.51100000000E-03 0.  1.
         12    1    3    3    0    0 -0.10861255910E+02  0.98562450702E+01  0.45439563382E+01  0.15354477719E+02  0.00000000000E+00 0. -1.
</event>
<event>
 7    1  0.1333056E-013  0.7246159E+02  0.7816164E-02  0.1226708E+00
        -11   -1    0    0    0    0  0.00000000000E+00  0.00000000000E+00  0.45593999997E+02  0.45594000000E+02  0.51100000000E-03 0.  1.
         11   -1    0    0    0    0 -0.00000000000E+00 -0.00000000000E+00 -0.45593999997E+02  0.45594000000E+02  0.51100000000E-03 0. -1.
    9900012    2    1    2    0    0 -0.13544558708E+02 -0.12663825481E+02  0.26174000864E+01  0.72461592720E+02  0.70000029213E+02 0.  0.
         12    1    1    2    0    0  0.13544558708E+02  0.12663825481E+02 -0.26174000864E+01  0.18726407280E+02  0.00000000000E+00 0. -1.
         11    1    3    3    0    0 -0.94548403285E+01  0.12253189404E+02 -0.19405466977E+02  0.24821498848E+02  0.51100000000E-03 0. -1.
        -11    1    3    3    0    0 -0.18611893394E+02 -0.17998731504E+02  0.16152208758E+02  0.30516401483E+02  0.51100000000E-03 0.  1.
         12    1    3    3    0    0  0.14522175014E+02 -0.69182833814E+01  0.58706583047E+01  0.17123692388E+02  0.00000000000E+00 0. -1.
</event>
<event>
 7    1  0.1333056E-013  0.7246143E+02  0.7816164E-02  0.1226708E+00
        -11   -1    0    0    0    0  0.00000000000E+00  0.00000000000E+00  0.45593999997E+02  0.45594000000E+02  0.51100000000E-03 0.  1.
         11   -1    0    0    0    0 -0.00000000000E+00 -0.00000000000E+00 -0.45593999997E+02  0.45594000000E+02  0.51100000000E-03 0. -1.
    9900012    2    1    2    0    0 -0.16692887484E+02  0.35174253090E+01  0.77239661160E+01  0.72461429948E+02  0.69999817173E+02 0.  0.
         12    1    1    2    0    0  0.16692887484E+02 -0.35174253090E+01 -0.77239661160E+01  0.18726570052E+02  0.00000000000E+00 0. -1.
         11    1    3    3    0    0  0.11229004425E+02 -0.72128035830E+01 -0.48523553148E+01  0.14200719287E+02  0.51100000000E-03 0. -1.
        -11    1    3    3    0    0 -0.17359545348E+02 -0.11233225150E+02  0.23716174453E+02  0.31464203358E+02  0.51100000000E-03 0.  1.
        -12    1    3    3    0    0 -0.10562346561E+02  0.21963454041E+02 -0.11139853023E+02  0.26796507303E+02  0.00000000000E+00 0.  1.
</event>
<event>
 7    1  0.1333056E-013  0.7246158E+02  0.7816164E-02  0.1226708E+00
        -11   -1    0    0    0    0  0.00000000000E+00  0.00000000000E+00  0.45593999997E+02  0.45594000000E+02  0.51100000000E-03 0. -1.
         11   -1    0    0    0    0 -0.00000000000E+00 -0.00000000000E+00 -0.45593999997E+02  0.45594000000E+02  0.51100000000E-03 0.  1.
    9900012    2    1    2    0    0 -0.17937337047E+02 -0.49488980995E+01 -0.21069295853E+01  0.72461580027E+02  0.70000012678E+02 0.  0.
         12    1    1    2    0    0  0.17937337047E+02  0.49488980995E+01  0.21069295853E+01  0.18726419973E+02  0.00000000000E+00 0. -1.
         11    1    3    3    0    0  0.15055735158E+02  0.24919919552E+01  0.74951177011E+01  0.17001822686E+02  0.51100000000E-03 0. -1.
        -11    1    3    3    0    0 -0.79413496374E+01 -0.21172173323E+02 -0.13940160227E+02  0.26564149237E+02  0.51100000000E-03 0.  1.
        -12    1    3    3    0    0 -0.25051722567E+02  0.13731283269E+02  0.43381129403E+01  0.28895608103E+02  0.00000000000E+00 0.  1.
</event>
<event>
 7    1  0.1333056E-013  0.7246159E+02  0.7816164E-02  0.1226708E+00
        -11   -1    0    0    0    0  0.00000000000E+00  0.00000000000E+00  0.45593999997E+02  0.45594000000E+02  0.51100000000E-03 0.  1.
         11   -1    0    0    0    0 -0.00000000000E+00 -0.00000000000E+00 -0.45593999997E+02  0.45594000000E+02  0.51100000000E-03 0. -1.
    9900012    2    1    2    0    0  0.82430681680E+01  0.32156949132E+01  0.16504224053E+02  0.72461594093E+02  0.70000031002E+02 0.  0.
         12    1    1    2    0    0 -0.82430681680E+01 -0.32156949132E+01 -0.16504224053E+02  0.18726405907E+02  0.00000000000E+00 0. -1.
         11    1    3    3    0    0  0.11144149736E+02  0.11514828936E+02 -0.14762768646E+02  0.21788132025E+02  0.51100000000E-03 0. -1.
        -11    1    3    3    0    0 -0.18379157849E+02 -0.13782509439E+02  0.14291015562E+02  0.27055205335E+02  0.51100000000E-03 0.  1.
        -12    1    3    3    0    0  0.15478076282E+02  0.54833754155E+01  0.16975977137E+02  0.23618256733E+02  0.00000000000E+00 0.  1.
</event>
<event>
 7    1  0.1333056E-013  0.7246157E+02  0.7816164E-02  0.1226708E+00
        -11   -1    0    0    0    0  0.00000000000E+00  0.00000000000E+00  0.45593999997E+02  0.45594000000E+02  0.51100000000E-03 0. -1.
         11   -1    0    0    0    0 -0.00000000000E+00 -0.00000000000E+00 -0.45593999997E+02  0.45594000000E+02  0.51100000000E-03 0.  1.
    9900012    2    1    2    0    0  0.67910813744E+01  0.14190597219E+02 -0.10158109316E+02  0.72461574272E+02  0.70000005182E+02 0.  0.
         12    1    1    2    0    0 -0.67910813744E+01 -0.14190597219E+02  0.10158109316E+02  0.18726425728E+02  0.00000000000E+00 0. -1.
         11    1    3    3    0    0  0.19509652065E+02 -0.18015764271E+02  0.45920885238E+01  0.26949611560E+02  0.51100000000E-03 0. -1.
        -11    1    3    3    0    0  0.43261159596E+01  0.86437564565E+01 -0.13238205142E+02  0.16391457551E+02  0.51100000000E-03 0.  1.
         12    1    3    3    0    0 -0.17044686650E+02  0.23562605033E+02 -0.15119926972E+01  0.29120505162E+02  0.00000000000E+00 0. -1.
</event>
<event>
 7    1  0.1333056E-013  0.7246159E+02  0.7816164E-02  0.1226708E+00
        -11   -1    0    0    0    0  0.00000000000E+00  0.00000000000E+00  0.45593999997E+02  0.45594000000E+02  0.51100000000E-03 0. -1.
         11   -1    0    0    0    0 -0.00000000000E+00 -0.00000000000E+00 -0.45593999997E+02  0.45594000000E+02  0.51100000000E-03 0.  1.
    9900012    2    1    2    0    0  0.14139339919E+02  0.11644633649E+02 -0.38935772505E+01  0.72461591642E+02  0.70000027810E+02 0.  0.
         12    1    1    2    0    0 -0.14139339919E+02 -0.11644633649E+02  0.38935772505E+01  0.18726408358E+02  0.00000000000E+00 0. -1.
         11    1    3    3    0    0  0.34238245013E+02  0.19094971511E+02 -0.21554869761E+01  0.39262214442E+02  0.51100000000E-03 0. -1.
        -11    1    3    3    0    0  0.16712705957E+01 -0.47082986790E+01 -0.88250123513E+01  0.10141107687E+02  0.51100000000E-03 0.  1.
         12    1    3    3    0    0 -0.21770175689E+02 -0.27420391830E+01  0.70869220770E+01  0.23058269513E+02  0.00000000000E+00 0. -1.
</event>
<event>
 7    1  0.1333056E-013  0.7246164E+02  0.7816164E-02  0.1226708E+00
        -11   -1    0    0    0    0  0.00000000000E+00  0.00000000000E+00  0.45593999997E+02  0.45594000000E+02  0.51100000000E-03 0.  1.
         11   -1    0    0    0    0 -0.00000000000E+00 -0.00000000000E+00 -0.45593999997E+02  0.45594000000E+02  0.51100000000E-03 0. -1.
    9900012    2    1    2    0    0 -0.56781590049E+01  0.12909789609E+02  0.12319592209E+02  0.72461641314E+02  0.70000092516E+02 0.  0.
         12    1    1    2    0    0  0.56781590049E+01 -0.12909789609E+02 -0.12319592209E+02  0.18726358686E+02  0.00000000000E+00 0. -1.
         11    1    3    3    0    0  0.26272174341E+02  0.16950738836E+02  0.20800842085E+02  0.37553025489E+02  0.51100000000E-03 0. -1.
        -11    1    3    3    0    0 -0.16437837058E+02 -0.72840299826E+01 -0.37113439316E+01  0.18358476352E+02  0.51100000000E-03 0.  1.
         12    1    3    3    0    0 -0.15512496287E+02  0.32430807559E+01 -0.47699059444E+01  0.16550139473E+02  0.00000000000E+00 0. -1.
</event>
<event>
 7    1  0.1333056E-013  0.7246157E+02  0.7816164E-02  0.1226708E+00
        -11   -1    0    0    0    0  0.00000000000E+00  0.00000000000E+00  0.45593999997E+02  0.45594000000E+02  0.51100000000E-03 0. -1.
         11   -1    0    0    0    0 -0.00000000000E+00 -0.00000000000E+00 -0.45593999997E+02  0.45594000000E+02  0.51100000000E-03 0.  1.
    9900012    2    1    2    0    0  0.78640196063E+01 -0.14641405882E+02  0.86293508681E+01  0.72461567692E+02  0.69999996610E+02 0.  0.
         12    1    1    2    0    0 -0.78640196063E+01  0.14641405882E+02 -0.86293508681E+01  0.18726432308E+02  0.00000000000E+00 0. -1.
         11    1    3    3    0    0 -0.11376334528E+02  0.76717089841E+01  0.45592290476E+01  0.14458999820E+02  0.51100000000E-03 0. -1.
        -11    1    3    3    0    0  0.25527885675E+02 -0.44901436511E+00 -0.13846111017E+02  0.29044609680E+02  0.51100000000E-03 0.  1.
        -12    1    3    3    0    0 -0.62875315408E+01 -0.21864100501E+02  0.17916232837E+02  0.28957958192E+02  0.00000000000E+00 0.  1.
</event>
<event>
 7    1  0.1333056E-013  0.7246157E+02  0.7816164E-02  0.1226708E+00
        -11   -1    0    0    0    0  0.00000000000E+00  0.00000000000E+00  0.45593999997E+02  0.45594000000E+02  0.51100000000E-03 0.  1.
         11   -1    0    0    0    0 -0.00000000000E+00 -0.00000000000E+00 -0.45593999997E+02  0.45594000000E+02  0.51100000000E-03 0. -1.
    9900012    2    1    2    0    0 -0.57967197033E+01  0.13721537789E+02  0.11348852565E+02  0.72461574470E+02  0.70000005439E+02 0.  0.
         12    1    1    2    0    0  0.57967197033E+01 -0.13721537789E+02 -0.11348852565E+02  0.18726425530E+02  0.00000000000E+00 0. -1.
         11    1    3    3    0    0  0.60909773864E+01 -0.10266146985E+02  0.98065090206E+00  0.11977289171E+02  0.51100000000E-03 0. -1.
        -11    1    3    3    0    0  0.13469845436E+01  0.38952777483E+02  0.26452420943E+01  0.39065720869E+02  0.51100000000E-03 0.  1.
        -12    1    3    3    0    0 -0.13234681633E+02 -0.14965092710E+02  0.77229595683E+01  0.21418564430E+02  0.00000000000E+00 0.  1.
</event>
<event>
 7    1  0.1333056E-013  0.7246151E+02  0.7816164E-02  0.1226708E+00
        -11   -1    0    0    0    0  0.00000000000E+00  0.00000000000E+00  0.45593999997E+02  0.45594000000E+02  0.51100000000E-03 0.  1.
         11   -1    0    0    0    0 -0.00000000000E+00 -0.00000000000E+00 -0.45593999997E+02  0.45594000000E+02  0.51100000000E-03 0. -1.
    9900012    2    1    2    0    0 -0.91171535234E+01 -0.66154132034E+01  0.14959782337E+02  0.72461514270E+02  0.69999927018E+02 0.  0.
         12    1    1    2    0    0  0.91171535234E+01  0.66154132034E+01 -0.14959782337E+02  0.18726485730E+02  0.00000000000E+00 0. -1.
         11    1    3    3    0    0 -0.73078130557E+01 -0.11928366206E+02 -0.88565875899E+01  0.16556847405E+02  0.51100000000E-03 0. -1.
        -11    1    3    3    0    0 -0.10375752972E+02 -0.13908408587E+02  0.29394457424E+02  0.34134062265E+02  0.51100000000E-03 0.  1.
        -12    1    3    3    0    0  0.85664125047E+01  0.19221361589E+02 -0.55780874979E+01  0.21770604600E+02  0.00000000000E+00 0.  1.
</event>
<event>
 7    1  0.1333056E-013  0.7246166E+02  0.7816164E-02  0.1226708E+00
        -11   -1    0    0    0    0  0.00000000000E+00  0.00000000000E+00  0.45593999997E+02  0.45594000000E+02  0.51100000000E-03 0. -1.
         11   -1    0    0    0    0 -0.00000000000E+00 -0.00000000000E+00 -0.45593999997E+02  0.45594000000E+02  0.51100000000E-03 0.  1.
    9900012    2    1    2    0    0  0.18495954792E+01 -0.34995118957E+01 -0.18303229816E+02  0.72461660031E+02  0.70000116899E+02 0.  0.
         12    1    1    2    0    0 -0.18495954792E+01  0.34995118957E+01  0.18303229816E+02  0.18726339969E+02  0.00000000000E+00 0. -1.
         11    1    3    3    0    0  0.17972373159E+02  0.10870757464E+02 -0.29505427408E+01  0.21210498993E+02  0.51100000000E-03 0. -1.
        -11    1    3    3    0    0 -0.17170678504E+02  0.11783209549E+02  0.15918333316E+00  0.20825502807E+02  0.51100000000E-03 0.  1.
        -12    1    3    3    0    0  0.10479008248E+01 -0.26153478910E+02 -0.15511870408E+02  0.30425658231E+02  0.00000000000E+00 0.  1.
</event>
<event>
 7    1  0.1333056E-013  0.7246155E+02  0.7816164E-02  0.1226708E+00
        -11   -1    0    0    0    0  0.00000000000E+00  0.00000000000E+00  0.45593999997E+02  0.45594000000E+02  0.51100000000E-03 0. -1.
         11   -1    0    0    0    0 -0.00000000000E+00 -0.00000000000E+00 -0.45593999997E+02  0.45594000000E+02  0.51100000000E-03 0.  1.
    9900012    2    1    2    0    0  0.35081837965E+01  0.13043690455E+01 -0.18348606366E+02  0.72461545778E+02  0.69999968063E+02 0.  0.
         12    1    1    2    0    0 -0.35081837965E+01 -0.13043690455E+01  0.18348606366E+02  0.18726454222E+02  0.00000000000E+00 0. -1.
         11    1    3    3    0    0  0.27737775812E+02  0.80357049001E+01  0.43626905168E+01  0.29205989609E+02  0.51100000000E-03 0. -1.
        -11    1    3    3    0    0 -0.70731963879E+01 -0.15845278618E+02 -0.97839607163E+01  0.19920563476E+02  0.51100000000E-03 0.  1.
         12    1    3    3    0    0 -0.17156395628E+02  0.91139427634E+01 -0.12927336167E+02  0.23334992693E+02  0.00000000000E+00 0. -1.
</event>
<event>
 7    1  0.1333056E-013  0.7246160E+02  0.7816164E-02  0.1226708E+00
        -11   -1    0    0    0    0  0.00000000000E+00  0.00000000000E+00  0.45593999997E+02  0.45594000000E+02  0.51100000000E-03 0. -1.
         11   -1    0    0    0    0 -0.00000000000E+00 -0.00000000000E+00 -0.45593999997E+02  0.45594000000E+02  0.51100000000E-03 0.  1.
    9900012    2    1    2    0    0 -0.94883873259E+00 -0.18697650923E+02 -0.41906563339E+00  0.72461599893E+02  0.70000038558E+02 0.  0.
         12    1    1    2    0    0  0.94883873259E+00  0.18697650923E+02  0.41906563339E+00  0.18726400107E+02  0.00000000000E+00 0. -1.
         11    1    3    3    0    0  0.16572997987E+01 -0.14323576259E+02  0.30938448600E+02  0.34133547743E+02  0.51100000000E-03 0. -1.
        -11    1    3    3    0    0 -0.50491486217E+01  0.74323248018E+01 -0.19238575891E+02  0.21233373644E+02  0.51100000000E-03 0.  1.
        -12    1    3    3    0    0  0.24430100904E+01 -0.11806399465E+02 -0.12118938343E+02  0.17094678505E+02  0.00000000000E+00 0.  1.
</event>
<event>
 7    1  0.1333056E-013  0.7246184E+02  0.7816164E-02  0.1226707E+00
        -11   -1    0    0    0    0  0.00000000000E+00  0.00000000000E+00  0.45593999997E+02  0.45594000000E+02  0.51100000000E-03 0.  1.
         11   -1    0    0    0    0 -0.00000000000E+00 -0.00000000000E+00 -0.45593999997E+02  0.45594000000E+02  0.51100000000E-03 0. -1.
    9900012    2    1    2    0    0  0.29390364010E+01  0.13101553445E+02 -0.13052986312E+02  0.72461839440E+02  0.70000350612E+02 0.  0.
         12    1    1    2    0    0 -0.29390364010E+01 -0.13101553445E+02  0.13052986312E+02  0.18726160560E+02  0.00000000000E+00 0. -1.
         11    1    3    3    0    0 -0.18147465658E+02  0.14335113443E+02  0.10710730844E+02  0.25486187292E+02  0.51100000000E-03 0.  1.
        -11    1    3    3    0    0  0.23074796961E+02  0.18827563382E+01 -0.31093830430E+02  0.38766187809E+02  0.51100000000E-03 0. -1.
         12    1    3    3    0    0 -0.19882949018E+01 -0.31163163360E+01  0.73301132741E+01  0.82094643390E+01  0.00000000000E+00 0. -1.
</event>
<event>
 7    1  0.1524340E-013  0.7246173E+02  0.7816164E-02  0.1226708E+00
        -11   -1    0    0    0    0  0.00000000000E+00  0.00000000000E+00  0.45593999997E+02  0.45594000000E+02  0.51100000000E-03 0. -1.
         11   -1    0    0    0    0 -0.00000000000E+00 -0.00000000000E+00 -0.45593999997E+02  0.45594000000E+02  0.51100000000E-03 0.  1.
    9900012    2    1    2    0    0  0.96997770971E+01  0.40444225284E+01 -0.15499357430E+02  0.72461732084E+02  0.70000210761E+02 0.  0.
         12    1    1    2    0    0 -0.96997770971E+01 -0.40444225284E+01  0.15499357430E+02  0.18726267916E+02  0.00000000000E+00 0. -1.
         11    1    3    3    0    0 -0.12658685904E+02  0.34823741193E-01 -0.14571085043E+01  0.12742319529E+02  0.51100000000E-03 0. -1.
        -11    1    3    3    0    0  0.21890055065E+02 -0.25062354050E+01 -0.32993400296E+02  0.39673923300E+02  0.51100000000E-03 0.  1.
        -12    1    3    3    0    0  0.46840793618E+00  0.65158341921E+01  0.18951151370E+02  0.20045489255E+02  0.00000000000E+00 0.  1.
</event>
<event>
 7    1  0.1333056E-013  0.7246160E+02  0.7816164E-02  0.1226708E+00
        -11   -1    0    0    0    0  0.00000000000E+00  0.00000000000E+00  0.45593999997E+02  0.45594000000E+02  0.51100000000E-03 0. -1.
         11   -1    0    0    0    0 -0.00000000000E+00 -0.00000000000E+00 -0.45593999997E+02  0.45594000000E+02  0.51100000000E-03 0.  1.
    9900012    2    1    2    0    0  0.12804027593E+02  0.13657918471E+02 -0.44292503137E+00  0.72461600396E+02  0.70000039213E+02 0.  0.
         12    1    1    2    0    0 -0.12804027593E+02 -0.13657918471E+02  0.44292503137E+00  0.18726399604E+02  0.00000000000E+00 0. -1.
         11    1    3    3    0    0  0.21468110861E+02  0.29209391110E+02  0.14992136762E+01  0.36281068822E+02  0.51100000000E-03 0. -1.
        -11    1    3    3    0    0 -0.18361997337E+02 -0.18406501424E+02 -0.19337851193E+01  0.26071090618E+02  0.51100000000E-03 0.  1.
        -12    1    3    3    0    0  0.96979140689E+01  0.28550287851E+01 -0.83535882424E-02  0.10109440956E+02  0.00000000000E+00 0.  1.
</event>
<event>
 7    1  0.1333056E-013  0.7246157E+02  0.7816164E-02  0.1226708E+00
        -11   -1    0    0    0    0  0.00000000000E+00  0.00000000000E+00  0.45593999997E+02  0.45594000000E+02  0.51100000000E-03 0.  1.
         11   -1    0    0    0    0 -0.00000000000E+00 -0.00000000000E+00 -0.45593999997E+02  0.45594000000E+02  0.51100000000E-03 0. -1.
    9900012    2    1    2    0    0 -0.13807538041E+02 -0.66156161662E+01  0.10782618206E+02  0.72461565759E+02  0.69999994091E+02 0.  0.
         12    1    1    2    0    0  0.13807538041E+02  0.66156161662E+01 -0.10782618206E+02  0.18726434241E+02  0.00000000000E+00 0. -1.
         11    1    3    3    0    0 -0.82571287504E+01 -0.20169605913E+02 -0.15955651738E+02  0.27010664570E+02  0.51100000000E-03 0. -1.
        -11    1    3    3    0    0 -0.18729327215E+02  0.14192958570E+02  0.18357171639E+02  0.29819683462E+02  0.51100000000E-03 0.  1.
         12    1    3    3    0    0  0.13178917925E+02 -0.63896882281E+00  0.83810983048E+01  0.15631217726E+02  0.00000000000E+00 0. -1.
</event>
<event>
 7    1  0.1333056E-013  0.7246142E+02  0.7816164E-02  0.1226708E+00
        -11   -1    0    0    0    0  0.00000000000E+00  0.00000000000E+00  0.45593999997E+02  0.45594000000E+02  0.51100000000E-03 0.  1.
         11   -1    0    0    0    0 -0.00000000000E+00 -0.00000000000E+00 -0.45593999997E+02  0.45594000000E+02  0.51100000000E-03 0. -1.
    9900012    2    1    2    0    0  0.10790496452E+02 -0.14931849874E+02  0.33600107636E+01  0.72461424588E+02  0.69999810191E+02 0.  0.
         12    1    1    2    0    0 -0.10790496452E+02  0.14931849874E+02 -0.33600107636E+01  0.18726575412E+02  0.00000000000E+00 0. -1.
         11    1    3    3    0    0  0.24385359654E+02 -0.51745411032E+01 -0.88625149738E+00  0.24944079118E+02  0.51100000000E-03 0. -1.
        -11    1    3    3    0    0 -0.13031753366E+02 -0.25900290490E+02  0.95336683400E+01  0.30521180769E+02  0.51100000000E-03 0.  1.
         12    1    3    3    0    0 -0.56310983560E+00  0.16142981720E+02 -0.52874060790E+01  0.16996164701E+02  0.00000000000E+00 0. -1.
</event>
<event>
 7    1  0.1333056E-013  0.7246158E+02  0.7816164E-02  0.1226708E+00
        -11   -1    0    0    0    0  0.00000000000E+00  0.00000000000E+00  0.45593999997E+02  0.45594000000E+02  0.51100000000E-03 0.  1.
         11   -1    0    0    0    0 -0.00000000000E+00 -0.00000000000E+00 -0.45593999997E+02  0.45594000000E+02  0.51100000000E-03 0. -1.
    9900012    2    1    2    0    0 -0.16865599258E+02  0.59001920794E+01  0.56051996109E+01  0.72461575686E+02  0.70000007024E+02 0.  0.
         12    1    1    2    0    0  0.16865599258E+02 -0.59001920794E+01 -0.56051996109E+01  0.18726424314E+02  0.00000000000E+00 0. -1.
         11    1    3    3    0    0 -0.14737073948E+01  0.11782218402E+02  0.30777024199E+02  0.32988144882E+02  0.51100000000E-03 0. -1.
        -11    1    3    3    0    0 -0.65082576840E+01 -0.10983296540E+02 -0.51943841385E+00  0.12777325131E+02  0.51100000000E-03 0.  1.
         12    1    3    3    0    0 -0.88836341790E+01  0.51012702172E+01 -0.24652386174E+02  0.26696105673E+02  0.00000000000E+00 0. -1.
</event>
<event>
 7    1  0.1333056E-013  0.7246157E+02  0.7816164E-02  0.1226708E+00
        -11   -1    0    0    0    0  0.00000000000E+00  0.00000000000E+00  0.45593999997E+02  0.45594000000E+02  0.51100000000E-03 0.  1.
         11   -1    0    0    0    0 -0.00000000000E+00 -0.00000000000E+00 -0.45593999997E+02  0.45594000000E+02  0.51100000000E-03 0. -1.
    9900012    2    1    2    0    0 -0.94811200134E+01  0.20077406916E+01  0.16023622614E+02  0.72461571054E+02  0.70000000990E+02 0.  0.
         12    1    1    2    0    0  0.94811200134E+01 -0.20077406916E+01 -0.16023622614E+02  0.18726428946E+02  0.00000000000E+00 0. -1.
         11    1    3    3    0    0 -0.28344710328E+02  0.10883818158E+02 -0.79070707125E+01  0.31375179183E+02  0.51100000000E-03 0. -1.
        -11    1    3    3    0    0  0.69080473593E+01  0.51779630765E+01  0.20601302455E+02  0.22337101044E+02  0.51100000000E-03 0.  1.
         12    1    3    3    0    0  0.11955542955E+02 -0.14054040543E+02  0.33293908708E+01  0.18749290827E+02  0.00000000000E+00 0. -1.
</event>
<event>
 7    1  0.1333056E-013  0.7246154E+02  0.7816164E-02  0.1226708E+00
        -11   -1    0    0    0    0  0.00000000000E+00  0.00000000000E+00  0.45593999997E+02  0.45594000000E+02  0.51100000000E-03 0. -1.
         11   -1    0    0    0    0 -0.00000000000E+00 -0.00000000000E+00 -0.45593999997E+02  0.45594000000E+02  0.51100000000E-03 0.  1.
    9900012    2    1    2    0    0  0.35675006751E+01  0.15328751059E+02 -0.10148035127E+02  0.72461540456E+02  0.69999961130E+02 0.  0.
         12    1    1    2    0    0 -0.35675006751E+01 -0.15328751059E+02  0.10148035127E+02  0.18726459544E+02  0.00000000000E+00 0. -1.
         11    1    3    3    0    0  0.12700392291E+02  0.42379505952E-01  0.13417942139E+02  0.18475468380E+02  0.51100000000E-03 0. -1.
        -11    1    3    3    0    0 -0.15115224228E+02  0.29489415592E+02 -0.15325867683E+02  0.36509969267E+02  0.51100000000E-03 0.  1.
        -12    1    3    3    0    0  0.59823326125E+01 -0.14203044038E+02 -0.82401095828E+01  0.17476102809E+02  0.00000000000E+00 0.  1.
</event>
<event>
 7    1  0.1333056E-013  0.7246155E+02  0.7816164E-02  0.1226708E+00
        -11   -1    0    0    0    0  0.00000000000E+00  0.00000000000E+00  0.45593999997E+02  0.45594000000E+02  0.51100000000E-03 0.  1.
         11   -1    0    0    0    0 -0.00000000000E+00 -0.00000000000E+00 -0.45593999997E+02  0.45594000000E+02  0.51100000000E-03 0. -1.
    9900012    2    1    2    0    0  0.78196996732E+01  0.15792258680E+02  0.63353484899E+01  0.72461554056E+02  0.69999978847E+02 0.  0.
         12    1    1    2    0    0 -0.78196996732E+01 -0.15792258680E+02 -0.63353484899E+01  0.18726445944E+02  0.00000000000E+00 0. -1.
         11    1    3    3    0    0  0.12745910050E+02  0.36829090942E+02 -0.58067725930E+01  0.39402522391E+02  0.51100000000E-03 0. -1.
        -11    1    3    3    0    0  0.74518857275E+01 -0.66121857465E+01  0.96832952577E+01  0.13893084918E+02  0.51100000000E-03 0.  1.
         12    1    3    3    0    0 -0.12378096104E+02 -0.14424646515E+02  0.24588258252E+01  0.19165946747E+02  0.00000000000E+00 0. -1.
</event>
<event>
 7    1  0.1333056E-013  0.7246155E+02  0.7816164E-02  0.1226708E+00
        -11   -1    0    0    0    0  0.00000000000E+00  0.00000000000E+00  0.45593999997E+02  0.45594000000E+02  0.51100000000E-03 0. -1.
         11   -1    0    0    0    0 -0.00000000000E+00 -0.00000000000E+00 -0.45593999997E+02  0.45594000000E+02  0.51100000000E-03 0.  1.
    9900012    2    1    2    0    0  0.67230658516E+01 -0.15893983692E+02 -0.72705979209E+01  0.72461550092E+02  0.69999973682E+02 0.  0.
         12    1    1    2    0    0 -0.67230658516E+01  0.15893983692E+02  0.72705979209E+01  0.18726449908E+02  0.00000000000E+00 0. -1.
         11    1    3    3    0    0 -0.28928208125E+01  0.79527716057E+01 -0.71923173222E+01  0.11106053178E+02  0.51100000000E-03 0. -1.
        -11    1    3    3    0    0  0.57296793961E+01 -0.42151178788E+02  0.15926730928E+01  0.42568623504E+02  0.51100000000E-03 0.  1.
        -12    1    3    3    0    0  0.38862072679E+01  0.18304423491E+02 -0.16709536916E+01  0.18786873410E+02  0.00000000000E+00 0.  1.
</event>
<event>
 7    1  0.1333056E-013  0.7246160E+02  0.7816164E-02  0.1226708E+00
        -11   -1    0    0    0    0  0.00000000000E+00  0.00000000000E+00  0.45593999997E+02  0.45594000000E+02  0.51100000000E-03 0.  1.
         11   -1    0    0    0    0 -0.00000000000E+00 -0.00000000000E+00 -0.45593999997E+02  0.45594000000E+02  0.51100000000E-03 0. -1.
    9900012    2    1    2    0    0  0.50150627108E+00 -0.28451986570E+01  0.18502202653E+02  0.72461597063E+02  0.70000034872E+02 0.  0.
         12    1    1    2    0    0 -0.50150627108E+00  0.28451986570E+01 -0.18502202653E+02  0.18726402937E+02  0.00000000000E+00 0. -1.
         11    1    3    3    0    0  0.26940043950E+02 -0.18504180000E+01  0.12237456876E+01  0.27031233204E+02  0.51100000000E-03 0. -1.
        -11    1    3    3    0    0 -0.16811397998E+02 -0.14568906526E+02  0.18230671961E+02  0.28761667901E+02  0.51100000000E-03 0.  1.
        -12    1    3    3    0    0 -0.96271396800E+01  0.13574125869E+02 -0.95221499597E+00  0.16668695958E+02  0.00000000000E+00 0.  1.
</event>
<event>
 7    1  0.1333056E-013  0.7246161E+02  0.7816164E-02  0.1226708E+00
        -11   -1    0    0    0    0  0.00000000000E+00  0.00000000000E+00  0.45593999997E+02  0.45594000000E+02  0.51100000000E-03 0.  1.
         11   -1    0    0    0    0 -0.00000000000E+00 -0.00000000000E+00 -0.45593999997E+02  0.45594000000E+02  0.51100000000E-03 0. -1.
    9900012    2    1    2    0    0 -0.32741778938E+01  0.10550217583E+02  0.15121191916E+02  0.72461607478E+02  0.70000048439E+02 0.  0.
         12    1    1    2    0    0  0.32741778938E+01 -0.10550217583E+02 -0.15121191916E+02  0.18726392522E+02  0.00000000000E+00 0. -1.
         11    1    3    3    0    0  0.62583595516E+01 -0.61529820810E+01 -0.46648732654E+01  0.99391798258E+01  0.51100000000E-03 0. -1.
        -11    1    3    3    0    0 -0.27891834126E+02  0.35210174336E+01  0.26817124648E+02  0.38852414974E+02  0.51100000000E-03 0.  1.
        -12    1    3    3    0    0  0.18359296681E+02  0.13182182230E+02 -0.70310594669E+01  0.23670012678E+02  0.00000000000E+00 0.  1.
</event>
<event>
 7    1  0.1333056E-013  0.7246158E+02  0.7816164E-02  0.1226708E+00
        -11   -1    0    0    0    0  0.00000000000E+00  0.00000000000E+00  0.45593999997E+02  0.45594000000E+02  0.51100000000E-03 0.  1.
         11   -1    0    0    0    0 -0.00000000000E+00 -0.00000000000E+00 -0.45593999997E+02  0.45594000000E+02  0.51100000000E-03 0. -1.
    9900012    2    1    2    0    0  0.12131325864E+02 -0.25310830300E+01  0.14039355997E+02  0.72461575746E+02  0.70000007102E+02 0.  0.
         12    1    1    2    0    0 -0.12131325864E+02  0.25310830300E+01 -0.14039355997E+02  0.18726424254E+02  0.00000000000E+00 0. -1.
         11    1    3    3    0    0  0.97759329626E+01  0.72514665708E+01  0.31226063938E+02  0.33514470040E+02  0.51100000000E-03 0.  1.
        -11    1    3    3    0    0  0.12894265541E+02 -0.12683669928E+02 -0.20678078074E+02  0.27472176466E+02  0.51100000000E-03 0. -1.
         12    1    3    3    0    0 -0.10538872640E+02  0.29011203268E+01  0.34913701323E+01  0.11474929240E+02  0.00000000000E+00 0. -1.
</event>
<event>
 7    1  0.1333056E-013  0.7246156E+02  0.7816164E-02  0.1226708E+00
        -11   -1    0    0    0    0  0.00000000000E+00  0.00000000000E+00  0.45593999997E+02  0.45594000000E+02  0.51100000000E-03 0. -1.
         11   -1    0    0    0    0 -0.00000000000E+00 -0.00000000000E+00 -0.45593999997E+02  0.45594000000E+02  0.51100000000E-03 0.  1.
    9900012    2    1    2    0    0  0.48283877574E+00  0.84163860877E+01  0.16721566963E+02  0.72461561744E+02  0.69999988861E+02 0.  0.
         12    1    1    2    0    0 -0.48283877574E+00 -0.84163860877E+01 -0.16721566963E+02  0.18726438256E+02  0.00000000000E+00 0. -1.
         11    1    3    3    0    0 -0.17019457325E+02  0.26028918001E+02  0.15862892202E+02  0.34911285414E+02  0.51100000000E-03 0. -1.
        -11    1    3    3    0    0  0.25217430139E+02 -0.13912276471E+02  0.22204949670E+01  0.28885996911E+02  0.51100000000E-03 0.  1.
        -12    1    3    3    0    0 -0.77151340381E+01 -0.37002554428E+01 -0.13618202063E+01  0.86642794185E+01  0.00000000000E+00 0.  1.
</event>
<event>
 7    1  0.1333056E-013  0.7246158E+02  0.7816164E-02  0.1226708E+00
        -11   -1    0    0    0    0  0.00000000000E+00  0.00000000000E+00  0.45593999997E+02  0.45594000000E+02  0.51100000000E-03 0. -1.
         11   -1    0    0    0    0 -0.00000000000E+00 -0.00000000000E+00 -0.45593999997E+02  0.45594000000E+02  0.51100000000E-03 0.  1.
    9900012    2    1    2    0    0 -0.25051045225E+01  0.83184463283E+01 -0.16589358146E+02  0.72461577445E+02  0.70000009316E+02 0.  0.
         12    1    1    2    0    0  0.25051045225E+01 -0.83184463283E+01  0.16589358146E+02  0.18726422555E+02  0.00000000000E+00 0. -1.
         11    1    3    3    0    0 -0.72146967075E-01 -0.51531075167E+01  0.14476100037E+02  0.15366105389E+02  0.51100000000E-03 0. -1.
        -11    1    3    3    0    0 -0.12902495995E+02  0.16370685441E+02 -0.38604452743E+02  0.43872286430E+02  0.51100000000E-03 0.  1.
        -12    1    3    3    0    0  0.10469538440E+02 -0.28991315959E+01  0.75389945597E+01  0.13223185627E+02  0.00000000000E+00 0.  1.
</event>
<event>
 7    1  0.1333056E-013  0.7246146E+02  0.7816164E-02  0.1226708E+00
        -11   -1    0    0    0    0  0.00000000000E+00  0.00000000000E+00  0.45593999997E+02  0.45594000000E+02  0.51100000000E-03 0.  1.
         11   -1    0    0    0    0 -0.00000000000E+00 -0.00000000000E+00 -0.45593999997E+02  0.45594000000E+02  0.51100000000E-03 0. -1.
    9900012    2    1    2    0    0  0.17414290863E+02 -0.61177046986E+01  0.31621706197E+01  0.72461463746E+02  0.69999861201E+02 0.  0.
         12    1    1    2    0    0 -0.17414290863E+02  0.61177046986E+01 -0.31621706197E+01  0.18726536254E+02  0.00000000000E+00 0. -1.
         11    1    3    3    0    0  0.28959054687E+01 -0.17099234885E+02 -0.19812474393E+02  0.26330671164E+02  0.51100000000E-03 0. -1.
        -11    1    3    3    0    0  0.48768233447E+01  0.23074022469E+02  0.88618774880E+01  0.25193784783E+02  0.51100000000E-03 0.  1.
         12    1    3    3    0    0  0.96415620493E+01 -0.12092492283E+02  0.14112767525E+02  0.20937007799E+02  0.00000000000E+00 0. -1.
</event>
<event>
 7    1  0.1333056E-013  0.7246159E+02  0.7816164E-02  0.1226708E+00
        -11   -1    0    0    0    0  0.00000000000E+00  0.00000000000E+00  0.45593999997E+02  0.45594000000E+02  0.51100000000E-03 0.  1.
         11   -1    0    0    0    0 -0.00000000000E+00 -0.00000000000E+00 -0.45593999997E+02  0.45594000000E+02  0.51100000000E-03 0. -1.
    9900012    2    1    2    0    0  0.16840305377E+02 -0.61287274872E+01  0.54333599808E+01  0.72461585861E+02  0.70000020279E+02 0.  0.
         12    1    1    2    0    0 -0.16840305377E+02  0.61287274872E+01 -0.54333599808E+01  0.18726414139E+02  0.00000000000E+00 0. -1.
         11    1    3    3    0    0  0.45673665718E+01  0.23437947666E+02 -0.15799325401E+02  0.28632445086E+02  0.51100000000E-03 0. -1.
        -11    1    3    3    0    0  0.11775949435E+02 -0.37164367713E+01  0.51437881663E+01  0.13376974409E+02  0.51100000000E-03 0.  1.
         12    1    3    3    0    0  0.49698937036E+00 -0.25850238382E+02  0.16088897216E+02  0.30452166367E+02  0.00000000000E+00 0. -1.
</event>
<event>
 7    1  0.1333056E-013  0.7246156E+02  0.7816164E-02  0.1226708E+00
        -11   -1    0    0    0    0  0.00000000000E+00  0.00000000000E+00  0.45593999997E+02  0.45594000000E+02  0.51100000000E-03 0. -1.
         11   -1    0    0    0    0 -0.00000000000E+00 -0.00000000000E+00 -0.45593999997E+02  0.45594000000E+02  0.51100000000E-03 0.  1.
    9900012    2    1    2    0    0 -0.16319615871E+02  0.63602910449E+01 -0.66254410922E+01  0.72461557892E+02  0.69999983844E+02 0.  0.
         12    1    1    2    0    0  0.16319615871E+02 -0.63602910449E+01  0.66254410922E+01  0.18726442108E+02  0.00000000000E+00 0. -1.
         11    1    3    3    0    0  0.20609380577E+01  0.29007008326E+02 -0.11957751993E+02  0.31442675310E+02  0.51100000000E-03 0. -1.
        -11    1    3    3    0    0  0.53694563235E+01 -0.13677531743E+02 -0.13826502293E+01  0.14758646879E+02  0.51100000000E-03 0.  1.
         12    1    3    3    0    0 -0.23750010252E+02 -0.89691855384E+01  0.67149611300E+01  0.26260235703E+02  0.00000000000E+00 0. -1.
</event>
<event>
 7    1  0.1333056E-013  0.7246161E+02  0.7816164E-02  0.1226708E+00
        -11   -1    0    0    0    0  0.00000000000E+00  0.00000000000E+00  0.45593999997E+02  0.45594000000E+02  0.51100000000E-03 0.  1.
         11   -1    0    0    0    0 -0.00000000000E+00 -0.00000000000E+00 -0.45593999997E+02  0.45594000000E+02  0.51100000000E-03 0. -1.
    9900012    2    1    2    0    0 -0.10179945355E+02  0.31820867099E+01 -0.15392223742E+02  0.72461614471E+02  0.70000057548E+02 0.  0.
         12    1    1    2    0    0  0.10179945355E+02 -0.31820867099E+01  0.15392223742E+02  0.18726385529E+02  0.00000000000E+00 0. -1.
         11    1    3    3    0    0 -0.20967095747E+02  0.16809963083E+02 -0.19883224446E+02  0.33429576389E+02  0.51100000000E-03 0. -1.
        -11    1    3    3    0    0 -0.52090027744E+01 -0.13622124314E+02  0.14170977558E+02  0.20335008875E+02  0.51100000000E-03 0.  1.
        -12    1    3    3    0    0  0.15996153167E+02 -0.57520592247E-02 -0.96799768545E+01  0.18697029206E+02  0.00000000000E+00 0.  1.
</event>
<event>
 7    1  0.1333056E-013  0.7246155E+02  0.7816164E-02  0.1226708E+00
        -11   -1    0    0    0    0  0.00000000000E+00  0.00000000000E+00  0.45593999997E+02  0.45594000000E+02  0.51100000000E-03 0. -1.
         11   -1    0    0    0    0 -0.00000000000E+00 -0.00000000000E+00 -0.45593999997E+02  0.45594000000E+02  0.51100000000E-03 0.  1.
    9900012    2    1    2    0    0  0.12789688457E+01 -0.55889036219E+00 -0.18674365383E+02  0.72461546994E+02  0.69999969647E+02 0.  0.
         12    1    1    2    0    0 -0.12789688457E+01  0.55889036219E+00  0.18674365383E+02  0.18726453006E+02  0.00000000000E+00 0. -1.
         11    1    3    3    0    0  0.19109787221E+02 -0.48034342546E+01 -0.27384315247E+02  0.33736592449E+02  0.51100000000E-03 0.  1.
        -11    1    3    3    0    0 -0.16967441939E+02  0.17541143091E+02  0.58858743866E+01  0.25104368235E+02  0.51100000000E-03 0. -1.
         12    1    3    3    0    0 -0.86337643686E+00 -0.13296599199E+02  0.28240754772E+01  0.13620586310E+02  0.00000000000E+00 0. -1.
</event>
<event>
 7    1  0.1333056E-013  0.7246168E+02  0.7816164E-02  0.1226708E+00
        -11   -1    0    0    0    0  0.00000000000E+00  0.00000000000E+00  0.45593999997E+02  0.45594000000E+02  0.51100000000E-03 0.  1.
         11   -1    0    0    0    0 -0.00000000000E+00 -0.00000000000E+00 -0.45593999997E+02  0.45594000000E+02  0.51100000000E-03 0. -1.
    9900012    2    1    2    0    0 -0.11414972608E+02  0.10977504360E+02  0.99933950572E+01  0.72461677713E+02  0.70000139933E+02 0.  0.
         12    1    1    2    0    0  0.11414972608E+02 -0.10977504360E+02 -0.99933950572E+01  0.18726322287E+02  0.00000000000E+00 0. -1.
         11    1    3    3    0    0  0.17183849636E+02 -0.90813863477E+01  0.15274712307E+02  0.24719892852E+02  0.51100000000E-03 0. -1.
        -11    1    3    3    0    0 -0.21344685117E+02  0.26109211647E+02  0.46416726886E+01  0.34041616313E+02  0.51100000000E-03 0.  1.
         12    1    3    3    0    0 -0.72541371268E+01 -0.60503209393E+01 -0.99229899380E+01  0.13700168548E+02  0.00000000000E+00 0. -1.
</event>
<event>
 7    1  0.1333056E-013  0.7246158E+02  0.7816164E-02  0.1226708E+00
        -11   -1    0    0    0    0  0.00000000000E+00  0.00000000000E+00  0.45593999997E+02  0.45594000000E+02  0.51100000000E-03 0.  1.
         11   -1    0    0    0    0 -0.00000000000E+00 -0.00000000000E+00 -0.45593999997E+02  0.45594000000E+02  0.51100000000E-03 0. -1.
    9900012    2    1    2    0    0 -0.74845642568E-01 -0.12970818317E+01  0.18681291605E+02  0.72461583386E+02  0.70000017055E+02 0.  0.
         12    1    1    2    0    0  0.74845642568E-01  0.12970818317E+01 -0.18681291605E+02  0.18726416614E+02  0.00000000000E+00 0. -1.
         11    1    3    3    0    0  0.50433570695E+01  0.57815357669E+01 -0.21976342629E+02  0.23277053980E+02  0.51100000000E-03 0. -1.
        -11    1    3    3    0    0 -0.71242701879E+01 -0.14104519164E+02  0.12655634751E+02  0.20244944499E+02  0.51100000000E-03 0.  1.
         12    1    3    3    0    0  0.20060674758E+01  0.70259015655E+01  0.28001999484E+02  0.28939584908E+02  0.00000000000E+00 0. -1.
</event>
<event>
 7    1  0.1333056E-013  0.7246160E+02  0.7816164E-02  0.1226708E+00
        -11   -1    0    0    0    0  0.00000000000E+00  0.00000000000E+00  0.45593999997E+02  0.45594000000E+02  0.51100000000E-03 0.  1.
         11   -1    0    0    0    0 -0.00000000000E+00 -0.00000000000E+00 -0.45593999997E+02  0.45594000000E+02  0.51100000000E-03 0. -1.
    9900012    2    1    2    0    0  0.51635293731E+01 -0.86840874159E+01  0.15767143707E+02  0.72461595366E+02  0.70000032661E+02 0.  0.
         12    1    1    2    0    0 -0.51635293731E+01  0.86840874159E+01 -0.15767143707E+02  0.18726404634E+02  0.00000000000E+00 0. -1.
         11    1    3    3    0    0 -0.38489059142E+01 -0.92732954369E+01 -0.88532299222E+01  0.13386103440E+02  0.51100000000E-03 0. -1.
        -11    1    3    3    0    0  0.15092718119E+02  0.24371823844E+02  0.92911130518E+01  0.30134709550E+02  0.51100000000E-03 0.  1.
        -12    1    3    3    0    0 -0.60802828319E+01 -0.23782615822E+02  0.15329260577E+02  0.28940782376E+02  0.00000000000E+00 0.  1.
</event>
<event>
 7    1  0.1333056E-013  0.7246156E+02  0.7816164E-02  0.1226708E+00
        -11   -1    0    0    0    0  0.00000000000E+00  0.00000000000E+00  0.45593999997E+02  0.45594000000E+02  0.51100000000E-03 0. -1.
         11   -1    0    0    0    0 -0.00000000000E+00 -0.00000000000E+00 -0.45593999997E+02  0.45594000000E+02  0.51100000000E-03 0.  1.
    9900012    2    1    2    0    0  0.13344297156E+02 -0.10421874618E+02 -0.79996213846E+01  0.72461556679E+02  0.69999982263E+02 0.  0.
         12    1    1    2    0    0 -0.13344297156E+02  0.10421874618E+02  0.79996213846E+01  0.18726443321E+02  0.00000000000E+00 0. -1.
         11    1    3    3    0    0  0.23592607904E+02  0.16505049713E+01  0.19614745355E+02  0.30725779892E+02  0.51100000000E-03 0. -1.
        -11    1    3    3    0    0 -0.82332480708E+01  0.65323349449E+00 -0.27644175316E+02  0.28851577374E+02  0.51100000000E-03 0.  1.
         12    1    3    3    0    0 -0.20150626767E+01 -0.12725613084E+02  0.29808577120E-01  0.12884199413E+02  0.00000000000E+00 0. -1.
</event>
<event>
 7    1  0.1333056E-013  0.7246157E+02  0.7816164E-02  0.1226708E+00
        -11   -1    0    0    0    0  0.00000000000E+00  0.00000000000E+00  0.45593999997E+02  0.45594000000E+02  0.51100000000E-03 0.  1.
         11   -1    0    0    0    0 -0.00000000000E+00 -0.00000000000E+00 -0.45593999997E+02  0.45594000000E+02  0.51100000000E-03 0. -1.
    9900012    2    1    2    0    0  0.22990375119E+01 -0.18131318730E+02 -0.40803038312E+01  0.72461570236E+02  0.69999999924E+02 0.  0.
         12    1    1    2    0    0 -0.22990375119E+01  0.18131318730E+02  0.40803038312E+01  0.18726429764E+02  0.00000000000E+00 0. -1.
         11    1    3    3    0    0  0.76230988919E+01 -0.12073713004E+02  0.48250373317E+01  0.15072065815E+02  0.51100000000E-03 0. -1.
        -11    1    3    3    0    0 -0.18444517461E+02  0.92222287180E+01  0.15463425441E+02  0.25775322569E+02  0.51100000000E-03 0.  1.
        -12    1    3    3    0    0  0.13120456081E+02 -0.15279834443E+02 -0.24368766603E+02  0.31614181852E+02  0.00000000000E+00 0.  1.
</event>
<event>
 7    1  0.1333056E-013  0.7246152E+02  0.7816164E-02  0.1226708E+00
        -11   -1    0    0    0    0  0.00000000000E+00  0.00000000000E+00  0.45593999997E+02  0.45594000000E+02  0.51100000000E-03 0.  1.
         11   -1    0    0    0    0 -0.00000000000E+00 -0.00000000000E+00 -0.45593999997E+02  0.45594000000E+02  0.51100000000E-03 0. -1.
    9900012    2    1    2    0    0  0.61534427482E+01 -0.76396152869E+01  0.15951570946E+02  0.72461516213E+02  0.69999929549E+02 0.  0.
         12    1    1    2    0    0 -0.61534427482E+01  0.76396152869E+01 -0.15951570946E+02  0.18726483787E+02  0.00000000000E+00 0. -1.
         11    1    3    3    0    0 -0.80305070353E+01 -0.98291218558E+01 -0.21770027205E+02  0.25199896120E+02  0.51100000000E-03 0. -1.
        -11    1    3    3    0    0  0.14317906990E+01 -0.95536927078E+01  0.21276084635E+02  0.23366532619E+02  0.51100000000E-03 0.  1.
         12    1    3    3    0    0  0.12752159084E+02  0.11743199277E+02  0.16445513516E+02  0.23895087474E+02  0.00000000000E+00 0. -1.
</event>
<event>
 7    1  0.1333056E-013  0.7246180E+02  0.7816164E-02  0.1226707E+00
        -11   -1    0    0    0    0  0.00000000000E+00  0.00000000000E+00  0.45593999997E+02  0.45594000000E+02  0.51100000000E-03 0.  1.
         11   -1    0    0    0    0 -0.00000000000E+00 -0.00000000000E+00 -0.45593999997E+02  0.45594000000E+02  0.51100000000E-03 0. -1.
    9900012    2    1    2    0    0  0.13013767163E+02 -0.10292103006E+02  0.86824641048E+01  0.72461796354E+02  0.70000294484E+02 0.  0.
         12    1    1    2    0    0 -0.13013767163E+02  0.10292103006E+02 -0.86824641048E+01  0.18726203646E+02  0.00000000000E+00 0. -1.
         11    1    3    3    0    0  0.80144059077E+01  0.77056753532E+01 -0.19891835922E+02  0.22788007182E+02  0.51100000000E-03 0. -1.
        -11    1    3    3    0    0  0.17780589063E+02 -0.19334846092E+02  0.12489194545E+02  0.29085487815E+02  0.51100000000E-03 0.  1.
         12    1    3    3    0    0 -0.12781227807E+02  0.13370677328E+01  0.16085105482E+02  0.20588301357E+02  0.00000000000E+00 0. -1.
</event>
<event>
 7    1  0.1333056E-013  0.7246136E+02  0.7816164E-02  0.1226709E+00
        -11   -1    0    0    0    0  0.00000000000E+00  0.00000000000E+00  0.45593999997E+02  0.45594000000E+02  0.51100000000E-03 0.  1.
         11   -1    0    0    0    0 -0.00000000000E+00 -0.00000000000E+00 -0.45593999997E+02  0.45594000000E+02  0.51100000000E-03 0. -1.
    9900012    2    1    2    0    0  0.15556594046E+02 -0.94427550680E+01 -0.44174234085E+01  0.72461364660E+02  0.69999732123E+02 0.  0.
         12    1    1    2    0    0 -0.15556594046E+02  0.94427550680E+01  0.44174234085E+01  0.18726635340E+02  0.00000000000E+00 0. -1.
         11    1    3    3    0    0  0.69536195473E+00  0.66464139366E+01  0.14386634825E+01  0.68357954432E+01  0.51100000000E-03 0. -1.
        -11    1    3    3    0    0 -0.82464006218E+01 -0.31314983494E+02 -0.16041093796E+02  0.36137902607E+02  0.51100000000E-03 0.  1.
        -12    1    3    3    0    0  0.23107632713E+02  0.15225814489E+02  0.10185006905E+02  0.29487666610E+02  0.00000000000E+00 0.  1.
</event>
<event>
 7    1  0.1333056E-013  0.7246157E+02  0.7816164E-02  0.1226708E+00
        -11   -1    0    0    0    0  0.00000000000E+00  0.00000000000E+00  0.45593999997E+02  0.45594000000E+02  0.51100000000E-03 0.  1.
         11   -1    0    0    0    0 -0.00000000000E+00 -0.00000000000E+00 -0.45593999997E+02  0.45594000000E+02  0.51100000000E-03 0. -1.
    9900012    2    1    2    0    0  0.11196801822E+01 -0.12896641142E+02  0.13531518042E+02  0.72461574367E+02  0.70000005305E+02 0.  0.
         12    1    1    2    0    0 -0.11196801822E+01  0.12896641142E+02 -0.13531518042E+02  0.18726425633E+02  0.00000000000E+00 0. -1.
         11    1    3    3    0    0 -0.18605242555E+02  0.10927456580E+02 -0.17043890600E+02  0.27496519142E+02  0.51100000000E-03 0. -1.
        -11    1    3    3    0    0  0.73255017876E+01 -0.17571441228E+02  0.18841034096E+02  0.26784381444E+02  0.51100000000E-03 0.  1.
         12    1    3    3    0    0  0.12399420950E+02 -0.62526564950E+01  0.11734374547E+02  0.18180673781E+02  0.00000000000E+00 0. -1.
</event>
<event>
 7    1  0.1333056E-013  0.7246159E+02  0.7816164E-02  0.1226708E+00
        -11   -1    0    0    0    0  0.00000000000E+00  0.00000000000E+00  0.45593999997E+02  0.45594000000E+02  0.51100000000E-03 0. -1.
         11   -1    0    0    0    0 -0.00000000000E+00 -0.00000000000E+00 -0.45593999997E+02  0.45594000000E+02  0.51100000000E-03 0.  1.
    9900012    2    1    2    0    0  0.15517338237E+02  0.10141708353E+02 -0.26526040328E+01  0.72461592378E+02  0.70000028768E+02 0.  0.
         12    1    1    2    0    0 -0.15517338237E+02 -0.10141708353E+02  0.26526040328E+01  0.18726407622E+02  0.00000000000E+00 0. -1.
         11    1    3    3    0    0  0.19081068633E+02 -0.23762740134E+02 -0.10577632938E+02  0.32258972669E+02  0.51100000000E-03 0.  1.
        -11    1    3    3    0    0 -0.54154076178E+01  0.35666868780E+02  0.93612855542E+01  0.37270441851E+02  0.51100000000E-03 0. -1.
         12    1    3    3    0    0  0.18516772224E+01 -0.17624202939E+01 -0.14362566494E+01  0.29321778581E+01  0.00000000000E+00 0. -1.
</event>
<event>
 7    1  0.1333056E-013  0.7246158E+02  0.7816164E-02  0.1226708E+00
        -11   -1    0    0    0    0  0.00000000000E+00  0.00000000000E+00  0.45593999997E+02  0.45594000000E+02  0.51100000000E-03 0. -1.
         11   -1    0    0    0    0 -0.00000000000E+00 -0.00000000000E+00 -0.45593999997E+02  0.45594000000E+02  0.51100000000E-03 0.  1.
    9900012    2    1    2    0    0  0.12075689383E+01  0.13596425153E+02 -0.12820206899E+02  0.72461582708E+02  0.70000016171E+02 0.  0.
         12    1    1    2    0    0 -0.12075689383E+01 -0.13596425153E+02  0.12820206899E+02  0.18726417292E+02  0.00000000000E+00 0. -1.
         11    1    3    3    0    0 -0.87104378560E+01 -0.41004760380E+01  0.75356801035E+01  0.12225878548E+02  0.51100000000E-03 0. -1.
        -11    1    3    3    0    0  0.62114062014E+01  0.21384148362E+02 -0.36782100503E+02  0.42997514880E+02  0.51100000000E-03 0.  1.
        -12    1    3    3    0    0  0.37066005929E+01 -0.36872471719E+01  0.16426213501E+02  0.17238189280E+02  0.00000000000E+00 0.  1.
</event>
<event>
 7    1  0.1333056E-013  0.7246160E+02  0.7816164E-02  0.1226708E+00
        -11   -1    0    0    0    0  0.00000000000E+00  0.00000000000E+00  0.45593999997E+02  0.45594000000E+02  0.51100000000E-03 0.  1.
         11   -1    0    0    0    0 -0.00000000000E+00 -0.00000000000E+00 -0.45593999997E+02  0.45594000000E+02  0.51100000000E-03 0. -1.
    9900012    2    1    2    0    0  0.68918046252E+01  0.10986044329E+02  0.13508802854E+02  0.72461604310E+02  0.70000044312E+02 0.  0.
         12    1    1    2    0    0 -0.68918046252E+01 -0.10986044329E+02 -0.13508802854E+02  0.18726395690E+02  0.00000000000E+00 0. -1.
         11    1    3    3    0    0  0.17252557697E+02 -0.99795063975E+01 -0.12922492481E+02  0.23753570410E+02  0.51100000000E-03 0. -1.
        -11    1    3    3    0    0 -0.17851872881E+02  0.12593223186E+02  0.21481973640E+01  0.21952070238E+02  0.51100000000E-03 0.  1.
        -12    1    3    3    0    0  0.74911198094E+01  0.83723275407E+01  0.24283097971E+02  0.26755963663E+02  0.00000000000E+00 0.  1.
</event>
<event>
 7    1  0.1333056E-013  0.7246156E+02  0.7816164E-02  0.1226708E+00
        -11   -1    0    0    0    0  0.00000000000E+00  0.00000000000E+00  0.45593999997E+02  0.45594000000E+02  0.51100000000E-03 0.  1.
         11   -1    0    0    0    0 -0.00000000000E+00 -0.00000000000E+00 -0.45593999997E+02  0.45594000000E+02  0.51100000000E-03 0. -1.
    9900012    2    1    2    0    0  0.12879745052E+01  0.49201182940E+01  0.18022572982E+02  0.72461559355E+02  0.69999985749E+02 0.  0.
         12    1    1    2    0    0 -0.12879745052E+01 -0.49201182940E+01 -0.18022572982E+02  0.18726440645E+02  0.00000000000E+00 0. -1.
         11    1    3    3    0    0 -0.19795021926E+02 -0.17850103775E+02 -0.29208607777E+01  0.26814185159E+02  0.51100000000E-03 0. -1.
        -11    1    3    3    0    0  0.14776946923E+02  0.18207615360E+02  0.15539492148E+00  0.23449937427E+02  0.51100000000E-03 0.  1.
        -12    1    3    3    0    0  0.63060495076E+01  0.45626067087E+01  0.20788038838E+02  0.22197436769E+02  0.00000000000E+00 0.  1.
</event>
<event>
 7    1  0.1333056E-013  0.7246154E+02  0.7816164E-02  0.1226708E+00
        -11   -1    0    0    0    0  0.00000000000E+00  0.00000000000E+00  0.45593999997E+02  0.45594000000E+02  0.51100000000E-03 0. -1.
         11   -1    0    0    0    0 -0.00000000000E+00 -0.00000000000E+00 -0.45593999997E+02  0.45594000000E+02  0.51100000000E-03 0.  1.
    9900012    2    1    2    0    0  0.55426723931E+01  0.67556624159E+00 -0.17874637010E+02  0.72461541306E+02  0.69999962237E+02 0.  0.
         12    1    1    2    0    0 -0.55426723931E+01 -0.67556624159E+00  0.17874637010E+02  0.18726458694E+02  0.00000000000E+00 0. -1.
         11    1    3    3    0    0 -0.18982213280E+02 -0.25288073989E+02 -0.93348211939E+01  0.32968924673E+02  0.51100000000E-03 0. -1.
        -11    1    3    3    0    0  0.20612001072E+02  0.12438799896E+02 -0.81197545411E+01  0.25406864134E+02  0.51100000000E-03 0.  1.
         12    1    3    3    0    0  0.39128846012E+01  0.13524840335E+02 -0.42006127458E+00  0.14085752499E+02  0.00000000000E+00 0. -1.
</event>
<event>
 7    1  0.1333056E-013  0.7246158E+02  0.7816164E-02  0.1226708E+00
        -11   -1    0    0    0    0  0.00000000000E+00  0.00000000000E+00  0.45593999997E+02  0.45594000000E+02  0.51100000000E-03 0. -1.
         11   -1    0    0    0    0 -0.00000000000E+00 -0.00000000000E+00 -0.45593999997E+02  0.45594000000E+02  0.51100000000E-03 0.  1.
    9900012    2    1    2    0    0 -0.35238339217E+01  0.15618207130E+02 -0.97125180874E+01  0.72461579972E+02  0.70000012607E+02 0.  0.
         12    1    1    2    0    0  0.35238339217E+01 -0.15618207130E+02  0.97125180874E+01  0.18726420028E+02  0.00000000000E+00 0. -1.
         11    1    3    3    0    0  0.18609516406E+02 -0.12304808683E+02  0.12368573647E+02  0.25508901033E+02  0.51100000000E-03 0. -1.
        -11    1    3    3    0    0 -0.10726399637E+02  0.28384890814E+01 -0.14713845068E+02  0.18428507981E+02  0.51100000000E-03 0.  1.
         12    1    3    3    0    0 -0.11406950691E+02  0.25084526732E+02 -0.73672466660E+01  0.28524170958E+02  0.00000000000E+00 0. -1.
</event>
<event>
 7    1  0.1333056E-013  0.7246154E+02  0.7816164E-02  0.1226708E+00
        -11   -1    0    0    0    0  0.00000000000E+00  0.00000000000E+00  0.45593999997E+02  0.45594000000E+02  0.51100000000E-03 0.  1.
         11   -1    0    0    0    0 -0.00000000000E+00 -0.00000000000E+00 -0.45593999997E+02  0.45594000000E+02  0.51100000000E-03 0. -1.
    9900012    2    1    2    0    0 -0.15378413194E+02 -0.19840490693E+01  0.10499920854E+02  0.72461537947E+02  0.69999957862E+02 0.  0.
         12    1    1    2    0    0  0.15378413194E+02  0.19840490693E+01 -0.10499920854E+02  0.18726462053E+02  0.00000000000E+00 0. -1.
         11    1    3    3    0    0  0.19355882733E+02  0.77873058442E+01 -0.70070183680E+01  0.22008876286E+02  0.51100000000E-03 0. -1.
        -11    1    3    3    0    0 -0.32372894075E+02  0.17316860489E+00  0.22150752955E+02  0.39226140709E+02  0.51100000000E-03 0.  1.
        -12    1    3    3    0    0 -0.23614018523E+01 -0.99445235184E+01 -0.46438137334E+01  0.11226520953E+02  0.00000000000E+00 0.  1.
</event>
<event>
 7    1  0.1333056E-013  0.7246155E+02  0.7816164E-02  0.1226708E+00
        -11   -1    0    0    0    0  0.00000000000E+00  0.00000000000E+00  0.45593999997E+02  0.45594000000E+02  0.51100000000E-03 0.  1.
         11   -1    0    0    0    0 -0.00000000000E+00 -0.00000000000E+00 -0.45593999997E+02  0.45594000000E+02  0.51100000000E-03 0. -1.
    9900012    2    1    2    0    0  0.15572796929E+00 -0.45015548442E+01  0.18176678331E+02  0.72461551261E+02  0.69999975206E+02 0.  0.
         12    1    1    2    0    0 -0.15572796929E+00  0.45015548442E+01 -0.18176678331E+02  0.18726448739E+02  0.00000000000E+00 0. -1.
         11    1    3    3    0    0 -0.82435912408E+01 -0.16019178194E+02 -0.51577532295E+01  0.18739618064E+02  0.51100000000E-03 0. -1.
        -11    1    3    3    0    0 -0.13129849033E+01  0.98752801665E+01  0.36184525521E+02  0.37530853643E+02  0.51100000000E-03 0.  1.
        -12    1    3    3    0    0  0.97123041134E+01  0.16423431832E+01 -0.12850093961E+02  0.16191079554E+02  0.00000000000E+00 0.  1.
</event>
<event>
 7    1  0.1333056E-013  0.7246159E+02  0.7816164E-02  0.1226708E+00
        -11   -1    0    0    0    0  0.00000000000E+00  0.00000000000E+00  0.45593999997E+02  0.45594000000E+02  0.51100000000E-03 0. -1.
         11   -1    0    0    0    0 -0.00000000000E+00 -0.00000000000E+00 -0.45593999997E+02  0.45594000000E+02  0.51100000000E-03 0.  1.
    9900012    2    1    2    0    0  0.48155248988E+01 -0.17030958645E+02  0.61184490012E+01  0.72461594830E+02  0.70000031962E+02 0.  0.
         12    1    1    2    0    0 -0.48155248988E+01  0.17030958645E+02 -0.61184490012E+01  0.18726405170E+02  0.00000000000E+00 0. -1.
         11    1    3    3    0    0  0.14693365453E+02 -0.16016432181E+02  0.40795777905E+01  0.22114792410E+02  0.51100000000E-03 0. -1.
        -11    1    3    3    0    0 -0.13912436801E+02  0.17796613164E+02 -0.12878113171E+02  0.26002329453E+02  0.51100000000E-03 0.  1.
        -12    1    3    3    0    0  0.40345962475E+01 -0.18811139628E+02  0.14916984382E+02  0.24344472967E+02  0.00000000000E+00 0.  1.
</event>
<event>
 7    1  0.1333056E-013  0.7246156E+02  0.7816164E-02  0.1226708E+00
        -11   -1    0    0    0    0  0.00000000000E+00  0.00000000000E+00  0.45593999997E+02  0.45594000000E+02  0.51100000000E-03 0.  1.
         11   -1    0    0    0    0 -0.00000000000E+00 -0.00000000000E+00 -0.45593999997E+02  0.45594000000E+02  0.51100000000E-03 0. -1.
    9900012    2    1    2    0    0  0.12617338116E+02 -0.42433591754E+00  0.13831200091E+02  0.72461564727E+02  0.69999992747E+02 0.  0.
         12    1    1    2    0    0 -0.12617338116E+02  0.42433591754E+00 -0.13831200091E+02  0.18726435273E+02  0.00000000000E+00 0. -1.
         11    1    3    3    0    0  0.24613328668E+02 -0.98316154642E+01  0.23874505683E+02  0.35671678299E+02  0.51100000000E-03 0. -1.
        -11    1    3    3    0    0 -0.63275011276E+01 -0.37556273320E+01  0.98356614759E+01  0.12283413374E+02  0.51100000000E-03 0.  1.
         12    1    3    3    0    0 -0.56684894252E+01  0.13162906879E+02 -0.19878967068E+02  0.24506473054E+02  0.00000000000E+00 0. -1.
</event>
<event>
 7    1  0.1333056E-013  0.7246169E+02  0.7816164E-02  0.1226708E+00
        -11   -1    0    0    0    0  0.00000000000E+00  0.00000000000E+00  0.45593999997E+02  0.45594000000E+02  0.51100000000E-03 0.  1.
         11   -1    0    0    0    0 -0.00000000000E+00 -0.00000000000E+00 -0.45593999997E+02  0.45594000000E+02  0.51100000000E-03 0. -1.
    9900012    2    1    2    0    0 -0.15865925571E+02  0.86926833479E+01  0.48357412244E+01  0.72461688799E+02  0.70000154374E+02 0.  0.
         12    1    1    2    0    0  0.15865925571E+02 -0.86926833479E+01 -0.48357412244E+01  0.18726311201E+02  0.00000000000E+00 0. -1.
         11    1    3    3    0    0 -0.52674555349E+01  0.13111799913E+02 -0.48421955220E+01  0.14936942207E+02  0.51100000000E-03 0. -1.
        -11    1    3    3    0    0 -0.69916140417E+01  0.88543225521E+00  0.32790115614E+02  0.33538907845E+02  0.51100000000E-03 0.  1.
        -12    1    3    3    0    0 -0.36068559940E+01 -0.53045488204E+01 -0.23112178868E+02  0.23985838747E+02  0.00000000000E+00 0.  1.
</event>
<event>
 8    1  0.1333056E-013  0.7246156E+02  0.7816164E-02  0.1226708E+00
        -11   -1    0    0    0    0  0.00000000000E+00  0.00000000000E+00  0.45593999997E+02  0.45594000000E+02  0.51100000000E-03 0. -1.
         11   -1    0    0    0    0 -0.00000000000E+00 -0.00000000000E+00 -0.45593999997E+02  0.45594000000E+02  0.51100000000E-03 0.  1.
    9900012    2    1    2    0    0  0.10567598757E+02  0.15453861981E+02 -0.42843890761E+00  0.72461560042E+02  0.69999986645E+02 0.  0.
        -24    2    3    3    0    0  0.14370392795E+02  0.63151729077E+01  0.11961352237E+02  0.56603319114E+02  0.53051599310E+02 0.  0.
         12    1    1    2    0    0 -0.10567598757E+02 -0.15453861981E+02  0.42843890761E+00  0.18726439958E+02  0.00000000000E+00 0. -1.
         11    1    4    4    0    0  0.33627166871E+01 -0.19086845244E+02  0.19925119290E+02  0.27796149083E+02  0.51100000000E-03 0. -1.
        -11    1    3    3    0    0 -0.38027940384E+01  0.91386890730E+01 -0.12389791145E+02  0.15858240929E+02  0.51100000000E-03 0.  1.
        -12    1    4    4    0    0  0.11007676108E+02  0.25402018152E+02 -0.79637670527E+01  0.28807170030E+02  0.00000000000E+00 0.  1.
</event>
<event>
 7    1  0.1333056E-013  0.7246156E+02  0.7816164E-02  0.1226708E+00
        -11   -1    0    0    0    0  0.00000000000E+00  0.00000000000E+00  0.45593999997E+02  0.45594000000E+02  0.51100000000E-03 0.  1.
         11   -1    0    0    0    0 -0.00000000000E+00 -0.00000000000E+00 -0.45593999997E+02  0.45594000000E+02  0.51100000000E-03 0. -1.
    9900012    2    1    2    0    0  0.12116443859E+02 -0.14113582009E+02  0.21629054555E+01  0.72461559630E+02  0.69999986107E+02 0.  0.
         12    1    1    2    0    0 -0.12116443859E+02  0.14113582009E+02 -0.21629054555E+01  0.18726440370E+02  0.00000000000E+00 0. -1.
         11    1    3    3    0    0  0.18181674326E+02 -0.25499691912E+02  0.54450642495E+01  0.31787675188E+02  0.51100000000E-03 0. -1.
        -11    1    3    3    0    0 -0.48241425102E+01  0.21849810474E+02 -0.13386839831E+02  0.26074778036E+02  0.51100000000E-03 0.  1.
        -12    1    3    3    0    0 -0.12410879568E+01 -0.10463700572E+02  0.10104681037E+02  0.14599106405E+02  0.00000000000E+00 0.  1.
</event>
<event>
 7    1  0.1333056E-013  0.7246157E+02  0.7816164E-02  0.1226708E+00
        -11   -1    0    0    0    0  0.00000000000E+00  0.00000000000E+00  0.45593999997E+02  0.45594000000E+02  0.51100000000E-03 0.  1.
         11   -1    0    0    0    0 -0.00000000000E+00 -0.00000000000E+00 -0.45593999997E+02  0.45594000000E+02  0.51100000000E-03 0. -1.
    9900012    2    1    2    0    0  0.47582221888E+01  0.18088945426E+02 -0.91016350387E+00  0.72461574216E+02  0.70000005109E+02 0.  0.
         12    1    1    2    0    0 -0.47582221888E+01 -0.18088945426E+02  0.91016350387E+00  0.18726425784E+02  0.00000000000E+00 0. -1.
         11    1    3    3    0    0  0.10597977699E+02  0.50236144590E+01  0.10198435806E+01  0.11772591675E+02  0.51100000000E-03 0. -1.
        -11    1    3    3    0    0 -0.28729822429E+02  0.17898920498E+02  0.87645916253E+01  0.34965584772E+02  0.51100000000E-03 0.  1.
        -12    1    3    3    0    0  0.22890066918E+02 -0.48335895310E+01 -0.10694598710E+02  0.25723397770E+02  0.00000000000E+00 0.  1.
</event>
<event>
 7    1  0.1333056E-013  0.7246154E+02  0.7816164E-02  0.1226708E+00
        -11   -1    0    0    0    0  0.00000000000E+00  0.00000000000E+00  0.45593999997E+02  0.45594000000E+02  0.51100000000E-03 0. -1.
         11   -1    0    0    0    0 -0.00000000000E+00 -0.00000000000E+00 -0.45593999997E+02  0.45594000000E+02  0.51100000000E-03 0.  1.
    9900012    2    1    2    0    0  0.12452976964E+02  0.13895921376E+02 -0.15834141962E+01  0.72461535660E+02  0.69999954882E+02 0.  0.
         12    1    1    2    0    0 -0.12452976964E+02 -0.13895921376E+02  0.15834141962E+01  0.18726464340E+02  0.00000000000E+00 0. -1.
         11    1    3    3    0    0  0.99702077218E+00 -0.82243640962E+01  0.97540987996E+01  0.12797525497E+02  0.51100000000E-03 0. -1.
        -11    1    3    3    0    0  0.28416448562E+02  0.27078285309E+02 -0.11534984780E+01  0.39269054523E+02  0.51100000000E-03 0.  1.
        -12    1    3    3    0    0 -0.16960492370E+02 -0.49579998369E+01 -0.10184014518E+02  0.20394955639E+02  0.00000000000E+00 0.  1.
</event>
<event>
 7    1  0.1333056E-013  0.7246160E+02  0.7816164E-02  0.1226708E+00
        -11   -1    0    0    0    0  0.00000000000E+00  0.00000000000E+00  0.45593999997E+02  0.45594000000E+02  0.51100000000E-03 0. -1.
         11   -1    0    0    0    0 -0.00000000000E+00 -0.00000000000E+00 -0.45593999997E+02  0.45594000000E+02  0.51100000000E-03 0.  1.
    9900012    2    1    2    0    0 -0.75624252330E+01  0.16931439469E+02  0.26104230647E+01  0.72461595474E+02  0.70000032801E+02 0.  0.
         12    1    1    2    0    0  0.75624252330E+01 -0.16931439469E+02 -0.26104230647E+01  0.18726404526E+02  0.00000000000E+00 0. -1.
         11    1    3    3    0    0 -0.15835561364E+02  0.88178695940E+01  0.31914024643E+02  0.36701836426E+02  0.51100000000E-03 0. -1.
        -11    1    3    3    0    0  0.10634890621E+01 -0.51964596300E+01 -0.87782534134E+01  0.10256311955E+02  0.51100000000E-03 0.  1.
         12    1    3    3    0    0  0.72096470692E+01  0.13310029505E+02 -0.20525348165E+02  0.25503447092E+02  0.00000000000E+00 0. -1.
</event>
<event>
 7    1  0.1333056E-013  0.7246152E+02  0.7816164E-02  0.1226708E+00
        -11   -1    0    0    0    0  0.00000000000E+00  0.00000000000E+00  0.45593999997E+02  0.45594000000E+02  0.51100000000E-03 0.  1.
         11   -1    0    0    0    0 -0.00000000000E+00 -0.00000000000E+00 -0.45593999997E+02  0.45594000000E+02  0.51100000000E-03 0. -1.
    9900012    2    1    2    0    0 -0.10672274951E+02 -0.76450627631E+01  0.13354273923E+02  0.72461519570E+02  0.69999933922E+02 0.  0.
         12    1    1    2    0    0  0.10672274951E+02  0.76450627631E+01 -0.13354273923E+02  0.18726480430E+02  0.00000000000E+00 0. -1.
         11    1    3    3    0    0 -0.20288089679E+02 -0.25860311907E+02  0.22893881337E+02  0.40056112114E+02  0.51100000000E-03 0. -1.
        -11    1    3    3    0    0  0.14640728157E+02  0.40394080373E+01 -0.12674691238E+01  0.15240545151E+02  0.51100000000E-03 0.  1.
         12    1    3    3    0    0 -0.50249134301E+01  0.14175841106E+02 -0.82721382901E+01  0.17164862305E+02  0.00000000000E+00 0. -1.
</event>
<event>
 7    1  0.1333056E-013  0.7246158E+02  0.7816164E-02  0.1226708E+00
        -11   -1    0    0    0    0  0.00000000000E+00  0.00000000000E+00  0.45593999997E+02  0.45594000000E+02  0.51100000000E-03 0.  1.
         11   -1    0    0    0    0 -0.00000000000E+00 -0.00000000000E+00 -0.45593999997E+02  0.45594000000E+02  0.51100000000E-03 0. -1.
    9900012    2    1    2    0    0 -0.55364017947E+00 -0.16625854102E+01  0.18644246589E+02  0.72461584471E+02  0.70000018468E+02 0.  0.
         12    1    1    2    0    0  0.55364017947E+00  0.16625854102E+01 -0.18644246589E+02  0.18726415529E+02  0.00000000000E+00 0. -1.
         11    1    3    3    0    0  0.22630110948E+02 -0.18725850344E+02 -0.11370162817E+01  0.29395105016E+02  0.51100000000E-03 0. -1.
        -11    1    3    3    0    0 -0.73772390114E+01  0.14222980712E+01  0.19424207016E+02  0.20826579308E+02  0.51100000000E-03 0.  1.
         12    1    3    3    0    0 -0.15806512116E+02  0.15640966863E+02  0.35705585472E+00  0.22239900147E+02  0.00000000000E+00 0. -1.
</event>
<event>
 7    1  0.1333056E-013  0.7246179E+02  0.7816164E-02  0.1226707E+00
        -11   -1    0    0    0    0  0.00000000000E+00  0.00000000000E+00  0.45593999997E+02  0.45594000000E+02  0.51100000000E-03 0.  1.
         11   -1    0    0    0    0 -0.00000000000E+00 -0.00000000000E+00 -0.45593999997E+02  0.45594000000E+02  0.51100000000E-03 0. -1.
    9900012    2    1    2    0    0  0.14946654826E+02  0.80044950133E+01  0.79496295621E+01  0.72461787327E+02  0.70000282724E+02 0.  0.
         12    1    1    2    0    0 -0.14946654826E+02 -0.80044950133E+01 -0.79496295621E+01  0.18726212673E+02  0.00000000000E+00 0. -1.
         11    1    3    3    0    0  0.66969441710E+01  0.53197183720E+01 -0.18910975833E+02  0.20755083040E+02  0.51100000000E-03 0. -1.
        -11    1    3    3    0    0  0.11479201364E+02  0.12071291015E+02  0.35070094913E+02  0.38825245500E+02  0.51100000000E-03 0.  1.
        -12    1    3    3    0    0 -0.32294907091E+01 -0.93865143735E+01 -0.82094895180E+01  0.12881458787E+02  0.00000000000E+00 0.  1.
</event>
<event>
 7    1  0.1494494E-013  0.7246156E+02  0.7816164E-02  0.1226708E+00
        -11   -1    0    0    0    0  0.00000000000E+00  0.00000000000E+00  0.45593999997E+02  0.45594000000E+02  0.51100000000E-03 0. -1.
         11   -1    0    0    0    0 -0.00000000000E+00 -0.00000000000E+00 -0.45593999997E+02  0.45594000000E+02  0.51100000000E-03 0.  1.
    9900012    2    1    2    0    0  0.30732514657E+01 -0.80647092710E-01 -0.18472359453E+02  0.72461563011E+02  0.69999990513E+02 0.  0.
         12    1    1    2    0    0 -0.30732514657E+01  0.80647092710E-01  0.18472359453E+02  0.18726436989E+02  0.00000000000E+00 0. -1.
         11    1    3    3    0    0  0.16094439494E+01  0.18061700746E+02  0.11910999209E+02  0.21695327748E+02  0.51100000000E-03 0. -1.
        -11    1    3    3    0    0  0.21443823975E+01 -0.19441720158E+02  0.77345808054E+00  0.19574909865E+02  0.51100000000E-03 0.  1.
        -12    1    3    3    0    0 -0.68057488131E+00  0.12993723186E+01 -0.31156816742E+02  0.31191325399E+02  0.00000000000E+00 0.  1.
</event>
<event>
 7    1  0.1647874E-013  0.7246152E+02  0.7816164E-02  0.1226708E+00
        -11   -1    0    0    0    0  0.00000000000E+00  0.00000000000E+00  0.45593999997E+02  0.45594000000E+02  0.51100000000E-03 0. -1.
         11   -1    0    0    0    0 -0.00000000000E+00 -0.00000000000E+00 -0.45593999997E+02  0.45594000000E+02  0.51100000000E-03 0.  1.
    9900012    2    1    2    0    0  0.10808079254E+02 -0.71550453623E+01 -0.13515609579E+02  0.72461522659E+02  0.69999937947E+02 0.  0.
         12    1    1    2    0    0 -0.10808079254E+02  0.71550453623E+01  0.13515609579E+02  0.18726477341E+02  0.00000000000E+00 0. -1.
         11    1    3    3    0    0 -0.65581639356E+01  0.22928873793E+01  0.36394962963E+01  0.78430083701E+01  0.51100000000E-03 0. -1.
        -11    1    3    3    0    0  0.23239929836E+02  0.20836717931E+02 -0.11446165336E+02  0.33245719335E+02  0.51100000000E-03 0.  1.
        -12    1    3    3    0    0 -0.58736866466E+01 -0.30284650673E+02 -0.57089405394E+01  0.31372794955E+02  0.00000000000E+00 0.  1.
</event>
<event>
 7    1  0.1333056E-013  0.7246156E+02  0.7816164E-02  0.1226708E+00
        -11   -1    0    0    0    0  0.00000000000E+00  0.00000000000E+00  0.45593999997E+02  0.45594000000E+02  0.51100000000E-03 0.  1.
         11   -1    0    0    0    0 -0.00000000000E+00 -0.00000000000E+00 -0.45593999997E+02  0.45594000000E+02  0.51100000000E-03 0. -1.
    9900012    2    1    2    0    0  0.11981612007E+02  0.79896939890E+01  0.11970178382E+02  0.72461563959E+02  0.69999991746E+02 0.  0.
         12    1    1    2    0    0 -0.11981612007E+02 -0.79896939890E+01 -0.11970178382E+02  0.18726436041E+02  0.00000000000E+00 0. -1.
         11    1    3    3    0    0  0.94326403660E+01 -0.17267737996E+02  0.23178886954E+02  0.30404116176E+02  0.51100000000E-03 0.  1.
        -11    1    3    3    0    0 -0.24388337213E+01  0.11041069822E+02 -0.21166994011E+02  0.23997807576E+02  0.51100000000E-03 0. -1.
        -12    1    3    3    0    0  0.49878053622E+01  0.14216362163E+02  0.99582854391E+01  0.18059640206E+02  0.00000000000E+00 0.  1.
</event>
<event>
 7    1  0.1333056E-013  0.7246157E+02  0.7816164E-02  0.1226708E+00
        -11   -1    0    0    0    0  0.00000000000E+00  0.00000000000E+00  0.45593999997E+02  0.45594000000E+02  0.51100000000E-03 0.  1.
         11   -1    0    0    0    0 -0.00000000000E+00 -0.00000000000E+00 -0.45593999997E+02  0.45594000000E+02  0.51100000000E-03 0. -1.
    9900012    2    1    2    0    0  0.18725773995E+02 -0.43897354864E-01  0.14994659778E+00  0.72461574215E+02  0.70000005107E+02 0.  0.
         12    1    1    2    0    0 -0.18725773995E+02  0.43897354864E-01 -0.14994659778E+00  0.18726425785E+02  0.00000000000E+00 0. -1.
         11    1    3    3    0    0  0.33950285097E+02  0.95102858054E+00  0.10802558656E+02  0.35640168172E+02  0.51100000000E-03 0.  1.
        -11    1    3    3    0    0 -0.18137281438E+02 -0.57739464306E+01  0.54293844112E+01  0.19793373908E+02  0.51100000000E-03 0. -1.
        -12    1    3    3    0    0  0.29127703359E+01  0.47790204952E+01 -0.16081996470E+02  0.17028032135E+02  0.00000000000E+00 0.  1.
</event>
<event>
 7    1  0.1333056E-013  0.7246157E+02  0.7816164E-02  0.1226708E+00
        -11   -1    0    0    0    0  0.00000000000E+00  0.00000000000E+00  0.45593999997E+02  0.45594000000E+02  0.51100000000E-03 0.  1.
         11   -1    0    0    0    0 -0.00000000000E+00 -0.00000000000E+00 -0.45593999997E+02  0.45594000000E+02  0.51100000000E-03 0. -1.
    9900012    2    1    2    0    0 -0.56596814759E+01 -0.17846699086E+02  0.37739409022E+00  0.72461572445E+02  0.70000002802E+02 0.  0.
         12    1    1    2    0    0  0.56596814759E+01  0.17846699086E+02 -0.37739409022E+00  0.18726427555E+02  0.00000000000E+00 0. -1.
         11    1    3    3    0    0  0.74697669666E+01  0.96191926426E+01 -0.92897739698E+00  0.12214306566E+02  0.51100000000E-03 0.  1.
        -11    1    3    3    0    0 -0.12273241149E+02 -0.37063152139E+02 -0.14572758833E+02  0.41673432725E+02  0.51100000000E-03 0. -1.
        -12    1    3    3    0    0 -0.85620729324E+00  0.95972604108E+01  0.15879130320E+02  0.18573833154E+02  0.00000000000E+00 0.  1.
</event>
<event>
 7    1  0.1333056E-013  0.7246133E+02  0.7816164E-02  0.1226709E+00
        -11   -1    0    0    0    0  0.00000000000E+00  0.00000000000E+00  0.45593999997E+02  0.45594000000E+02  0.51100000000E-03 0.  1.
         11   -1    0    0    0    0 -0.00000000000E+00 -0.00000000000E+00 -0.45593999997E+02  0.45594000000E+02  0.51100000000E-03 0. -1.
    9900012    2    1    2    0    0  0.84767821931E+01  0.15421881431E+02  0.64029527888E+01  0.72461332714E+02  0.69999690507E+02 0.  0.
         12    1    1    2    0    0 -0.84767821931E+01 -0.15421881431E+02 -0.64029527888E+01  0.18726667286E+02  0.00000000000E+00 0. -1.
         11    1    3    3    0    0  0.17919573690E+02 -0.15608171414E+02 -0.14292577932E+02  0.27730919933E+02  0.51100000000E-03 0. -1.
        -11    1    3    3    0    0 -0.10707010436E+02  0.11705295575E+02 -0.69091335453E+00  0.15878645361E+02  0.51100000000E-03 0.  1.
         12    1    3    3    0    0  0.12642189389E+01  0.19324757270E+02  0.21386444076E+02  0.28851767420E+02  0.00000000000E+00 0. -1.
</event>
<event>
 7    1  0.1333056E-013  0.7246136E+02  0.7816164E-02  0.1226709E+00
        -11   -1    0    0    0    0  0.00000000000E+00  0.00000000000E+00  0.45593999997E+02  0.45594000000E+02  0.51100000000E-03 0. -1.
         11   -1    0    0    0    0 -0.00000000000E+00 -0.00000000000E+00 -0.45593999997E+02  0.45594000000E+02  0.51100000000E-03 0.  1.
    9900012    2    1    2    0    0  0.11889872114E+02  0.10587119573E+02 -0.98605718697E+01  0.72461360223E+02  0.69999726343E+02 0.  0.
         12    1    1    2    0    0 -0.11889872114E+02 -0.10587119573E+02  0.98605718697E+01  0.18726639777E+02  0.00000000000E+00 0. -1.
         11    1    3    3    0    0  0.27549032672E+02 -0.13428805484E+02  0.12476504584E+02  0.33089955950E+02  0.51100000000E-03 0. -1.
        -11    1    3    3    0    0 -0.15594242412E+02  0.10824356022E+02 -0.10761453593E+02  0.21820998221E+02  0.51100000000E-03 0.  1.
         12    1    3    3    0    0 -0.64918146635E-01  0.13191569035E+02 -0.11575622861E+02  0.17550406052E+02  0.00000000000E+00 0. -1.
</event>
<event>
 7    1  0.1333056E-013  0.7246126E+02  0.7816164E-02  0.1226709E+00
        -11   -1    0    0    0    0  0.00000000000E+00  0.00000000000E+00  0.45593999997E+02  0.45594000000E+02  0.51100000000E-03 0.  1.
         11   -1    0    0    0    0 -0.00000000000E+00 -0.00000000000E+00 -0.45593999997E+02  0.45594000000E+02  0.51100000000E-03 0. -1.
    9900012    2    1    2    0    0  0.79079269984E+01 -0.15684268326E+02  0.64930157992E+01  0.72461258786E+02  0.69999594201E+02 0.  0.
         12    1    1    2    0    0 -0.79079269984E+01  0.15684268326E+02 -0.64930157992E+01  0.18726741214E+02  0.00000000000E+00 0. -1.
         11    1    3    3    0    0 -0.14388739835E+02  0.24817423500E+01  0.72242931990E+01  0.16290650436E+02  0.51100000000E-03 0. -1.
        -11    1    3    3    0    0  0.35525764409E+02 -0.38644619581E+01 -0.53897921842E+01  0.36139505574E+02  0.51100000000E-03 0.  1.
        -12    1    3    3    0    0 -0.13229097576E+02 -0.14301548718E+02  0.46585147844E+01  0.20031102776E+02  0.00000000000E+00 0.  1.
</event>
<event>
 7    1  0.1333056E-013  0.7246167E+02  0.7816164E-02  0.1226708E+00
        -11   -1    0    0    0    0  0.00000000000E+00  0.00000000000E+00  0.45593999997E+02  0.45594000000E+02  0.51100000000E-03 0. -1.
         11   -1    0    0    0    0 -0.00000000000E+00 -0.00000000000E+00 -0.45593999997E+02  0.45594000000E+02  0.51100000000E-03 0.  1.
    9900012    2    1    2    0    0  0.11823711919E+02  0.38946795618E+01 -0.13989522352E+02  0.72461670192E+02  0.70000130136E+02 0.  0.
         12    1    1    2    0    0 -0.11823711919E+02 -0.38946795618E+01  0.13989522352E+02  0.18726329808E+02  0.00000000000E+00 0. -1.
         11    1    3    3    0    0  0.65647010001E+01  0.13543138924E+02 -0.22108056486E+02  0.26744683079E+02  0.51100000000E-03 0. -1.
        -11    1    3    3    0    0  0.21223451653E+02 -0.13852879192E+02 -0.34220523821E+01  0.25574354435E+02  0.51100000000E-03 0.  1.
         12    1    3    3    0    0 -0.15964440735E+02  0.42044198299E+01  0.11540586516E+02  0.20142632678E+02  0.00000000000E+00 0. -1.
</event>
<event>
 7    1  0.1333056E-013  0.7246125E+02  0.7816164E-02  0.1226709E+00
        -11   -1    0    0    0    0  0.00000000000E+00  0.00000000000E+00  0.45593999997E+02  0.45594000000E+02  0.51100000000E-03 0. -1.
         11   -1    0    0    0    0 -0.00000000000E+00 -0.00000000000E+00 -0.45593999997E+02  0.45594000000E+02  0.51100000000E-03 0.  1.
    9900012    2    1    2    0    0  0.10328359219E+02  0.15366853512E+02 -0.28064249545E+01  0.72461248759E+02  0.69999581139E+02 0.  0.
         12    1    1    2    0    0 -0.10328359219E+02 -0.15366853512E+02  0.28064249545E+01  0.18726751241E+02  0.00000000000E+00 0. -1.
         11    1    3    3    0    0  0.66710019763E+01 -0.20675849463E+02  0.45198965969E+01  0.22190594491E+02  0.51100000000E-03 0. -1.
        -11    1    3    3    0    0  0.12640342118E+01  0.34696503763E+02  0.72243305288E+01  0.35463165507E+02  0.51100000000E-03 0.  1.
         12    1    3    3    0    0  0.23933230314E+01  0.13461992110E+01 -0.14550652080E+02  0.14807488761E+02  0.00000000000E+00 0. -1.
</event>
<event>
 7    1  0.1333056E-013  0.7246161E+02  0.7816164E-02  0.1226708E+00
        -11   -1    0    0    0    0  0.00000000000E+00  0.00000000000E+00  0.45593999997E+02  0.45594000000E+02  0.51100000000E-03 0. -1.
         11   -1    0    0    0    0 -0.00000000000E+00 -0.00000000000E+00 -0.45593999997E+02  0.45594000000E+02  0.51100000000E-03 0.  1.
    9900012    2    1    2    0    0 -0.18269519928E+02  0.33453208915E+00 -0.40976273541E+01  0.72461606326E+02  0.70000046937E+02 0.  0.
         12    1    1    2    0    0  0.18269519928E+02 -0.33453208915E+00  0.40976273541E+01  0.18726393674E+02  0.00000000000E+00 0. -1.
         11    1    3    3    0    0  0.15431377249E+02  0.95918221841E+01  0.20782973890E+02  0.27605478814E+02  0.51100000000E-03 0. -1.
        -11    1    3    3    0    0 -0.21491851307E+02 -0.11903867963E+02 -0.13925077714E+02  0.28240211307E+02  0.51100000000E-03 0.  1.
        -12    1    3    3    0    0 -0.12209045870E+02  0.26465778683E+01 -0.10955523530E+02  0.16615916204E+02  0.00000000000E+00 0.  1.
</event>
<event>
 7    1  0.1333056E-013  0.7246132E+02  0.7816164E-02  0.1226709E+00
        -11   -1    0    0    0    0  0.00000000000E+00  0.00000000000E+00  0.45593999997E+02  0.45594000000E+02  0.51100000000E-03 0. -1.
         11   -1    0    0    0    0 -0.00000000000E+00 -0.00000000000E+00 -0.45593999997E+02  0.45594000000E+02  0.51100000000E-03 0.  1.
    9900012    2    1    2    0    0 -0.19129386258E+01 -0.87414639613E+01 -0.16450407653E+02  0.72461322817E+02  0.69999677614E+02 0.  0.
         12    1    1    2    0    0  0.19129386258E+01  0.87414639613E+01  0.16450407653E+02  0.18726677183E+02  0.00000000000E+00 0. -1.
         11    1    3    3    0    0 -0.21892798679E+02  0.10445218021E+02  0.37522567861E+01  0.24545399666E+02  0.51100000000E-03 0. -1.
        -11    1    3    3    0    0  0.23000472818E+02 -0.23843518842E+02 -0.73767196749E+01  0.33940405626E+02  0.51100000000E-03 0.  1.
         12    1    3    3    0    0 -0.30206127650E+01  0.46568368591E+01 -0.12825944764E+02  0.13975517525E+02  0.00000000000E+00 0. -1.
</event>
<event>
 7    1  0.1333056E-013  0.7246157E+02  0.7816164E-02  0.1226708E+00
        -11   -1    0    0    0    0  0.00000000000E+00  0.00000000000E+00  0.45593999997E+02  0.45594000000E+02  0.51100000000E-03 0. -1.
         11   -1    0    0    0    0 -0.00000000000E+00 -0.00000000000E+00 -0.45593999997E+02  0.45594000000E+02  0.51100000000E-03 0.  1.
    9900012    2    1    2    0    0 -0.90300742794E+01  0.56875656642E+01 -0.15387935945E+02  0.72461569018E+02  0.69999998338E+02 0.  0.
         12    1    1    2    0    0  0.90300742794E+01 -0.56875656642E+01  0.15387935945E+02  0.18726430982E+02  0.00000000000E+00 0. -1.
         11    1    3    3    0    0 -0.80756958753E+01 -0.15972085163E+02  0.22080489816E+01  0.18033298336E+02  0.51100000000E-03 0.  1.
        -11    1    3    3    0    0  0.16304077606E+01  0.33357825555E+02 -0.31313142663E+00  0.33399113862E+02  0.51100000000E-03 0. -1.
         12    1    3    3    0    0 -0.25847861647E+01 -0.11698174727E+02 -0.17282853500E+02  0.21029156820E+02  0.00000000000E+00 0. -1.
</event>
<event>
 7    1  0.1333056E-013  0.7246139E+02  0.7816164E-02  0.1226708E+00
        -11   -1    0    0    0    0  0.00000000000E+00  0.00000000000E+00  0.45593999997E+02  0.45594000000E+02  0.51100000000E-03 0.  1.
         11   -1    0    0    0    0 -0.00000000000E+00 -0.00000000000E+00 -0.45593999997E+02  0.45594000000E+02  0.51100000000E-03 0. -1.
    9900012    2    1    2    0    0  0.11881344350E+02 -0.14322484991E+02  0.20942751698E+01  0.72461390367E+02  0.69999765610E+02 0.  0.
         12    1    1    2    0    0 -0.11881344350E+02  0.14322484991E+02 -0.20942751698E+01  0.18726609633E+02  0.00000000000E+00 0. -1.
         11    1    3    3    0    0  0.17616411345E+02 -0.22692278608E+01  0.31126091886E+02  0.35837423738E+02  0.51100000000E-03 0. -1.
        -11    1    3    3    0    0 -0.14933043953E+01  0.36403419241E+01 -0.75412087584E+00  0.40063382156E+01  0.51100000000E-03 0.  1.
         12    1    3    3    0    0 -0.42417626003E+01 -0.15693599054E+02 -0.28277695841E+02  0.32617628413E+02  0.00000000000E+00 0. -1.
</event>
<event>
 7    1  0.1333056E-013  0.7246140E+02  0.7816164E-02  0.1226708E+00
        -11   -1    0    0    0    0  0.00000000000E+00  0.00000000000E+00  0.45593999997E+02  0.45594000000E+02  0.51100000000E-03 0.  1.
         11   -1    0    0    0    0 -0.00000000000E+00 -0.00000000000E+00 -0.45593999997E+02  0.45594000000E+02  0.51100000000E-03 0. -1.
    9900012    2    1    2    0    0 -0.29171150572E+01 -0.16032731912E+02 -0.92264466416E+01  0.72461404729E+02  0.69999784320E+02 0.  0.
         12    1    1    2    0    0  0.29171150572E+01  0.16032731912E+02  0.92264466416E+01  0.18726595271E+02  0.00000000000E+00 0. -1.
         11    1    3    3    0    0  0.38300911782E+01 -0.29410682794E+02 -0.40099268736E+01  0.29928871923E+02  0.51100000000E-03 0. -1.
        -11    1    3    3    0    0 -0.21997428750E+02  0.13719395461E+02  0.12710787147E+01  0.25956200123E+02  0.51100000000E-03 0.  1.
         12    1    3    3    0    0  0.15250222515E+02 -0.34144457930E+00 -0.64875984827E+01  0.16576332683E+02  0.00000000000E+00 0. -1.
</event>
<event>
 7    1  0.1333056E-013  0.7246184E+02  0.7816164E-02  0.1226707E+00
        -11   -1    0    0    0    0  0.00000000000E+00  0.00000000000E+00  0.45593999997E+02  0.45594000000E+02  0.51100000000E-03 0.  1.
         11   -1    0    0    0    0 -0.00000000000E+00 -0.00000000000E+00 -0.45593999997E+02  0.45594000000E+02  0.51100000000E-03 0. -1.
    9900012    2    1    2    0    0 -0.87237416671E+01  0.16569732531E+02 -0.97318060685E-01  0.72461837135E+02  0.70000347609E+02 0.  0.
         12    1    1    2    0    0  0.87237416671E+01 -0.16569732531E+02  0.97318060685E-01  0.18726162865E+02  0.00000000000E+00 0. -1.
         11    1    3    3    0    0 -0.23212205114E+02  0.65979979092E+01 -0.25415639112E+02  0.35047036314E+02  0.51100000000E-03 0. -1.
        -11    1    3    3    0    0  0.15931375798E+02  0.11013975287E+02  0.96374580267E+01  0.21633237943E+02  0.51100000000E-03 0.  1.
        -12    1    3    3    0    0 -0.14429123505E+01 -0.10422406645E+01  0.15680863025E+02  0.15781562878E+02  0.00000000000E+00 0.  1.
</event>
<event>
 7    1  0.1333056E-013  0.7246158E+02  0.7816164E-02  0.1226708E+00
        -11   -1    0    0    0    0  0.00000000000E+00  0.00000000000E+00  0.45593999997E+02  0.45594000000E+02  0.51100000000E-03 0. -1.
         11   -1    0    0    0    0 -0.00000000000E+00 -0.00000000000E+00 -0.45593999997E+02  0.45594000000E+02  0.51100000000E-03 0.  1.
    9900012    2    1    2    0    0 -0.16335447855E+02 -0.78629244979E+01  0.46911079664E+01  0.72461576630E+02  0.70000008253E+02 0.  0.
         12    1    1    2    0    0  0.16335447855E+02  0.78629244979E+01 -0.46911079664E+01  0.18726423370E+02  0.00000000000E+00 0. -1.
         11    1    3    3    0    0 -0.16603017014E+02  0.18482385995E+02  0.14403498045E+02  0.28717930327E+02  0.51100000000E-03 0. -1.
        -11    1    3    3    0    0 -0.14189042432E+02 -0.16344382262E+02 -0.13834895839E+02  0.25687975783E+02  0.51100000000E-03 0.  1.
        -12    1    3    3    0    0  0.14456611592E+02 -0.10000928231E+02  0.41225057609E+01  0.18055670521E+02  0.00000000000E+00 0.  1.
</event>
<event>
 7    1  0.1333056E-013  0.7246159E+02  0.7816164E-02  0.1226708E+00
        -11   -1    0    0    0    0  0.00000000000E+00  0.00000000000E+00  0.45593999997E+02  0.45594000000E+02  0.51100000000E-03 0.  1.
         11   -1    0    0    0    0 -0.00000000000E+00 -0.00000000000E+00 -0.45593999997E+02  0.45594000000E+02  0.51100000000E-03 0. -1.
    9900012    2    1    2    0    0 -0.10383315823E+02 -0.15582369768E+02  0.23469079265E+00  0.72461586172E+02  0.70000020684E+02 0.  0.
         12    1    1    2    0    0  0.10383315823E+02  0.15582369768E+02 -0.23469079265E+00  0.18726413828E+02  0.00000000000E+00 0. -1.
         11    1    3    3    0    0 -0.17477600480E+02 -0.25434212713E+02  0.18694561480E+01  0.30916994702E+02  0.51100000000E-03 0. -1.
        -11    1    3    3    0    0 -0.91260953189E+01  0.11283283409E+02 -0.14708326415E+02  0.20662356266E+02  0.51100000000E-03 0.  1.
         12    1    3    3    0    0  0.16220379976E+02 -0.14314404636E+01  0.13073561060E+02  0.20882235204E+02  0.00000000000E+00 0. -1.
</event>
<event>
 7    1  0.1333056E-013  0.7246154E+02  0.7816164E-02  0.1226708E+00
        -11   -1    0    0    0    0  0.00000000000E+00  0.00000000000E+00  0.45593999997E+02  0.45594000000E+02  0.51100000000E-03 0. -1.
         11   -1    0    0    0    0 -0.00000000000E+00 -0.00000000000E+00 -0.45593999997E+02  0.45594000000E+02  0.51100000000E-03 0.  1.
    9900012    2    1    2    0    0  0.15595144953E+00 -0.14877573589E+02 -0.11371623198E+02  0.72461539285E+02  0.69999959604E+02 0.  0.
         12    1    1    2    0    0 -0.15595144953E+00  0.14877573589E+02  0.11371623198E+02  0.18726460715E+02  0.00000000000E+00 0. -1.
         11    1    3    3    0    0 -0.20356996854E+01 -0.41085532407E+01  0.66113441334E+01  0.80457538151E+01  0.51100000000E-03 0. -1.
        -11    1    3    3    0    0  0.26983329306E+02 -0.12503564258E+02 -0.24714026111E+02  0.38668103993E+02  0.51100000000E-03 0.  1.
        -12    1    3    3    0    0 -0.24791678171E+02  0.17345439090E+01  0.67310587792E+01  0.25747681476E+02  0.00000000000E+00 0.  1.
</event>
<event>
 7    1  0.1333056E-013  0.7246160E+02  0.7816164E-02  0.1226708E+00
        -11   -1    0    0    0    0  0.00000000000E+00  0.00000000000E+00  0.45593999997E+02  0.45594000000E+02  0.51100000000E-03 0.  1.
         11   -1    0    0    0    0 -0.00000000000E+00 -0.00000000000E+00 -0.45593999997E+02  0.45594000000E+02  0.51100000000E-03 0. -1.
    9900012    2    1    2    0    0 -0.10778983794E+02  0.73393030627E+01  0.13439728350E+02  0.72461597270E+02  0.70000035141E+02 0.  0.
         12    1    1    2    0    0  0.10778983794E+02 -0.73393030627E+01 -0.13439728350E+02  0.18726402730E+02  0.00000000000E+00 0. -1.
         11    1    3    3    0    0  0.32736104996E+01  0.48530854205E+01 -0.50943521501E+01  0.77602440613E+01  0.51100000000E-03 0. -1.
        -11    1    3    3    0    0 -0.28397171734E+02 -0.18245570095E+02  0.59329754063E+00  0.33758735059E+02  0.51100000000E-03 0.  1.
        -12    1    3    3    0    0  0.14344577440E+02  0.20731787737E+02  0.17940782960E+02  0.30942618149E+02  0.00000000000E+00 0.  1.
</event>
<event>
 7    1  0.1333056E-013  0.7246159E+02  0.7816164E-02  0.1226708E+00
        -11   -1    0    0    0    0  0.00000000000E+00  0.00000000000E+00  0.45593999997E+02  0.45594000000E+02  0.51100000000E-03 0.  1.
         11   -1    0    0    0    0 -0.00000000000E+00 -0.00000000000E+00 -0.45593999997E+02  0.45594000000E+02  0.51100000000E-03 0. -1.
    9900012    2    1    2    0    0 -0.93221010953E+01  0.15654238473E+02 -0.43268430642E+01  0.72461592926E+02  0.70000029482E+02 0.  0.
         12    1    1    2    0    0  0.93221010953E+01 -0.15654238473E+02  0.43268430642E+01  0.18726407074E+02  0.00000000000E+00 0. -1.
         11    1    3    3    0    0 -0.19906896487E+02 -0.88473517158E+01 -0.26966163005E+01  0.21950669691E+02  0.51100000000E-03 0. -1.
        -11    1    3    3    0    0  0.67895252476E+01  0.23403219360E+02  0.18121630807E+02  0.30367776225E+02  0.51100000000E-03 0.  1.
        -12    1    3    3    0    0  0.37952701445E+01  0.10983708290E+01 -0.19751857571E+02  0.20143147009E+02  0.00000000000E+00 0.  1.
</event>
<event>
 7    1  0.1333056E-013  0.7246154E+02  0.7816164E-02  0.1226708E+00
        -11   -1    0    0    0    0  0.00000000000E+00  0.00000000000E+00  0.45593999997E+02  0.45594000000E+02  0.51100000000E-03 0. -1.
         11   -1    0    0    0    0 -0.00000000000E+00 -0.00000000000E+00 -0.45593999997E+02  0.45594000000E+02  0.51100000000E-03 0.  1.
    9900012    2    1    2    0    0  0.15762694861E+02  0.10000578162E+02 -0.14852799563E+01  0.72461543597E+02  0.69999965221E+02 0.  0.
         12    1    1    2    0    0 -0.15762694861E+02 -0.10000578162E+02  0.14852799563E+01  0.18726456403E+02  0.00000000000E+00 0. -1.
         11    1    3    3    0    0  0.23530520872E+01  0.21298019739E+02  0.89880252045E+01  0.23236331386E+02  0.51100000000E-03 0. -1.
        -11    1    3    3    0    0  0.17307706330E+02 -0.16879610222E+02 -0.24009936849E+02  0.34072789839E+02  0.51100000000E-03 0.  1.
        -12    1    3    3    0    0 -0.38980635554E+01  0.55821686456E+01  0.13536631688E+02  0.15152422372E+02  0.00000000000E+00 0.  1.
</event>
<event>
 7    1  0.1333056E-013  0.7246169E+02  0.7816164E-02  0.1226708E+00
        -11   -1    0    0    0    0  0.00000000000E+00  0.00000000000E+00  0.45593999997E+02  0.45594000000E+02  0.51100000000E-03 0. -1.
         11   -1    0    0    0    0 -0.00000000000E+00 -0.00000000000E+00 -0.45593999997E+02  0.45594000000E+02  0.51100000000E-03 0.  1.
    9900012    2    1    2    0    0 -0.85595368833E+01  0.12754826777E+02 -0.10710896846E+02  0.72461692596E+02  0.70000159320E+02 0.  0.
         12    1    1    2    0    0  0.85595368833E+01 -0.12754826777E+02  0.10710896846E+02  0.18726307404E+02  0.00000000000E+00 0. -1.
         11    1    3    3    0    0  0.20273053242E+02  0.13161413227E+02 -0.17163248489E+02  0.29644503451E+02  0.51100000000E-03 0. -1.
        -11    1    3    3    0    0 -0.15316559266E+02  0.80240831148E+01  0.16567579635E+02  0.23947183400E+02  0.51100000000E-03 0.  1.
        -12    1    3    3    0    0 -0.13516030860E+02 -0.84306695647E+01 -0.10115227991E+02  0.18870005745E+02  0.00000000000E+00 0.  1.
</event>
<event>
 7    1  0.1333056E-013  0.7246159E+02  0.7816164E-02  0.1226708E+00
        -11   -1    0    0    0    0  0.00000000000E+00  0.00000000000E+00  0.45593999997E+02  0.45594000000E+02  0.51100000000E-03 0. -1.
         11   -1    0    0    0    0 -0.00000000000E+00 -0.00000000000E+00 -0.45593999997E+02  0.45594000000E+02  0.51100000000E-03 0.  1.
    9900012    2    1    2    0    0 -0.13378151691E+02 -0.32672495848E+01 -0.12689702446E+02  0.72461590556E+02  0.70000026394E+02 0.  0.
         12    1    1    2    0    0  0.13378151691E+02  0.32672495848E+01  0.12689702446E+02  0.18726409444E+02  0.00000000000E+00 0. -1.
         11    1    3    3    0    0 -0.13422970017E+02  0.13045916796E+02  0.24651480096E+02  0.30952666126E+02  0.51100000000E-03 0. -1.
        -11    1    3    3    0    0 -0.33231867685E+01 -0.34955755682E+01 -0.86199344592E+01  0.98775446946E+01  0.51100000000E-03 0.  1.
         12    1    3    3    0    0  0.33680050951E+01 -0.12817590812E+02 -0.28721248082E+02  0.31631379735E+02  0.00000000000E+00 0. -1.
</event>
<event>
 7    1  0.1333056E-013  0.7246156E+02  0.7816164E-02  0.1226708E+00
        -11   -1    0    0    0    0  0.00000000000E+00  0.00000000000E+00  0.45593999997E+02  0.45594000000E+02  0.51100000000E-03 0.  1.
         11   -1    0    0    0    0 -0.00000000000E+00 -0.00000000000E+00 -0.45593999997E+02  0.45594000000E+02  0.51100000000E-03 0. -1.
    9900012    2    1    2    0    0 -0.16160477514E+02 -0.94585809850E+01 -0.23197948960E+00  0.72461558741E+02  0.69999984950E+02 0.  0.
         12    1    1    2    0    0  0.16160477514E+02  0.94585809850E+01  0.23197948960E+00  0.18726441259E+02  0.00000000000E+00 0. -1.
         11    1    3    3    0    0 -0.31565371577E+01 -0.18066879052E+02 -0.25346092436E+02  0.31285783473E+02  0.51100000000E-03 0. -1.
        -11    1    3    3    0    0  0.56687442773E+01 -0.64874292371E+01  0.63671217384E+01  0.10712685904E+02  0.51100000000E-03 0.  1.
         12    1    3    3    0    0 -0.18672684634E+02  0.15095727304E+02  0.18746991208E+02  0.30463089364E+02  0.00000000000E+00 0. -1.
</event>
<event>
 7    1  0.1333056E-013  0.7246154E+02  0.7816164E-02  0.1226708E+00
        -11   -1    0    0    0    0  0.00000000000E+00  0.00000000000E+00  0.45593999997E+02  0.45594000000E+02  0.51100000000E-03 0. -1.
         11   -1    0    0    0    0 -0.00000000000E+00 -0.00000000000E+00 -0.45593999997E+02  0.45594000000E+02  0.51100000000E-03 0.  1.
    9900012    2    1    2    0    0 -0.67152743384E+01 -0.12460272759E+02  0.12260792535E+02  0.72461539036E+02  0.69999959280E+02 0.  0.
         12    1    1    2    0    0  0.67152743384E+01  0.12460272759E+02 -0.12260792535E+02  0.18726460964E+02  0.00000000000E+00 0. -1.
         11    1    3    3    0    0  0.15612092238E+00  0.89863247616E+00  0.24552216431E+02  0.24569152325E+02  0.51100000000E-03 0. -1.
        -11    1    3    3    0    0 -0.10609533816E+02  0.92451849170E+01 -0.19343209579E+02  0.23920606368E+02  0.51100000000E-03 0.  1.
         12    1    3    3    0    0  0.37381385553E+01 -0.22604090152E+02  0.70517856835E+01  0.23971780342E+02  0.00000000000E+00 0. -1.
</event>
<event>
 7    1  0.1333056E-013  0.7246153E+02  0.7816164E-02  0.1226708E+00
        -11   -1    0    0    0    0  0.00000000000E+00  0.00000000000E+00  0.45593999997E+02  0.45594000000E+02  0.51100000000E-03 0. -1.
         11   -1    0    0    0    0 -0.00000000000E+00 -0.00000000000E+00 -0.45593999997E+02  0.45594000000E+02  0.51100000000E-03 0.  1.
    9900012    2    1    2    0    0  0.10621385234E+02  0.15322726580E+02 -0.17552562354E+01  0.72461529468E+02  0.69999946816E+02 0.  0.
         12    1    1    2    0    0 -0.10621385234E+02 -0.15322726580E+02  0.17552562354E+01  0.18726470532E+02  0.00000000000E+00 0. -1.
         11    1    3    3    0    0  0.25354138430E+02 -0.18520788600E+01 -0.12546474158E+02  0.28349189507E+02  0.51100000000E-03 0. -1.
        -11    1    3    3    0    0 -0.15274645982E+02  0.27973399648E+02  0.68170915290E+01  0.32592923081E+02  0.51100000000E-03 0.  1.
         12    1    3    3    0    0  0.54189278590E+00 -0.10798594208E+02  0.39741263939E+01  0.11519416880E+02  0.00000000000E+00 0. -1.
</event>
<event>
 7    1  0.1333056E-013  0.7246157E+02  0.7816164E-02  0.1226708E+00
        -11   -1    0    0    0    0  0.00000000000E+00  0.00000000000E+00  0.45593999997E+02  0.45594000000E+02  0.51100000000E-03 0. -1.
         11   -1    0    0    0    0 -0.00000000000E+00 -0.00000000000E+00 -0.45593999997E+02  0.45594000000E+02  0.51100000000E-03 0.  1.
    9900012    2    1    2    0    0  0.14776865996E+02 -0.74153028913E+01 -0.87941259900E+01  0.72461571148E+02  0.70000001112E+02 0.  0.
         12    1    1    2    0    0 -0.14776865996E+02  0.74153028913E+01  0.87941259900E+01  0.18726428852E+02  0.00000000000E+00 0. -1.
         11    1    3    3    0    0  0.25301114615E+02  0.99589049920E+01 -0.12251941443E+01  0.27218142669E+02  0.51100000000E-03 0. -1.
        -11    1    3    3    0    0 -0.54774228200E+01 -0.17862097516E+02 -0.22633506824E+02  0.29348463671E+02  0.51100000000E-03 0.  1.
         12    1    3    3    0    0 -0.50468257998E+01  0.48788963271E+00  0.15064574979E+02  0.15894964808E+02  0.00000000000E+00 0. -1.
</event>
<event>
 7    1  0.1333056E-013  0.7246152E+02  0.7816164E-02  0.1226708E+00
        -11   -1    0    0    0    0  0.00000000000E+00  0.00000000000E+00  0.45593999997E+02  0.45594000000E+02  0.51100000000E-03 0. -1.
         11   -1    0    0    0    0 -0.00000000000E+00 -0.00000000000E+00 -0.45593999997E+02  0.45594000000E+02  0.51100000000E-03 0.  1.
    9900012    2    1    2    0    0 -0.13288367691E+02 -0.13192526177E+02  0.24026278154E+00  0.72461516373E+02  0.69999929758E+02 0.  0.
         12    1    1    2    0    0  0.13288367691E+02  0.13192526177E+02 -0.24026278154E+00  0.18726483627E+02  0.00000000000E+00 0. -1.
         11    1    3    3    0    0  0.18529064278E+02  0.37175289708E+01  0.35102642298E+01  0.19221555605E+02  0.51100000000E-03 0. -1.
        -11    1    3    3    0    0 -0.14898720751E+02 -0.25855995697E+02  0.81747257733E+01  0.30940758479E+02  0.51100000000E-03 0.  1.
         12    1    3    3    0    0 -0.16918711217E+02  0.89459405488E+01 -0.11444727222E+02  0.22299202289E+02  0.00000000000E+00 0. -1.
</event>
<event>
 7    1  0.1333056E-013  0.7246150E+02  0.7816164E-02  0.1226708E+00
        -11   -1    0    0    0    0  0.00000000000E+00  0.00000000000E+00  0.45593999997E+02  0.45594000000E+02  0.51100000000E-03 0. -1.
         11   -1    0    0    0    0 -0.00000000000E+00 -0.00000000000E+00 -0.45593999997E+02  0.45594000000E+02  0.51100000000E-03 0.  1.
    9900012    2    1    2    0    0 -0.11035237576E+02  0.12319922636E+02 -0.87820810304E+01  0.72461497140E+02  0.69999904703E+02 0.  0.
         12    1    1    2    0    0  0.11035237576E+02 -0.12319922636E+02  0.87820810304E+01  0.18726502860E+02  0.00000000000E+00 0. -1.
         11    1    3    3    0    0 -0.43232989867E+01  0.15951405975E+01  0.10887617351E+00  0.46094730649E+01  0.51100000000E-03 0. -1.
        -11    1    3    3    0    0 -0.62989481141E+00  0.32307998827E+02 -0.24481773354E+02  0.40540853253E+02  0.51100000000E-03 0.  1.
        -12    1    3    3    0    0 -0.60820437783E+01 -0.21583216788E+02  0.15590816150E+02  0.27311170822E+02  0.00000000000E+00 0.  1.
</event>
<event>
 7    1  0.1333056E-013  0.7246149E+02  0.7816164E-02  0.1226708E+00
        -11   -1    0    0    0    0  0.00000000000E+00  0.00000000000E+00  0.45593999997E+02  0.45594000000E+02  0.51100000000E-03 0.  1.
         11   -1    0    0    0    0 -0.00000000000E+00 -0.00000000000E+00 -0.45593999997E+02  0.45594000000E+02  0.51100000000E-03 0. -1.
    9900012    2    1    2    0    0 -0.77765742570E+00  0.39429969134E+00  0.18706200964E+02  0.72461489972E+02  0.69999895365E+02 0.  0.
         12    1    1    2    0    0  0.77765742570E+00 -0.39429969134E+00 -0.18706200964E+02  0.18726510028E+02  0.00000000000E+00 0. -1.
         11    1    3    3    0    0 -0.15619185223E+02  0.15690637451E+02  0.23235161049E+02  0.32094045551E+02  0.51100000000E-03 0. -1.
        -11    1    3    3    0    0  0.13438376946E+02 -0.25983394999E+02 -0.21673509463E+01  0.29332988273E+02  0.51100000000E-03 0.  1.
         12    1    3    3    0    0  0.14031508509E+01  0.10687057239E+02 -0.23616091378E+01  0.11034456147E+02  0.00000000000E+00 0. -1.
</event>
<event>
 7    1  0.1333056E-013  0.7246148E+02  0.7816164E-02  0.1226708E+00
        -11   -1    0    0    0    0  0.00000000000E+00  0.00000000000E+00  0.45593999997E+02  0.45594000000E+02  0.51100000000E-03 0.  1.
         11   -1    0    0    0    0 -0.00000000000E+00 -0.00000000000E+00 -0.45593999997E+02  0.45594000000E+02  0.51100000000E-03 0. -1.
    9900012    2    1    2    0    0  0.85680892846E+01  0.52977616178E+01  0.15786201719E+02  0.72461478784E+02  0.69999880790E+02 0.  0.
         12    1    1    2    0    0 -0.85680892846E+01 -0.52977616178E+01 -0.15786201719E+02  0.18726521216E+02  0.00000000000E+00 0. -1.
         11    1    3    3    0    0  0.15952126543E+02  0.82643534501E+01 -0.15928255174E+02  0.24009981098E+02  0.51100000000E-03 0. -1.
        -11    1    3    3    0    0 -0.18886916985E+02  0.81992727962E+01  0.18359975821E+02  0.27586816054E+02  0.51100000000E-03 0.  1.
         12    1    3    3    0    0  0.11502879726E+02 -0.11165864628E+02  0.13354481071E+02  0.20864681632E+02  0.00000000000E+00 0. -1.
</event>
<event>
 7    1  0.1333056E-013  0.7246115E+02  0.7816164E-02  0.1226709E+00
        -11   -1    0    0    0    0  0.00000000000E+00  0.00000000000E+00  0.45593999997E+02  0.45594000000E+02  0.51100000000E-03 0.  1.
         11   -1    0    0    0    0 -0.00000000000E+00 -0.00000000000E+00 -0.45593999997E+02  0.45594000000E+02  0.51100000000E-03 0. -1.
    9900012    2    1    2    0    0  0.56745088882E+01  0.84222750882E+01  0.15734040936E+02  0.72461152616E+02  0.69999455894E+02 0.  0.
         12    1    1    2    0    0 -0.56745088882E+01 -0.84222750882E+01 -0.15734040936E+02  0.18726847384E+02  0.00000000000E+00 0. -1.
         11    1    3    3    0    0  0.24769951909E+02  0.11549610609E+02  0.19115127012E+02  0.33351643194E+02  0.51100000000E-03 0. -1.
        -11    1    3    3    0    0 -0.46668197872E+01 -0.77603052321E+01  0.13606833571E+02  0.16344646350E+02  0.51100000000E-03 0.  1.
         12    1    3    3    0    0 -0.14428623233E+02  0.46329697111E+01 -0.16987919647E+02  0.22764863072E+02  0.00000000000E+00 0. -1.
</event>
<event>
 7    1  0.1333056E-013  0.7246156E+02  0.7816164E-02  0.1226708E+00
        -11   -1    0    0    0    0  0.00000000000E+00  0.00000000000E+00  0.45593999997E+02  0.45594000000E+02  0.51100000000E-03 0.  1.
         11   -1    0    0    0    0 -0.00000000000E+00 -0.00000000000E+00 -0.45593999997E+02  0.45594000000E+02  0.51100000000E-03 0. -1.
    9900012    2    1    2    0    0 -0.13494294168E+02 -0.12967146217E+02 -0.66093421493E+00  0.72461556394E+02  0.69999981892E+02 0.  0.
         12    1    1    2    0    0  0.13494294168E+02  0.12967146217E+02  0.66093421493E+00  0.18726443606E+02  0.00000000000E+00 0. -1.
         11    1    3    3    0    0 -0.12638017699E+02 -0.36609275033E+02  0.67284146848E+01  0.39309414575E+02  0.51100000000E-03 0.  1.
        -11    1    3    3    0    0  0.56981458445E+01  0.17250772913E+02 -0.13067929882E+02  0.22379205165E+02  0.51100000000E-03 0. -1.
        -12    1    3    3    0    0 -0.65544223137E+01  0.63913559038E+01  0.56785809827E+01  0.10772936653E+02  0.00000000000E+00 0.  1.
</event>
<event>
 7    1  0.1333056E-013  0.7246160E+02  0.7816164E-02  0.1226708E+00
        -11   -1    0    0    0    0  0.00000000000E+00  0.00000000000E+00  0.45593999997E+02  0.45594000000E+02  0.51100000000E-03 0.  1.
         11   -1    0    0    0    0 -0.00000000000E+00 -0.00000000000E+00 -0.45593999997E+02  0.45594000000E+02  0.51100000000E-03 0. -1.
    9900012    2    1    2    0    0 -0.12178364371E+02  0.37497036947E+01  0.13722431509E+02  0.72461602507E+02  0.70000041963E+02 0.  0.
         12    1    1    2    0    0  0.12178364371E+02 -0.37497036947E+01 -0.13722431509E+02  0.18726397493E+02  0.00000000000E+00 0. -1.
         11    1    3    3    0    0 -0.14323516269E+02 -0.17717561579E+01  0.12642840763E+01  0.14487948532E+02  0.51100000000E-03 0. -1.
        -11    1    3    3    0    0  0.15947510102E+02  0.25973603311E+02  0.13371789970E+02  0.33282967335E+02  0.51100000000E-03 0.  1.
        -12    1    3    3    0    0 -0.13802358204E+02 -0.20452143458E+02 -0.91364253755E+00  0.24690686639E+02  0.00000000000E+00 0.  1.
</event>
<event>
 7    1  0.1333056E-013  0.7246148E+02  0.7816164E-02  0.1226708E+00
        -11   -1    0    0    0    0  0.00000000000E+00  0.00000000000E+00  0.45593999997E+02  0.45594000000E+02  0.51100000000E-03 0.  1.
         11   -1    0    0    0    0 -0.00000000000E+00 -0.00000000000E+00 -0.45593999997E+02  0.45594000000E+02  0.51100000000E-03 0. -1.
    9900012    2    1    2    0    0 -0.98722109646E+01  0.11890070160E+02 -0.10575835587E+02  0.72461478270E+02  0.69999880121E+02 0.  0.
         12    1    1    2    0    0  0.98722109646E+01 -0.11890070160E+02  0.10575835587E+02  0.18726521730E+02  0.00000000000E+00 0. -1.
         11    1    3    3    0    0  0.19081981133E+02  0.81160905898E+01  0.33819278242E+01  0.21010244322E+02  0.51100000000E-03 0. -1.
        -11    1    3    3    0    0 -0.29786474699E+02  0.17575524419E+02 -0.14756213604E+02  0.37601582065E+02  0.51100000000E-03 0.  1.
        -12    1    3    3    0    0  0.83228260182E+00 -0.13801544849E+02  0.79845019227E+00  0.13849651882E+02  0.00000000000E+00 0.  1.
</event>
<event>
 7    1  0.1333056E-013  0.7246164E+02  0.7816164E-02  0.1226708E+00
        -11   -1    0    0    0    0  0.00000000000E+00  0.00000000000E+00  0.45593999997E+02  0.45594000000E+02  0.51100000000E-03 0.  1.
         11   -1    0    0    0    0 -0.00000000000E+00 -0.00000000000E+00 -0.45593999997E+02  0.45594000000E+02  0.51100000000E-03 0. -1.
    9900012    2    1    2    0    0 -0.15433875040E+01  0.15466490661E+02  0.10444237629E+02  0.72461642158E+02  0.70000093616E+02 0.  0.
         12    1    1    2    0    0  0.15433875040E+01 -0.15466490661E+02 -0.10444237629E+02  0.18726357842E+02  0.00000000000E+00 0. -1.
         11    1    3    3    0    0  0.16957792999E+02  0.29809747411E+02 -0.63692693090E+01  0.34882020811E+02  0.51100000000E-03 0. -1.
        -11    1    3    3    0    0  0.51557492004E+01 -0.67053725586E+01  0.64926569804E+01  0.10662943585E+02  0.51100000000E-03 0.  1.
         12    1    3    3    0    0 -0.23656929704E+02 -0.76378841910E+01  0.10320849957E+02  0.26916677762E+02  0.00000000000E+00 0. -1.
</event>
<event>
 7    1  0.1333056E-013  0.7246158E+02  0.7816164E-02  0.1226708E+00
        -11   -1    0    0    0    0  0.00000000000E+00  0.00000000000E+00  0.45593999997E+02  0.45594000000E+02  0.51100000000E-03 0.  1.
         11   -1    0    0    0    0 -0.00000000000E+00 -0.00000000000E+00 -0.45593999997E+02  0.45594000000E+02  0.51100000000E-03 0. -1.
    9900012    2    1    2    0    0  0.63237199992E+01  0.17275528535E+02  0.34993607338E+01  0.72461578923E+02  0.70000011241E+02 0.  0.
         12    1    1    2    0    0 -0.63237199992E+01 -0.17275528535E+02 -0.34993607338E+01  0.18726421077E+02  0.00000000000E+00 0. -1.
         11    1    3    3    0    0 -0.51684529145E+01  0.20600360223E+02  0.21893236480E+02  0.30502484336E+02  0.51100000000E-03 0.  1.
        -11    1    3    3    0    0  0.17373714035E+02  0.84914561797E+01 -0.20954483321E+02  0.28513876252E+02  0.51100000000E-03 0. -1.
        -12    1    3    3    0    0 -0.58815411211E+01 -0.11816287868E+02  0.25606075750E+01  0.13445218335E+02  0.00000000000E+00 0.  1.
</event>
<event>
 7    1  0.1333056E-013  0.7246150E+02  0.7816164E-02  0.1226708E+00
        -11   -1    0    0    0    0  0.00000000000E+00  0.00000000000E+00  0.45593999997E+02  0.45594000000E+02  0.51100000000E-03 0.  1.
         11   -1    0    0    0    0 -0.00000000000E+00 -0.00000000000E+00 -0.45593999997E+02  0.45594000000E+02  0.51100000000E-03 0. -1.
    9900012    2    1    2    0    0 -0.69012151790E+01  0.55199204445E+01  0.16510162024E+02  0.72461501589E+02  0.69999910499E+02 0.  0.
         12    1    1    2    0    0  0.69012151790E+01 -0.55199204445E+01 -0.16510162024E+02  0.18726498411E+02  0.00000000000E+00 0. -1.
         11    1    3    3    0    0  0.95942944224E+01 -0.17508840706E+02 -0.50379347320E+01  0.20591036276E+02  0.51100000000E-03 0. -1.
        -11    1    3    3    0    0  0.10992061384E+01  0.28656792132E+02  0.14036605546E+02  0.31928768923E+02  0.51100000000E-03 0.  1.
         12    1    3    3    0    0 -0.17594715740E+02 -0.56280309820E+01  0.75114912100E+01  0.19941696390E+02  0.00000000000E+00 0. -1.
</event>
<event>
 7    1  0.1333056E-013  0.7246167E+02  0.7816164E-02  0.1226708E+00
        -11   -1    0    0    0    0  0.00000000000E+00  0.00000000000E+00  0.45593999997E+02  0.45594000000E+02  0.51100000000E-03 0.  1.
         11   -1    0    0    0    0 -0.00000000000E+00 -0.00000000000E+00 -0.45593999997E+02  0.45594000000E+02  0.51100000000E-03 0. -1.
    9900012    2    1    2    0    0  0.41270580446E+01  0.34268464720E+01  0.17941556085E+02  0.72461673089E+02  0.70000133909E+02 0.  0.
         12    1    1    2    0    0 -0.41270580446E+01 -0.34268464720E+01 -0.17941556085E+02  0.18726326911E+02  0.00000000000E+00 0. -1.
         11    1    3    3    0    0 -0.62509905092E+01 -0.41074819015E+01 -0.78902005334E+01  0.10872053837E+02  0.51100000000E-03 0. -1.
        -11    1    3    3    0    0  0.24765549279E+02  0.23298220507E+02  0.20068494698E+02  0.39482704943E+02  0.51100000000E-03 0.  1.
        -12    1    3    3    0    0 -0.14387500725E+02 -0.15763892134E+02  0.57632619200E+01  0.22106914309E+02  0.00000000000E+00 0.  1.
</event>
<event>
 7    1  0.1914339E-013  0.7246157E+02  0.7816164E-02  0.1226708E+00
        -11   -1    0    0    0    0  0.00000000000E+00  0.00000000000E+00  0.45593999997E+02  0.45594000000E+02  0.51100000000E-03 0. -1.
         11   -1    0    0    0    0 -0.00000000000E+00 -0.00000000000E+00 -0.45593999997E+02  0.45594000000E+02  0.51100000000E-03 0.  1.
    9900012    2    1    2    0    0  0.92487330584E+01  0.10230929253E+01 -0.16250956406E+02  0.72461565037E+02  0.69999993151E+02 0.  0.
         12    1    1    2    0    0 -0.92487330584E+01 -0.10230929253E+01  0.16250956406E+02  0.18726434963E+02  0.00000000000E+00 0. -1.
         11    1    3    3    0    0 -0.10415112135E+02 -0.15466675043E+02  0.12747812215E+02  0.22587592041E+02  0.51100000000E-03 0. -1.
        -11    1    3    3    0    0 -0.54197759207E+01  0.86090128402E+01 -0.19360660758E+02  0.21870625468E+02  0.51100000000E-03 0.  1.
        -12    1    3    3    0    0  0.25083621114E+02  0.78807551282E+01 -0.96381078633E+01  0.28003347528E+02  0.00000000000E+00 0.  1.
</event>
<event>
 7    1  0.1333056E-013  0.7246159E+02  0.7816164E-02  0.1226708E+00
        -11   -1    0    0    0    0  0.00000000000E+00  0.00000000000E+00  0.45593999997E+02  0.45594000000E+02  0.51100000000E-03 0.  1.
         11   -1    0    0    0    0 -0.00000000000E+00 -0.00000000000E+00 -0.45593999997E+02  0.45594000000E+02  0.51100000000E-03 0. -1.
    9900012    2    1    2    0    0 -0.13424726757E+01  0.18654733927E+02  0.93646300116E+00  0.72461593678E+02  0.70000030462E+02 0.  0.
         12    1    1    2    0    0  0.13424726757E+01 -0.18654733927E+02 -0.93646300116E+00  0.18726406322E+02  0.00000000000E+00 0. -1.
         11    1    3    3    0    0  0.22547321774E+02 -0.63688931494E+01  0.15462498451E+02  0.28071932206E+02  0.51100000000E-03 0. -1.
        -11    1    3    3    0    0 -0.68911278178E+01  0.77878178665E+01  0.65522424687E+01  0.12291038660E+02  0.51100000000E-03 0.  1.
         12    1    3    3    0    0 -0.16998666632E+02  0.17235809210E+02 -0.21078277919E+02  0.32098622812E+02  0.00000000000E+00 0. -1.
</event>
<event>
 7    1  0.1333056E-013  0.7246167E+02  0.7816164E-02  0.1226708E+00
        -11   -1    0    0    0    0  0.00000000000E+00  0.00000000000E+00  0.45593999997E+02  0.45594000000E+02  0.51100000000E-03 0.  1.
         11   -1    0    0    0    0 -0.00000000000E+00 -0.00000000000E+00 -0.45593999997E+02  0.45594000000E+02  0.51100000000E-03 0. -1.
    9900012    2    1    2    0    0  0.13057840200E+02  0.96577974956E+01  0.93217517278E+01  0.72461673654E+02  0.70000134645E+02 0.  0.
         12    1    1    2    0    0 -0.13057840200E+02 -0.96577974956E+01 -0.93217517278E+01  0.18726326346E+02  0.00000000000E+00 0. -1.
         11    1    3    3    0    0  0.38187194794E+01  0.17919975113E+02 -0.20717080301E+02  0.27656925769E+02  0.51100000000E-03 0. -1.
        -11    1    3    3    0    0 -0.45501808294E+01  0.95062057961E+01  0.12017409635E+02  0.15984061712E+02  0.51100000000E-03 0.  1.
         12    1    3    3    0    0  0.13789301550E+02 -0.17768383414E+02  0.18021422394E+02  0.28820686173E+02  0.00000000000E+00 0. -1.
</event>
<event>
 7    1  0.1333056E-013  0.7246156E+02  0.7816164E-02  0.1226708E+00
        -11   -1    0    0    0    0  0.00000000000E+00  0.00000000000E+00  0.45593999997E+02  0.45594000000E+02  0.51100000000E-03 0. -1.
         11   -1    0    0    0    0 -0.00000000000E+00 -0.00000000000E+00 -0.45593999997E+02  0.45594000000E+02  0.51100000000E-03 0.  1.
    9900012    2    1    2    0    0  0.10226727260E+02 -0.15086621897E+02 -0.42996937834E+01  0.72461562075E+02  0.69999989293E+02 0.  0.
         12    1    1    2    0    0 -0.10226727260E+02  0.15086621897E+02  0.42996937834E+01  0.18726437925E+02  0.00000000000E+00 0. -1.
         11    1    3    3    0    0  0.12907282690E+01  0.13870341025E+02 -0.17951529940E+02  0.22722450728E+02  0.51100000000E-03 0. -1.
        -11    1    3    3    0    0  0.15430762652E+02 -0.31297875073E+02  0.20118904880E+02  0.40279470626E+02  0.51100000000E-03 0.  1.
        -12    1    3    3    0    0 -0.64947636610E+01  0.23409121498E+01 -0.64670687234E+01  0.94596407214E+01  0.00000000000E+00 0.  1.
</event>
<event>
 7    1  0.1333056E-013  0.7246160E+02  0.7816164E-02  0.1226708E+00
        -11   -1    0    0    0    0  0.00000000000E+00  0.00000000000E+00  0.45593999997E+02  0.45594000000E+02  0.51100000000E-03 0. -1.
         11   -1    0    0    0    0 -0.00000000000E+00 -0.00000000000E+00 -0.45593999997E+02  0.45594000000E+02  0.51100000000E-03 0.  1.
    9900012    2    1    2    0    0  0.17479235086E+02 -0.43413868215E+01 -0.51290206571E+01  0.72461597472E+02  0.70000035404E+02 0.  0.
         12    1    1    2    0    0 -0.17479235086E+02  0.43413868215E+01  0.51290206571E+01  0.18726402528E+02  0.00000000000E+00 0. -1.
         11    1    3    3    0    0 -0.12972629989E+02  0.19291016710E+02 -0.98786563417E+01  0.25259063837E+02  0.51100000000E-03 0.  1.
        -11    1    3    3    0    0  0.24780256867E+02 -0.24900750581E+02 -0.53649405708E+01  0.35537179087E+02  0.51100000000E-03 0. -1.
        -12    1    3    3    0    0  0.56716082083E+01  0.12683470497E+01  0.10114576255E+02  0.11665354548E+02  0.00000000000E+00 0.  1.
</event>
<event>
 7    1  0.1333056E-013  0.7246157E+02  0.7816164E-02  0.1226708E+00
        -11   -1    0    0    0    0  0.00000000000E+00  0.00000000000E+00  0.45593999997E+02  0.45594000000E+02  0.51100000000E-03 0. -1.
         11   -1    0    0    0    0 -0.00000000000E+00 -0.00000000000E+00 -0.45593999997E+02  0.45594000000E+02  0.51100000000E-03 0.  1.
    9900012    2    1    2    0    0 -0.12049539716E+02  0.11489495789E+02 -0.85720123832E+01  0.72461566352E+02  0.69999994865E+02 0.  0.
         12    1    1    2    0    0  0.12049539716E+02 -0.11489495789E+02  0.85720123832E+01  0.18726433648E+02  0.00000000000E+00 0. -1.
         11    1    3    3    0    0 -0.17574418768E+02  0.86442685670E+01 -0.31444109201E+02  0.37044778010E+02  0.51100000000E-03 0.  1.
        -11    1    3    3    0    0  0.11299620919E+02 -0.85374202213E+01  0.13654658656E+02  0.19672790352E+02  0.51100000000E-03 0. -1.
         12    1    3    3    0    0 -0.57747418673E+01  0.11382647444E+02  0.92174381624E+01  0.15743997991E+02  0.00000000000E+00 0. -1.
</event>
<event>
 7    1  0.1333056E-013  0.7246157E+02  0.7816164E-02  0.1226708E+00
        -11   -1    0    0    0    0  0.00000000000E+00  0.00000000000E+00  0.45593999997E+02  0.45594000000E+02  0.51100000000E-03 0.  1.
         11   -1    0    0    0    0 -0.00000000000E+00 -0.00000000000E+00 -0.45593999997E+02  0.45594000000E+02  0.51100000000E-03 0. -1.
    9900012    2    1    2    0    0 -0.46350405348E+01 -0.12575769309E+01  0.18100110149E+02  0.72461572474E+02  0.70000002839E+02 0.  0.
         12    1    1    2    0    0  0.46350405348E+01  0.12575769309E+01 -0.18100110149E+02  0.18726427526E+02  0.00000000000E+00 0. -1.
         11    1    3    3    0    0 -0.32178607787E+02 -0.15603070334E+00 -0.56361864589E+01  0.32668849731E+02  0.51100000000E-03 0. -1.
        -11    1    3    3    0    0  0.84133136598E+01  0.70713650543E+01  0.10039808669E+02  0.14885758591E+02  0.51100000000E-03 0.  1.
         12    1    3    3    0    0  0.19130253593E+02 -0.81729112819E+01  0.13696487939E+02  0.24906964151E+02  0.00000000000E+00 0. -1.
</event>
<event>
 7    1  0.1333056E-013  0.7246156E+02  0.7816164E-02  0.1226708E+00
        -11   -1    0    0    0    0  0.00000000000E+00  0.00000000000E+00  0.45593999997E+02  0.45594000000E+02  0.51100000000E-03 0. -1.
         11   -1    0    0    0    0 -0.00000000000E+00 -0.00000000000E+00 -0.45593999997E+02  0.45594000000E+02  0.51100000000E-03 0.  1.
    9900012    2    1    2    0    0 -0.82570101549E+01  0.16727837298E+02 -0.16372964995E+01  0.72461561546E+02  0.69999988603E+02 0.  0.
         12    1    1    2    0    0  0.82570101549E+01 -0.16727837298E+02  0.16372964995E+01  0.18726438454E+02  0.00000000000E+00 0. -1.
         11    1    3    3    0    0 -0.42708510846E+01 -0.17538044216E+02  0.69121173225E+01  0.19328748797E+02  0.51100000000E-03 0. -1.
        -11    1    3    3    0    0  0.10221707889E+01  0.38185820962E+02  0.46495908603E+01  0.38481429952E+02  0.51100000000E-03 0.  1.
        -12    1    3    3    0    0 -0.50083298592E+01 -0.39199394481E+01 -0.13199004682E+02  0.14651382797E+02  0.00000000000E+00 0.  1.
</event>
<event>
 7    1  0.1333056E-013  0.7246124E+02  0.7816164E-02  0.1226709E+00
        -11   -1    0    0    0    0  0.00000000000E+00  0.00000000000E+00  0.45593999997E+02  0.45594000000E+02  0.51100000000E-03 0.  1.
         11   -1    0    0    0    0 -0.00000000000E+00 -0.00000000000E+00 -0.45593999997E+02  0.45594000000E+02  0.51100000000E-03 0. -1.
    9900012    2    1    2    0    0 -0.14876556387E+02 -0.81284256453E+01  0.79566410865E+01  0.72461244521E+02  0.69999575618E+02 0.  0.
         12    1    1    2    0    0  0.14876556387E+02  0.81284256453E+01 -0.79566410865E+01  0.18726755479E+02  0.00000000000E+00 0. -1.
         11    1    3    3    0    0  0.19770851830E+02  0.11337314786E+02 -0.49345234877E+01  0.23318893862E+02  0.51100000000E-03 0. -1.
        -11    1    3    3    0    0 -0.23240042016E+02 -0.13953514279E+02 -0.46511890606E+01  0.27503339317E+02  0.51100000000E-03 0.  1.
        -12    1    3    3    0    0 -0.11407366201E+02 -0.55122261529E+01  0.17542353635E+02  0.21639011342E+02  0.00000000000E+00 0.  1.
</event>
<event>
 7    1  0.1333056E-013  0.7246153E+02  0.7816164E-02  0.1226708E+00
        -11   -1    0    0    0    0  0.00000000000E+00  0.00000000000E+00  0.45593999997E+02  0.45594000000E+02  0.51100000000E-03 0.  1.
         11   -1    0    0    0    0 -0.00000000000E+00 -0.00000000000E+00 -0.45593999997E+02  0.45594000000E+02  0.51100000000E-03 0. -1.
    9900012    2    1    2    0    0 -0.33502221703E+01 -0.53261856957E+01  0.17637694174E+02  0.72461534812E+02  0.69999953777E+02 0.  0.
         12    1    1    2    0    0  0.33502221703E+01  0.53261856957E+01 -0.17637694174E+02  0.18726465188E+02  0.00000000000E+00 0. -1.
         11    1    3    3    0    0 -0.29669555627E+02 -0.93433780426E+01  0.10343485948E+02  0.32780618453E+02  0.51100000000E-03 0. -1.
        -11    1    3    3    0    0  0.13322503561E+02  0.70780433669E+01  0.17330797139E+02  0.22977039165E+02  0.51100000000E-03 0.  1.
         12    1    3    3    0    0  0.12996829896E+02 -0.30608510201E+01 -0.10036588912E+02  0.16703877194E+02  0.00000000000E+00 0. -1.
</event>
<event>
 7    1  0.1333056E-013  0.7246155E+02  0.7816164E-02  0.1226708E+00
        -11   -1    0    0    0    0  0.00000000000E+00  0.00000000000E+00  0.45593999997E+02  0.45594000000E+02  0.51100000000E-03 0.  1.
         11   -1    0    0    0    0 -0.00000000000E+00 -0.00000000000E+00 -0.45593999997E+02  0.45594000000E+02  0.51100000000E-03 0. -1.
    9900012    2    1    2    0    0  0.67058903233E+01 -0.12119013744E+02  0.12603191144E+02  0.72461551159E+02  0.69999975073E+02 0.  0.
         12    1    1    2    0    0 -0.67058903233E+01  0.12119013744E+02 -0.12603191144E+02  0.18726448841E+02  0.00000000000E+00 0. -1.
         11    1    3    3    0    0  0.29609944472E+02  0.67110710802E+01  0.22515299717E+01  0.30444320885E+02  0.51100000000E-03 0. -1.
        -11    1    3    3    0    0 -0.55143255006E+01 -0.21506338102E+02  0.13229351986E+01  0.22241414570E+02  0.51100000000E-03 0.  1.
        -12    1    3    3    0    0 -0.17389728648E+02  0.26762532780E+01  0.90287259742E+01  0.19775815704E+02  0.00000000000E+00 0.  1.
</event>
<event>
 7    1  0.1333056E-013  0.7246169E+02  0.7816164E-02  0.1226708E+00
        -11   -1    0    0    0    0  0.00000000000E+00  0.00000000000E+00  0.45593999997E+02  0.45594000000E+02  0.51100000000E-03 0.  1.
         11   -1    0    0    0    0 -0.00000000000E+00 -0.00000000000E+00 -0.45593999997E+02  0.45594000000E+02  0.51100000000E-03 0. -1.
    9900012    2    1    2    0    0 -0.65628979024E+01  0.46921631243E+01  0.16899313765E+02  0.72461686177E+02  0.70000150959E+02 0.  0.
         12    1    1    2    0    0  0.65628979024E+01 -0.46921631243E+01 -0.16899313765E+02  0.18726313823E+02  0.00000000000E+00 0. -1.
         11    1    3    3    0    0  0.62756796356E+01 -0.95923817601E+01 -0.12866420294E+02  0.17232025829E+02  0.51100000000E-03 0. -1.
        -11    1    3    3    0    0 -0.24949153059E+02 -0.84074785549E+00  0.24884981978E+02  0.35248112341E+02  0.51100000000E-03 0.  1.
         12    1    3    3    0    0  0.12110575521E+02  0.15125292740E+02  0.48807520806E+01  0.19981548008E+02  0.00000000000E+00 0. -1.
</event>
<event>
 7    1  0.1540338E-013  0.7246159E+02  0.7816164E-02  0.1226708E+00
        -11   -1    0    0    0    0  0.00000000000E+00  0.00000000000E+00  0.45593999997E+02  0.45594000000E+02  0.51100000000E-03 0. -1.
         11   -1    0    0    0    0 -0.00000000000E+00 -0.00000000000E+00 -0.45593999997E+02  0.45594000000E+02  0.51100000000E-03 0.  1.
    9900012    2    1    2    0    0  0.63417105917E+01 -0.10352051581E+02 -0.14258198939E+02  0.72461588113E+02  0.70000023213E+02 0.  0.
         12    1    1    2    0    0 -0.63417105917E+01  0.10352051581E+02  0.14258198939E+02  0.18726411887E+02  0.00000000000E+00 0. -1.
         11    1    3    3    0    0 -0.10296529825E+01  0.13246034893E+01  0.18819361024E+02  0.18893996647E+02  0.51100000000E-03 0. -1.
        -11    1    3    3    0    0  0.19309836736E+02 -0.19434997386E+02 -0.25551621182E+02  0.37462971898E+02  0.51100000000E-03 0.  1.
        -12    1    3    3    0    0 -0.11938473162E+02  0.77583423153E+01 -0.75259387807E+01  0.16104619568E+02  0.00000000000E+00 0.  1.
</event>
<event>
 7    1  0.1333056E-013  0.7246170E+02  0.7816164E-02  0.1226708E+00
        -11   -1    0    0    0    0  0.00000000000E+00  0.00000000000E+00  0.45593999997E+02  0.45594000000E+02  0.51100000000E-03 0. -1.
         11   -1    0    0    0    0 -0.00000000000E+00 -0.00000000000E+00 -0.45593999997E+02  0.45594000000E+02  0.51100000000E-03 0.  1.
    9900012    2    1    2    0    0 -0.32834983227E+01  0.80487116537E+01 -0.16586478739E+02  0.72461697709E+02  0.70000165981E+02 0.  0.
         12    1    1    2    0    0  0.32834983227E+01 -0.80487116537E+01  0.16586478739E+02  0.18726302291E+02  0.00000000000E+00 0. -1.
         11    1    3    3    0    0 -0.18668162186E+02  0.18313176098E+02  0.17211765207E+01  0.26207539890E+02  0.51100000000E-03 0. -1.
        -11    1    3    3    0    0  0.24396151406E+02 -0.73537419808E+01  0.18136440462E+00  0.25481024662E+02  0.51100000000E-03 0.  1.
         12    1    3    3    0    0 -0.90114875420E+01 -0.29107224634E+01 -0.18489019665E+02  0.20773133157E+02  0.00000000000E+00 0. -1.
</event>
<event>
 7    1  0.1333056E-013  0.7246157E+02  0.7816164E-02  0.1226708E+00
        -11   -1    0    0    0    0  0.00000000000E+00  0.00000000000E+00  0.45593999997E+02  0.45594000000E+02  0.51100000000E-03 0. -1.
         11   -1    0    0    0    0 -0.00000000000E+00 -0.00000000000E+00 -0.45593999997E+02  0.45594000000E+02  0.51100000000E-03 0.  1.
    9900012    2    1    2    0    0 -0.14348961950E+02  0.44056942271E+01 -0.11197157067E+02  0.72461570093E+02  0.69999999738E+02 0.  0.
         12    1    1    2    0    0  0.14348961950E+02 -0.44056942271E+01  0.11197157067E+02  0.18726429907E+02  0.00000000000E+00 0. -1.
         11    1    3    3    0    0 -0.38860115764E+01 -0.19977140224E+01 -0.89431719440E+01  0.99535055115E+01  0.51100000000E-03 0.  1.
        -11    1    3    3    0    0  0.16119859471E+02 -0.17947170223E+02  0.73176502199E+01  0.25209101400E+02  0.51100000000E-03 0. -1.
        -12    1    3    3    0    0 -0.26582809845E+02  0.24350578473E+02 -0.95716353431E+01  0.37298963181E+02  0.00000000000E+00 0.  1.
</event>
<event>
 7    1  0.1333056E-013  0.7246156E+02  0.7816164E-02  0.1226708E+00
        -11   -1    0    0    0    0  0.00000000000E+00  0.00000000000E+00  0.45593999997E+02  0.45594000000E+02  0.51100000000E-03 0.  1.
         11   -1    0    0    0    0 -0.00000000000E+00 -0.00000000000E+00 -0.45593999997E+02  0.45594000000E+02  0.51100000000E-03 0. -1.
    9900012    2    1    2    0    0 -0.14448411023E+02 -0.11875704618E+02  0.94373783196E+00  0.72461559272E+02  0.69999985641E+02 0.  0.
         12    1    1    2    0    0  0.14448411023E+02  0.11875704618E+02 -0.94373783196E+00  0.18726440728E+02  0.00000000000E+00 0. -1.
         11    1    3    3    0    0  0.48128633173E+01 -0.27808315253E+02  0.21331940540E+02  0.35376796605E+02  0.51100000000E-03 0.  1.
        -11    1    3    3    0    0 -0.19690012887E+02  0.13440729926E+02 -0.91016026504E+01  0.25518405113E+02  0.51100000000E-03 0. -1.
        -12    1    3    3    0    0  0.42873854683E+00  0.24918807101E+01 -0.11286600058E+02  0.11566357554E+02  0.00000000000E+00 0.  1.
</event>
<event>
 7    1  0.1333056E-013  0.7246172E+02  0.7816164E-02  0.1226708E+00
        -11   -1    0    0    0    0  0.00000000000E+00  0.00000000000E+00  0.45593999997E+02  0.45594000000E+02  0.51100000000E-03 0.  1.
         11   -1    0    0    0    0 -0.00000000000E+00 -0.00000000000E+00 -0.45593999997E+02  0.45594000000E+02  0.51100000000E-03 0. -1.
    9900012    2    1    2    0    0  0.11579350320E+02  0.14714380574E+02 -0.28145912727E+00  0.72461719837E+02  0.70000194806E+02 0.  0.
         12    1    1    2    0    0 -0.11579350320E+02 -0.14714380574E+02  0.28145912727E+00  0.18726280163E+02  0.00000000000E+00 0. -1.
         11    1    3    3    0    0  0.29919932371E+02  0.18517042654E+02 -0.11035862458E+02  0.36876462441E+02  0.51100000000E-03 0. -1.
        -11    1    3    3    0    0 -0.48546999641E+01  0.10297972506E+01  0.18600918944E+02  0.19251565649E+02  0.51100000000E-03 0.  1.
         12    1    3    3    0    0 -0.13485882086E+02 -0.48324593303E+01 -0.78465156134E+01  0.16333691747E+02  0.00000000000E+00 0. -1.
</event>
<event>
 7    1  0.1333056E-013  0.7246157E+02  0.7816164E-02  0.1226708E+00
        -11   -1    0    0    0    0  0.00000000000E+00  0.00000000000E+00  0.45593999997E+02  0.45594000000E+02  0.51100000000E-03 0.  1.
         11   -1    0    0    0    0 -0.00000000000E+00 -0.00000000000E+00 -0.45593999997E+02  0.45594000000E+02  0.51100000000E-03 0. -1.
    9900012    2    1    2    0    0  0.16258967681E+02  0.30386826215E+01 -0.87801851534E+01  0.72461567519E+02  0.69999996385E+02 0.  0.
         12    1    1    2    0    0 -0.16258967681E+02 -0.30386826215E+01  0.87801851534E+01  0.18726432481E+02  0.00000000000E+00 0. -1.
         11    1    3    3    0    0 -0.19274490551E+02  0.58944066578E+01 -0.23244206064E+02  0.30765941098E+02  0.51100000000E-03 0. -1.
        -11    1    3    3    0    0  0.27544209731E+02 -0.40273224292E+01  0.34664979146E+01  0.28052084124E+02  0.51100000000E-03 0.  1.
        -12    1    3    3    0    0  0.79892485009E+01  0.11715983930E+01  0.10997522995E+02  0.13643542298E+02  0.00000000000E+00 0.  1.
</event>
<event>
 7    1  0.1333056E-013  0.7246156E+02  0.7816164E-02  0.1226708E+00
        -11   -1    0    0    0    0  0.00000000000E+00  0.00000000000E+00  0.45593999997E+02  0.45594000000E+02  0.51100000000E-03 0.  1.
         11   -1    0    0    0    0 -0.00000000000E+00 -0.00000000000E+00 -0.45593999997E+02  0.45594000000E+02  0.51100000000E-03 0. -1.
    9900012    2    1    2    0    0  0.52748722667E+01 -0.16819612705E+02  0.63210804598E+01  0.72461555939E+02  0.69999981300E+02 0.  0.
         12    1    1    2    0    0 -0.52748722667E+01  0.16819612705E+02 -0.63210804598E+01  0.18726444061E+02  0.00000000000E+00 0. -1.
         11    1    3    3    0    0  0.17644051708E+02  0.14863068300E+02  0.16132980973E+02  0.28151313208E+02  0.51100000000E-03 0. -1.
        -11    1    3    3    0    0  0.20581429587E+01 -0.19460240555E+02  0.51076680961E+01  0.20224371153E+02  0.51100000000E-03 0.  1.
         12    1    3    3    0    0 -0.14427322400E+02 -0.12222440450E+02 -0.14919568609E+02  0.24085871578E+02  0.00000000000E+00 0. -1.
</event>
<event>
 7    1  0.1333056E-013  0.7246121E+02  0.7816164E-02  0.1226709E+00
        -11   -1    0    0    0    0  0.00000000000E+00  0.00000000000E+00  0.45593999997E+02  0.45594000000E+02  0.51100000000E-03 0.  1.
         11   -1    0    0    0    0 -0.00000000000E+00 -0.00000000000E+00 -0.45593999997E+02  0.45594000000E+02  0.51100000000E-03 0. -1.
    9900012    2    1    2    0    0 -0.63556581832E+01 -0.15395480058E+02  0.85602337529E+01  0.72461206386E+02  0.69999525940E+02 0.  0.
         12    1    1    2    0    0  0.63556581832E+01  0.15395480058E+02 -0.85602337529E+01  0.18726793614E+02  0.00000000000E+00 0. -1.
         11    1    3    3    0    0 -0.18114119962E+02  0.21229050577E+02  0.15483120247E+01  0.27949797867E+02  0.51100000000E-03 0. -1.
        -11    1    3    3    0    0  0.10121033422E+02 -0.27617149832E+02  0.14398191589E+02  0.32748285507E+02  0.51100000000E-03 0.  1.
         12    1    3    3    0    0  0.16374283571E+01 -0.90073808029E+01 -0.73862698605E+01  0.11763123012E+02  0.00000000000E+00 0. -1.
</event>
<event>
 7    1  0.1333056E-013  0.7246157E+02  0.7816164E-02  0.1226708E+00
        -11   -1    0    0    0    0  0.00000000000E+00  0.00000000000E+00  0.45593999997E+02  0.45594000000E+02  0.51100000000E-03 0.  1.
         11   -1    0    0    0    0 -0.00000000000E+00 -0.00000000000E+00 -0.45593999997E+02  0.45594000000E+02  0.51100000000E-03 0. -1.
    9900012    2    1    2    0    0  0.28024105388E+00  0.85397759521E+01  0.16663523857E+02  0.72461565857E+02  0.69999994220E+02 0.  0.
         12    1    1    2    0    0 -0.28024105388E+00 -0.85397759521E+01 -0.16663523857E+02  0.18726434143E+02  0.00000000000E+00 0. -1.
         11    1    3    3    0    0  0.10633992779E+02  0.10405029298E+01 -0.22538462134E+02  0.24942869210E+02  0.51100000000E-03 0. -1.
        -11    1    3    3    0    0 -0.17628502212E+02  0.34787011674E+01  0.31062775400E+02  0.35885393517E+02  0.51100000000E-03 0.  1.
         12    1    3    3    0    0  0.72747504864E+01  0.40205718550E+01  0.81392105917E+01  0.11633303131E+02  0.00000000000E+00 0. -1.
</event>
<event>
 7    1  0.1333056E-013  0.7246158E+02  0.7816164E-02  0.1226708E+00
        -11   -1    0    0    0    0  0.00000000000E+00  0.00000000000E+00  0.45593999997E+02  0.45594000000E+02  0.51100000000E-03 0.  1.
         11   -1    0    0    0    0 -0.00000000000E+00 -0.00000000000E+00 -0.45593999997E+02  0.45594000000E+02  0.51100000000E-03 0. -1.
    9900012    2    1    2    0    0 -0.42789402321E+01 -0.38772937863E+01  0.17813924807E+02  0.72461584068E+02  0.70000017943E+02 0.  0.
         12    1    1    2    0    0  0.42789402321E+01  0.38772937863E+01 -0.17813924807E+02  0.18726415932E+02  0.00000000000E+00 0. -1.
         11    1    3    3    0    0 -0.54089580307E+01  0.29972768241E+02  0.15274669244E+02  0.34072557635E+02  0.51100000000E-03 0. -1.
        -11    1    3    3    0    0  0.66357858106E+01 -0.78476913036E+01  0.54818198509E+01  0.11647757778E+02  0.51100000000E-03 0.  1.
         12    1    3    3    0    0 -0.55057680121E+01 -0.26002370724E+02 -0.29425642881E+01  0.26741268655E+02  0.00000000000E+00 0. -1.
</event>
<event>
 7    1  0.1333056E-013  0.7246155E+02  0.7816164E-02  0.1226708E+00
        -11   -1    0    0    0    0  0.00000000000E+00  0.00000000000E+00  0.45593999997E+02  0.45594000000E+02  0.51100000000E-03 0.  1.
         11   -1    0    0    0    0 -0.00000000000E+00 -0.00000000000E+00 -0.45593999997E+02  0.45594000000E+02  0.51100000000E-03 0. -1.
    9900012    2    1    2    0    0 -0.25303539318E+01 -0.18540875600E+02  0.71636747111E+00  0.72461549685E+02  0.69999973153E+02 0.  0.
         12    1    1    2    0    0  0.25303539318E+01  0.18540875600E+02 -0.71636747111E+00  0.18726450315E+02  0.00000000000E+00 0. -1.
         11    1    3    3    0    0  0.17612545238E+02 -0.19368045358E+02 -0.98691649425E+01  0.27977193349E+02  0.51100000000E-03 0. -1.
        -11    1    3    3    0    0 -0.10080098410E+02  0.14854049075E+02 -0.75245616120E+01  0.19464587989E+02  0.51100000000E-03 0.  1.
        -12    1    3    3    0    0 -0.10062800761E+02 -0.14026879317E+02  0.18110094026E+02  0.25019768347E+02  0.00000000000E+00 0.  1.
</event>
<event>
 7    1  0.1333056E-013  0.7246157E+02  0.7816164E-02  0.1226708E+00
        -11   -1    0    0    0    0  0.00000000000E+00  0.00000000000E+00  0.45593999997E+02  0.45594000000E+02  0.51100000000E-03 0.  1.
         11   -1    0    0    0    0 -0.00000000000E+00 -0.00000000000E+00 -0.45593999997E+02  0.45594000000E+02  0.51100000000E-03 0. -1.
    9900012    2    1    2    0    0 -0.38754210932E+01 -0.53431042995E+01  0.17524600348E+02  0.72461567623E+02  0.69999996520E+02 0.  0.
         12    1    1    2    0    0  0.38754210932E+01  0.53431042995E+01 -0.17524600348E+02  0.18726432377E+02  0.00000000000E+00 0. -1.
         11    1    3    3    0    0  0.48805185425E+01 -0.40999102793E+01 -0.58283992551E+01  0.86370691603E+01  0.51100000000E-03 0. -1.
        -11    1    3    3    0    0 -0.54253218884E+01  0.14014230685E+02  0.38952794793E+02  0.41751083839E+02  0.51100000000E-03 0.  1.
        -12    1    3    3    0    0 -0.33306177473E+01 -0.15257424705E+02 -0.15599795190E+02  0.22073414624E+02  0.00000000000E+00 0.  1.
</event>
<event>
 7    1  0.1333056E-013  0.7246156E+02  0.7816164E-02  0.1226708E+00
        -11   -1    0    0    0    0  0.00000000000E+00  0.00000000000E+00  0.45593999997E+02  0.45594000000E+02  0.51100000000E-03 0.  1.
         11   -1    0    0    0    0 -0.00000000000E+00 -0.00000000000E+00 -0.45593999997E+02  0.45594000000E+02  0.51100000000E-03 0. -1.
    9900012    2    1    2    0    0  0.94732974307E+01  0.10303135649E+02  0.12441125316E+02  0.72461559667E+02  0.69999986156E+02 0.  0.
         12    1    1    2    0    0 -0.94732974307E+01 -0.10303135649E+02 -0.12441125316E+02  0.18726440333E+02  0.00000000000E+00 0. -1.
         11    1    3    3    0    0 -0.11822848437E+02  0.64913153137E+01 -0.55034236683E+01  0.14567243802E+02  0.51100000000E-03 0. -1.
        -11    1    3    3    0    0  0.75272498142E+01 -0.21835784839E+02  0.17160356225E+02  0.28773925963E+02  0.51100000000E-03 0.  1.
        -12    1    3    3    0    0  0.13768896053E+02  0.25647605175E+02  0.78419275863E+00  0.29120389901E+02  0.00000000000E+00 0.  1.
</event>
<event>
 7    1  0.1333056E-013  0.7246156E+02  0.7816164E-02  0.1226708E+00
        -11   -1    0    0    0    0  0.00000000000E+00  0.00000000000E+00  0.45593999997E+02  0.45594000000E+02  0.51100000000E-03 0.  1.
         11   -1    0    0    0    0 -0.00000000000E+00 -0.00000000000E+00 -0.45593999997E+02  0.45594000000E+02  0.51100000000E-03 0. -1.
    9900012    2    1    2    0    0 -0.13310066656E+02 -0.50907743460E+01  0.12149304223E+02  0.72461562780E+02  0.69999990211E+02 0.  0.
         12    1    1    2    0    0  0.13310066656E+02  0.50907743460E+01 -0.12149304223E+02  0.18726437220E+02  0.00000000000E+00 0. -1.
         11    1    3    3    0    0 -0.11121203935E+02  0.57554859584E+01 -0.18643373299E+02  0.22458454172E+02  0.51100000000E-03 0. -1.
        -11    1    3    3    0    0 -0.34332773677E+01 -0.24910182762E+02  0.17724679534E+02  0.30764734089E+02  0.51100000000E-03 0.  1.
         12    1    3    3    0    0  0.12444146465E+01  0.14063922458E+02  0.13067997988E+02  0.19238374519E+02  0.00000000000E+00 0. -1.
</event>
<event>
 7    1  0.1333056E-013  0.7246176E+02  0.7816164E-02  0.1226708E+00
        -11   -1    0    0    0    0  0.00000000000E+00  0.00000000000E+00  0.45593999997E+02  0.45594000000E+02  0.51100000000E-03 0. -1.
         11   -1    0    0    0    0 -0.00000000000E+00 -0.00000000000E+00 -0.45593999997E+02  0.45594000000E+02  0.51100000000E-03 0.  1.
    9900012    2    1    2    0    0  0.18013290352E+02 -0.47969349948E+01  0.17840988442E+01  0.72461755760E+02  0.70000241603E+02 0.  0.
         12    1    1    2    0    0 -0.18013290352E+02  0.47969349948E+01 -0.17840988442E+01  0.18726244240E+02  0.00000000000E+00 0. -1.
         11    1    3    3    0    0  0.27842920414E+02  0.12179866510E+02  0.21551454269E+02  0.37256443023E+02  0.51100000000E-03 0. -1.
        -11    1    3    3    0    0 -0.90205783516E+01  0.17486820986E+01 -0.11500007862E+02  0.14720017119E+02  0.51100000000E-03 0.  1.
         12    1    3    3    0    0 -0.80905171004E+00 -0.18725483603E+02 -0.82673475629E+01  0.20485295619E+02  0.00000000000E+00 0. -1.
</event>
<event>
 7    1  0.1333056E-013  0.7246138E+02  0.7816164E-02  0.1226709E+00
        -11   -1    0    0    0    0  0.00000000000E+00  0.00000000000E+00  0.45593999997E+02  0.45594000000E+02  0.51100000000E-03 0.  1.
         11   -1    0    0    0    0 -0.00000000000E+00 -0.00000000000E+00 -0.45593999997E+02  0.45594000000E+02  0.51100000000E-03 0. -1.
    9900012    2    1    2    0    0  0.92819963996E+01  0.14885526766E+02 -0.65537857134E+01  0.72461375332E+02  0.69999746026E+02 0.  0.
         12    1    1    2    0    0 -0.92819963996E+01 -0.14885526766E+02  0.65537857134E+01  0.18726624668E+02  0.00000000000E+00 0. -1.
         11    1    3    3    0    0 -0.19253446605E+02  0.13521579179E+02  0.11600100119E+02  0.26231481710E+02  0.51100000000E-03 0. -1.
        -11    1    3    3    0    0  0.23111625503E+02 -0.22645462505E+01 -0.26758862982E+02  0.35430384580E+02  0.51100000000E-03 0.  1.
        -12    1    3    3    0    0  0.54238175014E+01  0.36284938370E+01  0.86049771496E+01  0.10799509042E+02  0.00000000000E+00 0.  1.
</event>
<event>
 7    1  0.1333056E-013  0.7246152E+02  0.7816164E-02  0.1226708E+00
        -11   -1    0    0    0    0  0.00000000000E+00  0.00000000000E+00  0.45593999997E+02  0.45594000000E+02  0.51100000000E-03 0.  1.
         11   -1    0    0    0    0 -0.00000000000E+00 -0.00000000000E+00 -0.45593999997E+02  0.45594000000E+02  0.51100000000E-03 0. -1.
    9900012    2    1    2    0    0  0.16568684395E+02  0.71703080826E+01  0.49745841854E+01  0.72461518526E+02  0.69999932562E+02 0.  0.
         12    1    1    2    0    0 -0.16568684395E+02 -0.71703080826E+01 -0.49745841854E+01  0.18726481474E+02  0.00000000000E+00 0. -1.
         11    1    3    3    0    0 -0.47259508944E+01  0.14884480670E+01 -0.12624343486E+02  0.13561863375E+02  0.51100000000E-03 0. -1.
        -11    1    3    3    0    0  0.31157391528E+02  0.21135891221E+02  0.93333372154E+01  0.38789433205E+02  0.51100000000E-03 0.  1.
        -12    1    3    3    0    0 -0.98627562387E+01 -0.15454031205E+02  0.82655904559E+01  0.20110221946E+02  0.00000000000E+00 0.  1.
</event>
<event>
 7    1  0.1333056E-013  0.7246158E+02  0.7816164E-02  0.1226708E+00
        -11   -1    0    0    0    0  0.00000000000E+00  0.00000000000E+00  0.45593999997E+02  0.45594000000E+02  0.51100000000E-03 0. -1.
         11   -1    0    0    0    0 -0.00000000000E+00 -0.00000000000E+00 -0.45593999997E+02  0.45594000000E+02  0.51100000000E-03 0.  1.
    9900012    2    1    2    0    0  0.41490893769E+01 -0.18260539540E+02 -0.12827383287E+00  0.72461582801E+02  0.70000016292E+02 0.  0.
         12    1    1    2    0    0 -0.41490893769E+01  0.18260539540E+02  0.12827383287E+00  0.18726417199E+02  0.00000000000E+00 0. -1.
         11    1    3    3    0    0  0.10440986308E+02  0.82764091457E+01  0.22655806847E+01  0.13514658691E+02  0.51100000000E-03 0. -1.
        -11    1    3    3    0    0 -0.47673163227E+01 -0.36251283958E+02  0.14553543769E+02  0.39353380160E+02  0.51100000000E-03 0.  1.
        -12    1    3    3    0    0 -0.15245806086E+01  0.97143352726E+01 -0.16947398286E+02  0.19593543949E+02  0.00000000000E+00 0.  1.
</event>
<event>
 7    1  0.1333056E-013  0.7246167E+02  0.7816164E-02  0.1226708E+00
        -11   -1    0    0    0    0  0.00000000000E+00  0.00000000000E+00  0.45593999997E+02  0.45594000000E+02  0.51100000000E-03 0.  1.
         11   -1    0    0    0    0 -0.00000000000E+00 -0.00000000000E+00 -0.45593999997E+02  0.45594000000E+02  0.51100000000E-03 0. -1.
    9900012    2    1    2    0    0 -0.18048809700E+02 -0.47487223582E+01 -0.15379939028E+01  0.72461673055E+02  0.70000133864E+02 0.  0.
         12    1    1    2    0    0  0.18048809700E+02  0.47487223582E+01  0.15379939028E+01  0.18726326945E+02  0.00000000000E+00 0. -1.
         11    1    3    3    0    0 -0.19333486454E+01  0.16013695273E+02  0.87022927701E+01  0.18327743260E+02  0.51100000000E-03 0. -1.
        -11    1    3    3    0    0  0.55324306240E+01 -0.29341514390E+02 -0.51791971722E+01  0.30304394712E+02  0.51100000000E-03 0.  1.
        -12    1    3    3    0    0 -0.21647891678E+02  0.85790967581E+01 -0.50610895007E+01  0.23829535082E+02  0.00000000000E+00 0.  1.
</event>
<event>
 7    1  0.1333056E-013  0.7246161E+02  0.7816164E-02  0.1226708E+00
        -11   -1    0    0    0    0  0.00000000000E+00  0.00000000000E+00  0.45593999997E+02  0.45594000000E+02  0.51100000000E-03 0.  1.
         11   -1    0    0    0    0 -0.00000000000E+00 -0.00000000000E+00 -0.45593999997E+02  0.45594000000E+02  0.51100000000E-03 0. -1.
    9900012    2    1    2    0    0  0.12509960167E+02  0.40180760790E+01  0.13342930497E+02  0.72461605980E+02  0.70000046487E+02 0.  0.
         12    1    1    2    0    0 -0.12509960167E+02 -0.40180760790E+01 -0.13342930497E+02  0.18726394020E+02  0.00000000000E+00 0. -1.
         11    1    3    3    0    0  0.95338930159E+01 -0.21819267282E+02  0.16606666370E+01  0.23869087848E+02  0.51100000000E-03 0. -1.
        -11    1    3    3    0    0  0.10171645858E+02  0.34196441528E+02  0.59756297064E+01  0.36174122564E+02  0.51100000000E-03 0.  1.
        -12    1    3    3    0    0 -0.71955787077E+01 -0.83590981673E+01  0.57066341536E+01  0.12418395568E+02  0.00000000000E+00 0.  1.
</event>
<event>
 7    1  0.1427331E-013  0.7246153E+02  0.7816164E-02  0.1226708E+00
        -11   -1    0    0    0    0  0.00000000000E+00  0.00000000000E+00  0.45593999997E+02  0.45594000000E+02  0.51100000000E-03 0. -1.
         11   -1    0    0    0    0 -0.00000000000E+00 -0.00000000000E+00 -0.45593999997E+02  0.45594000000E+02  0.51100000000E-03 0.  1.
    9900012    2    1    2    0    0  0.37569629105E+01  0.88430845781E+01 -0.16073762303E+02  0.72461528102E+02  0.69999945037E+02 0.  0.
         12    1    1    2    0    0 -0.37569629105E+01 -0.88430845781E+01  0.16073762303E+02  0.18726471898E+02  0.00000000000E+00 0. -1.
         11    1    3    3    0    0  0.58096996307E+01 -0.14675194569E+02  0.12856086109E+02  0.20356642546E+02  0.51100000000E-03 0. -1.
        -11    1    3    3    0    0 -0.54592923449E+01  0.18024491108E+02 -0.37147884953E+02  0.41649147762E+02  0.51100000000E-03 0.  1.
        -12    1    3    3    0    0  0.34065556247E+01  0.54937880390E+01  0.82180365404E+01  0.10455737794E+02  0.00000000000E+00 0.  1.
</event>
<event>
 7    1  0.1333056E-013  0.7246157E+02  0.7816164E-02  0.1226708E+00
        -11   -1    0    0    0    0  0.00000000000E+00  0.00000000000E+00  0.45593999997E+02  0.45594000000E+02  0.51100000000E-03 0.  1.
         11   -1    0    0    0    0 -0.00000000000E+00 -0.00000000000E+00 -0.45593999997E+02  0.45594000000E+02  0.51100000000E-03 0. -1.
    9900012    2    1    2    0    0  0.15637162457E+01  0.14417851485E+02  0.11847342974E+02  0.72461569869E+02  0.69999999446E+02 0.  0.
         12    1    1    2    0    0 -0.15637162457E+01 -0.14417851485E+02 -0.11847342974E+02  0.18726430131E+02  0.00000000000E+00 0. -1.
         11    1    3    3    0    0  0.13750520136E+02  0.28471136831E+02 -0.16956631845E+02  0.35877706173E+02  0.51100000000E-03 0. -1.
        -11    1    3    3    0    0 -0.37802083840E+01 -0.72878736354E+01  0.22804632189E+02  0.24237457109E+02  0.51100000000E-03 0.  1.
         12    1    3    3    0    0 -0.84065955060E+01 -0.67654117111E+01  0.59993426296E+01  0.12346406587E+02  0.00000000000E+00 0. -1.
</event>
<event>
 7    1  0.1333056E-013  0.7246160E+02  0.7816164E-02  0.1226708E+00
        -11   -1    0    0    0    0  0.00000000000E+00  0.00000000000E+00  0.45593999997E+02  0.45594000000E+02  0.51100000000E-03 0.  1.
         11   -1    0    0    0    0 -0.00000000000E+00 -0.00000000000E+00 -0.45593999997E+02  0.45594000000E+02  0.51100000000E-03 0. -1.
    9900012    2    1    2    0    0  0.92771856303E+01  0.15184301410E+02 -0.58351552794E+01  0.72461595656E+02  0.70000033038E+02 0.  0.
         12    1    1    2    0    0 -0.92771856303E+01 -0.15184301410E+02  0.58351552794E+01  0.18726404344E+02  0.00000000000E+00 0. -1.
         11    1    3    3    0    0  0.36674281105E+00 -0.14227573648E+02 -0.17257933465E+02  0.22369502004E+02  0.51100000000E-03 0. -1.
        -11    1    3    3    0    0  0.23429912239E+02  0.18221073566E+02  0.11301892747E+02  0.31760054933E+02  0.51100000000E-03 0.  1.
         12    1    3    3    0    0 -0.14519469420E+02  0.11190801492E+02  0.12088543857E+00  0.18332038718E+02  0.00000000000E+00 0. -1.
</event>
<event>
 7    1  0.1333056E-013  0.7246161E+02  0.7816164E-02  0.1226708E+00
        -11   -1    0    0    0    0  0.00000000000E+00  0.00000000000E+00  0.45593999997E+02  0.45594000000E+02  0.51100000000E-03 0.  1.
         11   -1    0    0    0    0 -0.00000000000E+00 -0.00000000000E+00 -0.45593999997E+02  0.45594000000E+02  0.51100000000E-03 0. -1.
    9900012    2    1    2    0    0 -0.11366192099E+02  0.10977406145E+02  0.10049079057E+02  0.72461607972E+02  0.70000049082E+02 0.  0.
         12    1    1    2    0    0  0.11366192099E+02 -0.10977406145E+02 -0.10049079057E+02  0.18726392028E+02  0.00000000000E+00 0. -1.
         11    1    3    3    0    0 -0.28778802258E+02 -0.16962917377E+01  0.84279608020E+01  0.30035435549E+02  0.51100000000E-03 0.  1.
        -11    1    3    3    0    0  0.25317212419E+02  0.19494322296E+02  0.10545220481E+01  0.31970327859E+02  0.51100000000E-03 0. -1.
         12    1    3    3    0    0 -0.79046022602E+01 -0.68206244132E+01  0.56659620682E+00  0.10455844564E+02  0.00000000000E+00 0. -1.
</event>
<event>
 7    1  0.1333056E-013  0.7246156E+02  0.7816164E-02  0.1226708E+00
        -11   -1    0    0    0    0  0.00000000000E+00  0.00000000000E+00  0.45593999997E+02  0.45594000000E+02  0.51100000000E-03 0.  1.
         11   -1    0    0    0    0 -0.00000000000E+00 -0.00000000000E+00 -0.45593999997E+02  0.45594000000E+02  0.51100000000E-03 0. -1.
    9900012    2    1    2    0    0 -0.17330756500E+02  0.94449353432E+00  0.70308241482E+01  0.72461556742E+02  0.69999982345E+02 0.  0.
         12    1    1    2    0    0  0.17330756500E+02 -0.94449353432E+00 -0.70308241482E+01  0.18726443258E+02  0.00000000000E+00 0. -1.
         11    1    3    3    0    0  0.41187680091E+01  0.10886820059E+02  0.14895679288E+02  0.18904189023E+02  0.51100000000E-03 0. -1.
        -11    1    3    3    0    0 -0.35051289561E+02 -0.13112433929E+02  0.21105819477E+00  0.37424235052E+02  0.51100000000E-03 0.  1.
         12    1    3    3    0    0  0.13601765051E+02  0.31701074037E+01 -0.80759133343E+01  0.16133132667E+02  0.00000000000E+00 0. -1.
</event>
<event>
 7    1  0.1333056E-013  0.7246151E+02  0.7816164E-02  0.1226708E+00
        -11   -1    0    0    0    0  0.00000000000E+00  0.00000000000E+00  0.45593999997E+02  0.45594000000E+02  0.51100000000E-03 0. -1.
         11   -1    0    0    0    0 -0.00000000000E+00 -0.00000000000E+00 -0.45593999997E+02  0.45594000000E+02  0.51100000000E-03 0.  1.
    9900012    2    1    2    0    0  0.69462415369E+00  0.96796505746E+01 -0.16015723264E+02  0.72461507279E+02  0.69999917911E+02 0.  0.
         12    1    1    2    0    0 -0.69462415369E+00 -0.96796505746E+01  0.16015723264E+02  0.18726492721E+02  0.00000000000E+00 0. -1.
         11    1    3    3    0    0 -0.11752073757E+02 -0.13307266130E+02  0.13022673004E+02  0.22017824186E+02  0.51100000000E-03 0. -1.
        -11    1    3    3    0    0 -0.10392011839E+02  0.29327585484E+01 -0.87833591692E+01  0.13919137234E+02  0.51100000000E-03 0.  1.
         12    1    3    3    0    0  0.22838709750E+02  0.20054158156E+02 -0.20255037098E+02  0.36524545860E+02  0.00000000000E+00 0. -1.
</event>
<event>
 7    1  0.1333056E-013  0.7246144E+02  0.7816164E-02  0.1226708E+00
        -11   -1    0    0    0    0  0.00000000000E+00  0.00000000000E+00  0.45593999997E+02  0.45594000000E+02  0.51100000000E-03 0.  1.
         11   -1    0    0    0    0 -0.00000000000E+00 -0.00000000000E+00 -0.45593999997E+02  0.45594000000E+02  0.51100000000E-03 0. -1.
    9900012    2    1    2    0    0 -0.63380990324E+01 -0.50604361885E+01  0.16879114609E+02  0.72461440686E+02  0.69999831161E+02 0.  0.
         12    1    1    2    0    0  0.63380990324E+01  0.50604361885E+01 -0.16879114609E+02  0.18726559314E+02  0.00000000000E+00 0. -1.
         11    1    3    3    0    0 -0.16356264913E+00 -0.24852791553E+02  0.79908412342E+01  0.26106350656E+02  0.51100000000E-03 0. -1.
        -11    1    3    3    0    0  0.13859879950E+02  0.18493971318E+02  0.11996949301E+02  0.26039394005E+02  0.51100000000E-03 0.  1.
         12    1    3    3    0    0 -0.20034416334E+02  0.12983840464E+01 -0.31086759269E+01  0.20315696025E+02  0.00000000000E+00 0. -1.
</event>
<event>
 7    1  0.1631902E-013  0.7246156E+02  0.7816164E-02  0.1226708E+00
        -11   -1    0    0    0    0  0.00000000000E+00  0.00000000000E+00  0.45593999997E+02  0.45594000000E+02  0.51100000000E-03 0. -1.
         11   -1    0    0    0    0 -0.00000000000E+00 -0.00000000000E+00 -0.45593999997E+02  0.45594000000E+02  0.51100000000E-03 0.  1.
    9900012    2    1    2    0    0 -0.99180340456E+01 -0.16365427938E+01 -0.15799810080E+02  0.72461556926E+02  0.69999982585E+02 0.  0.
         12    1    1    2    0    0  0.99180340456E+01  0.16365427938E+01  0.15799810080E+02  0.18726443074E+02  0.00000000000E+00 0. -1.
         11    1    3    3    0    0  0.28061636110E+01 -0.28960030119E+01  0.44545905621E+01  0.60087240737E+01  0.51100000000E-03 0. -1.
        -11    1    3    3    0    0 -0.36323623838E+02  0.79998527765E+01 -0.49326778360E+01  0.37519789499E+02  0.51100000000E-03 0.  1.
        -12    1    3    3    0    0  0.23599426181E+02 -0.67403925584E+01 -0.15321722806E+02  0.28933043353E+02  0.00000000000E+00 0.  1.
</event>
<event>
 7    1  0.1333056E-013  0.7246148E+02  0.7816164E-02  0.1226708E+00
        -11   -1    0    0    0    0  0.00000000000E+00  0.00000000000E+00  0.45593999997E+02  0.45594000000E+02  0.51100000000E-03 0.  1.
         11   -1    0    0    0    0 -0.00000000000E+00 -0.00000000000E+00 -0.45593999997E+02  0.45594000000E+02  0.51100000000E-03 0. -1.
    9900012    2    1    2    0    0 -0.18134582140E+02  0.45649270880E+01 -0.99041025847E+00  0.72461480270E+02  0.69999882726E+02 0.  0.
         12    1    1    2    0    0  0.18134582140E+02 -0.45649270880E+01  0.99041025847E+00  0.18726519730E+02  0.00000000000E+00 0. -1.
         11    1    3    3    0    0 -0.80677184685E+01  0.71845294329E+01 -0.12220779320E+02  0.16311130921E+02  0.51100000000E-03 0. -1.
        -11    1    3    3    0    0 -0.21383569488E+02 -0.14503550794E+02  0.24071154424E+02  0.35313319091E+02  0.51100000000E-03 0.  1.
        -12    1    3    3    0    0  0.11316705816E+02  0.11883948449E+02 -0.12840785362E+02  0.20837030258E+02  0.00000000000E+00 0.  1.
</event>
<event>
 7    1  0.1333056E-013  0.7246158E+02  0.7816164E-02  0.1226708E+00
        -11   -1    0    0    0    0  0.00000000000E+00  0.00000000000E+00  0.45593999997E+02  0.45594000000E+02  0.51100000000E-03 0. -1.
         11   -1    0    0    0    0 -0.00000000000E+00 -0.00000000000E+00 -0.45593999997E+02  0.45594000000E+02  0.51100000000E-03 0.  1.
    9900012    2    1    2    0    0  0.48954258360E+01  0.16299341698E+00 -0.18074483979E+02  0.72461581974E+02  0.70000015215E+02 0.  0.
         12    1    1    2    0    0 -0.48954258360E+01 -0.16299341698E+00  0.18074483979E+02  0.18726418026E+02  0.00000000000E+00 0. -1.
         11    1    3    3    0    0 -0.11291779229E+02 -0.31364164782E+02 -0.12642759099E+02  0.35651850843E+02  0.51100000000E-03 0. -1.
        -11    1    3    3    0    0  0.10232043134E+02  0.19008173313E+02 -0.73723649857E+01  0.22811337645E+02  0.51100000000E-03 0.  1.
         12    1    3    3    0    0  0.59551619306E+01  0.12518984885E+02  0.19406401049E+01  0.13998393486E+02  0.00000000000E+00 0. -1.
</event>
<event>
 7    1  0.1333056E-013  0.7246142E+02  0.7816164E-02  0.1226708E+00
        -11   -1    0    0    0    0  0.00000000000E+00  0.00000000000E+00  0.45593999997E+02  0.45594000000E+02  0.51100000000E-03 0.  1.
         11   -1    0    0    0    0 -0.00000000000E+00 -0.00000000000E+00 -0.45593999997E+02  0.45594000000E+02  0.51100000000E-03 0. -1.
    9900012    2    1    2    0    0 -0.89726170673E+01 -0.15583928667E+02  0.52266751479E+01  0.72461419350E+02  0.69999803367E+02 0.  0.
         12    1    1    2    0    0  0.89726170673E+01  0.15583928667E+02 -0.52266751479E+01  0.18726580650E+02  0.00000000000E+00 0. -1.
         11    1    3    3    0    0 -0.17517110376E+02 -0.35681601585E+02 -0.24941833371E+01  0.39827713948E+02  0.51100000000E-03 0. -1.
        -11    1    3    3    0    0  0.52719144363E+01 -0.85738801435E+00  0.99650797200E+01  0.11306237664E+02  0.51100000000E-03 0.  1.
         12    1    3    3    0    0  0.32725788722E+01  0.20955060933E+02 -0.22442212349E+01  0.21327467738E+02  0.00000000000E+00 0. -1.
</event>
<event>
 8    1  0.1333056E-013  0.7246159E+02  0.7816164E-02  0.1226708E+00
        -11   -1    0    0    0    0  0.00000000000E+00  0.00000000000E+00  0.45593999997E+02  0.45594000000E+02  0.51100000000E-03 0.  1.
         11   -1    0    0    0    0 -0.00000000000E+00 -0.00000000000E+00 -0.45593999997E+02  0.45594000000E+02  0.51100000000E-03 0. -1.
    9900012    2    1    2    0    0  0.13064334124E+02  0.82707465501E+01  0.10563921727E+02  0.72461587721E+02  0.70000022701E+02 0.  0.
        -24    2    3    3    0    0 -0.27768030593E+01  0.13722549554E+02  0.55288135739E+01  0.54968271922E+02  0.52867042068E+02 0.  0.
         12    1    1    2    0    0 -0.13064334124E+02 -0.82707465501E+01 -0.10563921727E+02  0.18726412279E+02  0.00000000000E+00 0. -1.
         11    1    4    4    0    0 -0.17195283219E+02  0.11976995696E+02  0.23745955868E+02  0.31670121743E+02  0.51100000000E-03 0. -1.
        -11    1    3    3    0    0  0.15841137184E+02 -0.54518030039E+01  0.50351081528E+01  0.17493315799E+02  0.51100000000E-03 0.  1.
        -12    1    4    4    0    0  0.14418480160E+02  0.17455538584E+01 -0.18217142294E+02  0.23298150179E+02  0.00000000000E+00 0.  1.
</event>
<event>
 7    1  0.1333056E-013  0.7246159E+02  0.7816164E-02  0.1226708E+00
        -11   -1    0    0    0    0  0.00000000000E+00  0.00000000000E+00  0.45593999997E+02  0.45594000000E+02  0.51100000000E-03 0.  1.
         11   -1    0    0    0    0 -0.00000000000E+00 -0.00000000000E+00 -0.45593999997E+02  0.45594000000E+02  0.51100000000E-03 0. -1.
    9900012    2    1    2    0    0 -0.99303170933E+01 -0.72744977695E+01  0.14112019643E+02  0.72461585133E+02  0.70000019330E+02 0.  0.
         12    1    1    2    0    0  0.99303170933E+01  0.72744977695E+01 -0.14112019643E+02  0.18726414867E+02  0.00000000000E+00 0. -1.
         11    1    3    3    0    0  0.17445153572E+01 -0.21413394861E+02  0.32819128759E+02  0.39225910137E+02  0.51100000000E-03 0.  1.
        -11    1    3    3    0    0 -0.10576393955E+02  0.18205991061E+02 -0.19779484674E+02  0.28888513874E+02  0.51100000000E-03 0. -1.
         12    1    3    3    0    0 -0.10984384952E+01 -0.40670939696E+01  0.10723755576E+01  0.43471611221E+01  0.00000000000E+00 0. -1.
</event>
<event>
 7    1  0.1333056E-013  0.7246160E+02  0.7816164E-02  0.1226708E+00
        -11   -1    0    0    0    0  0.00000000000E+00  0.00000000000E+00  0.45593999997E+02  0.45594000000E+02  0.51100000000E-03 0.  1.
         11   -1    0    0    0    0 -0.00000000000E+00 -0.00000000000E+00 -0.45593999997E+02  0.45594000000E+02  0.51100000000E-03 0. -1.
    9900012    2    1    2    0    0  0.69855720782E+01 -0.16977975194E+02  0.36916559298E+01  0.72461596650E+02  0.70000034333E+02 0.  0.
         12    1    1    2    0    0 -0.69855720782E+01  0.16977975194E+02 -0.36916559298E+01  0.18726403350E+02  0.00000000000E+00 0. -1.
         11    1    3    3    0    0  0.19671901638E+01 -0.73748710487E+00  0.27985929323E+02  0.28064674677E+02  0.51100000000E-03 0.  1.
        -11    1    3    3    0    0  0.67604169095E+00 -0.21529179623E+02 -0.28976493660E+02  0.36105398387E+02  0.51100000000E-03 0. -1.
         12    1    3    3    0    0  0.43423402235E+01  0.52886915340E+01  0.46822202664E+01  0.82915235862E+01  0.00000000000E+00 0. -1.
</event>
<event>
 7    1  0.1333056E-013  0.7246155E+02  0.7816164E-02  0.1226708E+00
        -11   -1    0    0    0    0  0.00000000000E+00  0.00000000000E+00  0.45593999997E+02  0.45594000000E+02  0.51100000000E-03 0.  1.
         11   -1    0    0    0    0 -0.00000000000E+00 -0.00000000000E+00 -0.45593999997E+02  0.45594000000E+02  0.51100000000E-03 0. -1.
    9900012    2    1    2    0    0 -0.13878653253E+02  0.93876085488E+01  0.83627468111E+01  0.72461554939E+02  0.69999979997E+02 0.  0.
         12    1    1    2    0    0  0.13878653253E+02 -0.93876085488E+01 -0.83627468111E+01  0.18726445061E+02  0.00000000000E+00 0. -1.
         11    1    3    3    0    0 -0.94013816342E+01 -0.64297664351E+01  0.81466436825E+00  0.11418912003E+02  0.51100000000E-03 0. -1.
        -11    1    3    3    0    0  0.13567317593E+02 -0.48515338160E+01 -0.18337868488E+02  0.23321383063E+02  0.51100000000E-03 0.  1.
        -12    1    3    3    0    0 -0.18044589212E+02  0.20668908800E+02  0.25885950931E+02  0.37721259873E+02  0.00000000000E+00 0.  1.
</event>
<event>
 7    1  0.1333056E-013  0.7246165E+02  0.7816164E-02  0.1226708E+00
        -11   -1    0    0    0    0  0.00000000000E+00  0.00000000000E+00  0.45593999997E+02  0.45594000000E+02  0.51100000000E-03 0. -1.
         11   -1    0    0    0    0 -0.00000000000E+00 -0.00000000000E+00 -0.45593999997E+02  0.45594000000E+02  0.51100000000E-03 0.  1.
    9900012    2    1    2    0    0 -0.12409354295E+02 -0.61587461337E+01 -0.12599760067E+02  0.72461650070E+02  0.70000103923E+02 0.  0.
         12    1    1    2    0    0  0.12409354295E+02  0.61587461337E+01  0.12599760067E+02  0.18726349930E+02  0.00000000000E+00 0. -1.
         11    1    3    3    0    0 -0.22924243756E+02 -0.65586638690E+01 -0.26725869755E+02  0.35816325020E+02  0.51100000000E-03 0. -1.
        -11    1    3    3    0    0  0.18784906960E+02  0.51451432401E+01 -0.15073587076E+00  0.19477370203E+02  0.51100000000E-03 0.  1.
         12    1    3    3    0    0 -0.82700174982E+01 -0.47452255048E+01  0.14276845559E+02  0.17167954847E+02  0.00000000000E+00 0. -1.
</event>
<event>
 7    1  0.1333056E-013  0.7246156E+02  0.7816164E-02  0.1226708E+00
        -11   -1    0    0    0    0  0.00000000000E+00  0.00000000000E+00  0.45593999997E+02  0.45594000000E+02  0.51100000000E-03 0. -1.
         11   -1    0    0    0    0 -0.00000000000E+00 -0.00000000000E+00 -0.45593999997E+02  0.45594000000E+02  0.51100000000E-03 0.  1.
    9900012    2    1    2    0    0  0.11305070629E+02 -0.43725685611E+01 -0.14274304166E+02  0.72461555138E+02  0.69999980256E+02 0.  0.
         12    1    1    2    0    0 -0.11305070629E+02  0.43725685611E+01  0.14274304166E+02  0.18726444862E+02  0.00000000000E+00 0. -1.
         11    1    3    3    0    0  0.48454617308E+01 -0.19719766021E+02 -0.26496468577E+02  0.33382787760E+02  0.51100000000E-03 0. -1.
        -11    1    3    3    0    0  0.77732121081E+01  0.15969838531E+02 -0.75168426753E+01  0.19286303255E+02  0.51100000000E-03 0.  1.
         12    1    3    3    0    0 -0.13136032104E+01 -0.62264107155E+00  0.19739007086E+02  0.19792464123E+02  0.00000000000E+00 0. -1.
</event>
<event>
 7    1  0.1333056E-013  0.7246155E+02  0.7816164E-02  0.1226708E+00
        -11   -1    0    0    0    0  0.00000000000E+00  0.00000000000E+00  0.45593999997E+02  0.45594000000E+02  0.51100000000E-03 0.  1.
         11   -1    0    0    0    0 -0.00000000000E+00 -0.00000000000E+00 -0.45593999997E+02  0.45594000000E+02  0.51100000000E-03 0. -1.
    9900012    2    1    2    0    0 -0.35979084671E+00  0.70985232277E+01  0.17325169558E+02  0.72461548610E+02  0.69999971752E+02 0.  0.
         12    1    1    2    0    0  0.35979084671E+00 -0.70985232277E+01 -0.17325169558E+02  0.18726451390E+02  0.00000000000E+00 0. -1.
         11    1    3    3    0    0 -0.13900425888E+02  0.30555040806E+02  0.21858305444E+02  0.40057681856E+02  0.51100000000E-03 0. -1.
        -11    1    3    3    0    0 -0.13424997795E+01 -0.12490102861E+02  0.21524207875E+01  0.12745112422E+02  0.51100000000E-03 0.  1.
         12    1    3    3    0    0  0.14883134821E+02 -0.10966414718E+02 -0.66855566738E+01  0.19658754332E+02  0.00000000000E+00 0. -1.
</event>
<event>
 7    1  0.1333056E-013  0.7246157E+02  0.7816164E-02  0.1226708E+00
        -11   -1    0    0    0    0  0.00000000000E+00  0.00000000000E+00  0.45593999997E+02  0.45594000000E+02  0.51100000000E-03 0.  1.
         11   -1    0    0    0    0 -0.00000000000E+00 -0.00000000000E+00 -0.45593999997E+02  0.45594000000E+02  0.51100000000E-03 0. -1.
    9900012    2    1    2    0    0  0.85405307171E+01  0.16445228721E+02 -0.27005527579E+01  0.72461569539E+02  0.69999999016E+02 0.  0.
         12    1    1    2    0    0 -0.85405307171E+01 -0.16445228721E+02  0.27005527579E+01  0.18726430461E+02  0.00000000000E+00 0. -1.
         11    1    3    3    0    0 -0.19426251655E+02 -0.11260226716E+01  0.48303426377E+01  0.20049423700E+02  0.51100000000E-03 0.  1.
        -11    1    3    3    0    0  0.31609404935E+02  0.25658341152E+02 -0.12049112890E+02  0.42458050741E+02  0.51100000000E-03 0. -1.
         12    1    3    3    0    0 -0.36426225622E+01 -0.80870897597E+01  0.45182174943E+01  0.99540950989E+01  0.00000000000E+00 0. -1.
</event>
<event>
 7    1  0.1333056E-013  0.7246132E+02  0.7816164E-02  0.1226709E+00
        -11   -1    0    0    0    0  0.00000000000E+00  0.00000000000E+00  0.45593999997E+02  0.45594000000E+02  0.51100000000E-03 0.  1.
         11   -1    0    0    0    0 -0.00000000000E+00 -0.00000000000E+00 -0.45593999997E+02  0.45594000000E+02  0.51100000000E-03 0. -1.
    9900012    2    1    2    0    0  0.95992859870E+01 -0.87714922003E+01  0.13476022695E+02  0.72461319713E+02  0.69999673571E+02 0.  0.
         12    1    1    2    0    0 -0.95992859870E+01  0.87714922003E+01 -0.13476022695E+02  0.18726680287E+02  0.00000000000E+00 0. -1.
         11    1    3    3    0    0  0.66197726181E+01 -0.29236036799E+02  0.54144536811E+00  0.29981000660E+02  0.51100000000E-03 0. -1.
        -11    1    3    3    0    0  0.14958599578E+02  0.18697426174E+02 -0.10676673780E+01  0.23968591130E+02  0.51100000000E-03 0.  1.
        -12    1    3    3    0    0 -0.11979086209E+02  0.17671184245E+01  0.14002244705E+02  0.18511727924E+02  0.00000000000E+00 0.  1.
</event>
<event>
 7    1  0.1333056E-013  0.7246120E+02  0.7816164E-02  0.1226709E+00
        -11   -1    0    0    0    0  0.00000000000E+00  0.00000000000E+00  0.45593999997E+02  0.45594000000E+02  0.51100000000E-03 0.  1.
         11   -1    0    0    0    0 -0.00000000000E+00 -0.00000000000E+00 -0.45593999997E+02  0.45594000000E+02  0.51100000000E-03 0. -1.
    9900012    2    1    2    0    0 -0.11958878254E+02 -0.10745368778E+02 -0.96028898931E+01  0.72461195319E+02  0.69999511523E+02 0.  0.
         12    1    1    2    0    0  0.11958878254E+02  0.10745368778E+02  0.96028898931E+01  0.18726804681E+02  0.00000000000E+00 0. -1.
         11    1    3    3    0    0  0.15532047339E+02 -0.22172769011E+02 -0.10294245929E+02  0.28962867255E+02  0.51100000000E-03 0. -1.
        -11    1    3    3    0    0 -0.13949264907E+02  0.15187207679E+02 -0.12590752586E+02  0.24161132413E+02  0.51100000000E-03 0.  1.
        -12    1    3    3    0    0 -0.13541660686E+02 -0.37598074460E+01  0.13282108622E+02  0.19337195650E+02  0.00000000000E+00 0.  1.
</event>
<event>
 7    1  0.1333056E-013  0.7246112E+02  0.7816164E-02  0.1226709E+00
        -11   -1    0    0    0    0  0.00000000000E+00  0.00000000000E+00  0.45593999997E+02  0.45594000000E+02  0.51100000000E-03 0. -1.
         11   -1    0    0    0    0 -0.00000000000E+00 -0.00000000000E+00 -0.45593999997E+02  0.45594000000E+02  0.51100000000E-03 0.  1.
    9900012    2    1    2    0    0  0.32769029538E+01  0.10968654557E+02  0.14820476323E+02  0.72461121077E+02  0.69999414809E+02 0.  0.
         12    1    1    2    0    0 -0.32769029538E+01 -0.10968654557E+02 -0.14820476323E+02  0.18726878923E+02  0.00000000000E+00 0. -1.
         11    1    3    3    0    0  0.15870488106E+02  0.11199832716E+02  0.60069741578E+01  0.20332053128E+02  0.51100000000E-03 0. -1.
        -11    1    3    3    0    0 -0.46022717777E+01 -0.23980916012E+02  0.11379449108E+02  0.26939879371E+02  0.51100000000E-03 0.  1.
        -12    1    3    3    0    0 -0.79913133743E+01  0.23749737853E+02 -0.25659469430E+01  0.25189188578E+02  0.00000000000E+00 0.  1.
</event>
<event>
 7    1  0.1465576E-013  0.7246156E+02  0.7816164E-02  0.1226708E+00
        -11   -1    0    0    0    0  0.00000000000E+00  0.00000000000E+00  0.45593999997E+02  0.45594000000E+02  0.51100000000E-03 0.  1.
         11   -1    0    0    0    0 -0.00000000000E+00 -0.00000000000E+00 -0.45593999997E+02  0.45594000000E+02  0.51100000000E-03 0. -1.
    9900012    2    1    2    0    0  0.84148037374E+01 -0.13818362105E+02  0.94299356288E+01  0.72461555085E+02  0.69999980186E+02 0.  0.
         12    1    1    2    0    0 -0.84148037374E+01  0.13818362105E+02 -0.94299356288E+01  0.18726444915E+02  0.00000000000E+00 0. -1.
         11    1    3    3    0    0 -0.84547437826E+01  0.58744479200E+01 -0.17657184842E+02  0.20439373953E+02  0.51100000000E-03 0. -1.
        -11    1    3    3    0    0  0.18012844340E+02  0.57780147223E+01  0.11667048062E+02  0.22225391472E+02  0.51100000000E-03 0.  1.
        -12    1    3    3    0    0 -0.11432968201E+01 -0.25470824747E+02  0.15420072409E+02  0.29796789660E+02  0.00000000000E+00 0.  1.
</event>
<event>
 7    1  0.1333056E-013  0.7246158E+02  0.7816164E-02  0.1226708E+00
        -11   -1    0    0    0    0  0.00000000000E+00  0.00000000000E+00  0.45593999997E+02  0.45594000000E+02  0.51100000000E-03 0.  1.
         11   -1    0    0    0    0 -0.00000000000E+00 -0.00000000000E+00 -0.45593999997E+02  0.45594000000E+02  0.51100000000E-03 0. -1.
    9900012    2    1    2    0    0  0.24501970401E+01  0.13868064640E+02 -0.12343101938E+02  0.72461578883E+02  0.70000011189E+02 0.  0.
         12    1    1    2    0    0 -0.24501970401E+01 -0.13868064640E+02  0.12343101938E+02  0.18726421117E+02  0.00000000000E+00 0. -1.
         11    1    3    3    0    0  0.26786151792E+01 -0.17464521987E+02 -0.15590689352E+02  0.23563830382E+02  0.51100000000E-03 0. -1.
        -11    1    3    3    0    0 -0.16952048110E+02  0.14318254169E+02  0.96486617653E+01  0.24196714895E+02  0.51100000000E-03 0.  1.
        -12    1    3    3    0    0  0.16723629971E+02  0.17014332458E+02 -0.64010743506E+01  0.24701033607E+02  0.00000000000E+00 0.  1.
</event>
<event>
 7    1  0.1333056E-013  0.7246161E+02  0.7816164E-02  0.1226708E+00
        -11   -1    0    0    0    0  0.00000000000E+00  0.00000000000E+00  0.45593999997E+02  0.45594000000E+02  0.51100000000E-03 0.  1.
         11   -1    0    0    0    0 -0.00000000000E+00 -0.00000000000E+00 -0.45593999997E+02  0.45594000000E+02  0.51100000000E-03 0. -1.
    9900012    2    1    2    0    0  0.85892745766E+01 -0.10856617806E+02  0.12610945660E+02  0.72461608506E+02  0.70000049777E+02 0.  0.
         12    1    1    2    0    0 -0.85892745766E+01  0.10856617806E+02 -0.12610945660E+02  0.18726391494E+02  0.00000000000E+00 0. -1.
         11    1    3    3    0    0  0.32097805888E+02 -0.16309463806E+02 -0.11140960399E+02  0.37688045204E+02  0.51100000000E-03 0. -1.
        -11    1    3    3    0    0 -0.86982984925E+01  0.23624856160E+01  0.39181679809E+01  0.98282132424E+01  0.51100000000E-03 0.  1.
         12    1    3    3    0    0 -0.14810232819E+02  0.30903603833E+01  0.19833738078E+02  0.24945350059E+02  0.00000000000E+00 0. -1.
</event>
<event>
 7    1  0.1333056E-013  0.7246171E+02  0.7816164E-02  0.1226708E+00
        -11   -1    0    0    0    0  0.00000000000E+00  0.00000000000E+00  0.45593999997E+02  0.45594000000E+02  0.51100000000E-03 0.  1.
         11   -1    0    0    0    0 -0.00000000000E+00 -0.00000000000E+00 -0.45593999997E+02  0.45594000000E+02  0.51100000000E-03 0. -1.
    9900012    2    1    2    0    0 -0.17819367979E+02 -0.51944622272E+01 -0.24822521646E+01  0.72461711291E+02  0.70000183674E+02 0.  0.
         12    1    1    2    0    0  0.17819367979E+02  0.51944622272E+01  0.24822521646E+01  0.18726288709E+02  0.00000000000E+00 0. -1.
         11    1    3    3    0    0 -0.16353320979E+02  0.41935971115E+01  0.12471322275E+01  0.16928458371E+02  0.51100000000E-03 0. -1.
        -11    1    3    3    0    0  0.10291548082E+02 -0.79520735431E+00 -0.26536430360E+02  0.28473328804E+02  0.51100000000E-03 0.  1.
        -12    1    3    3    0    0 -0.11757595082E+02 -0.85928519844E+01  0.22807045968E+02  0.27059924115E+02  0.00000000000E+00 0.  1.
</event>
<event>
 7    1  0.1333056E-013  0.7246157E+02  0.7816164E-02  0.1226708E+00
        -11   -1    0    0    0    0  0.00000000000E+00  0.00000000000E+00  0.45593999997E+02  0.45594000000E+02  0.51100000000E-03 0. -1.
         11   -1    0    0    0    0 -0.00000000000E+00 -0.00000000000E+00 -0.45593999997E+02  0.45594000000E+02  0.51100000000E-03 0.  1.
    9900012    2    1    2    0    0  0.11607405854E+02 -0.10829279016E+02 -0.99334881400E+01  0.72461565708E+02  0.69999994026E+02 0.  0.
         12    1    1    2    0    0 -0.11607405854E+02  0.10829279016E+02  0.99334881400E+01  0.18726434292E+02  0.00000000000E+00 0. -1.
         11    1    3    3    0    0  0.21032014310E+02  0.80457015177E+01  0.92483184244E+00  0.22537396768E+02  0.51100000000E-03 0.  1.
        -11    1    3    3    0    0  0.46285003898E+00 -0.25539628130E+02 -0.21919858450E+02  0.33659575605E+02  0.51100000000E-03 0. -1.
         12    1    3    3    0    0 -0.98874584958E+01  0.66646475967E+01  0.11061538468E+02  0.16264593335E+02  0.00000000000E+00 0. -1.
</event>
<event>
 7    1  0.1333056E-013  0.7246156E+02  0.7816164E-02  0.1226708E+00
        -11   -1    0    0    0    0  0.00000000000E+00  0.00000000000E+00  0.45593999997E+02  0.45594000000E+02  0.51100000000E-03 0.  1.
         11   -1    0    0    0    0 -0.00000000000E+00 -0.00000000000E+00 -0.45593999997E+02  0.45594000000E+02  0.51100000000E-03 0. -1.
    9900012    2    1    2    0    0 -0.81149217827E+01 -0.44668699505E+01 -0.16274974032E+02  0.72461557133E+02  0.69999982855E+02 0.  0.
         12    1    1    2    0    0  0.81149217827E+01  0.44668699505E+01  0.16274974032E+02  0.18726442867E+02  0.00000000000E+00 0. -1.
         11    1    3    3    0    0 -0.12843903394E+02  0.25204739383E+02 -0.16868761875E+02  0.32936300175E+02  0.51100000000E-03 0. -1.
        -11    1    3    3    0    0  0.14065438523E+02 -0.89222634304E+01  0.17139038314E+01  0.16744575605E+02  0.51100000000E-03 0.  1.
         12    1    3    3    0    0 -0.93364569116E+01 -0.20749345903E+02 -0.11201159884E+01  0.22780681353E+02  0.00000000000E+00 0. -1.
</event>
<event>
 7    1  0.1333056E-013  0.7246159E+02  0.7816164E-02  0.1226708E+00
        -11   -1    0    0    0    0  0.00000000000E+00  0.00000000000E+00  0.45593999997E+02  0.45594000000E+02  0.51100000000E-03 0. -1.
         11   -1    0    0    0    0 -0.00000000000E+00 -0.00000000000E+00 -0.45593999997E+02  0.45594000000E+02  0.51100000000E-03 0.  1.
    9900012    2    1    2    0    0 -0.10927335193E+02 -0.87987942451E+01 -0.12403747504E+02  0.72461591195E+02  0.70000027227E+02 0.  0.
         12    1    1    2    0    0  0.10927335193E+02  0.87987942451E+01  0.12403747504E+02  0.18726408805E+02  0.00000000000E+00 0. -1.
         11    1    3    3    0    0  0.21042948349E+02  0.79206986374E+01 -0.19450107905E+01  0.22568256675E+02  0.51100000000E-03 0. -1.
        -11    1    3    3    0    0 -0.10814453824E+02 -0.23502993706E+02 -0.98038154452E+01  0.27666910239E+02  0.51100000000E-03 0.  1.
         12    1    3    3    0    0 -0.21155829718E+02  0.67835008231E+01 -0.65492126779E+00  0.22226424281E+02  0.00000000000E+00 0. -1.
</event>
<event>
 7    1  0.1333056E-013  0.7246159E+02  0.7816164E-02  0.1226708E+00
        -11   -1    0    0    0    0  0.00000000000E+00  0.00000000000E+00  0.45593999997E+02  0.45594000000E+02  0.51100000000E-03 0. -1.
         11   -1    0    0    0    0 -0.00000000000E+00 -0.00000000000E+00 -0.45593999997E+02  0.45594000000E+02  0.51100000000E-03 0.  1.
    9900012    2    1    2    0    0 -0.18473429648E+02 -0.30405845013E+01  0.40719472042E+00  0.72461586446E+02  0.70000021040E+02 0.  0.
         12    1    1    2    0    0  0.18473429648E+02  0.30405845013E+01 -0.40719472042E+00  0.18726413554E+02  0.00000000000E+00 0. -1.
         11    1    3    3    0    0  0.56694383500E+01 -0.23274484958E+02  0.56262026321E+01  0.24606875819E+02  0.51100000000E-03 0. -1.
        -11    1    3    3    0    0  0.34856341312E+01  0.18237088981E+02 -0.75775110441E+01  0.20053920656E+02  0.51100000000E-03 0.  1.
        -12    1    3    3    0    0 -0.27628502129E+02  0.19968114751E+01  0.23585031323E+01  0.27800789970E+02  0.00000000000E+00 0.  1.
</event>
<event>
 8    1  0.1333056E-013  0.7246156E+02  0.7816164E-02  0.1226708E+00
        -11   -1    0    0    0    0  0.00000000000E+00  0.00000000000E+00  0.45593999997E+02  0.45594000000E+02  0.51100000000E-03 0. -1.
         11   -1    0    0    0    0 -0.00000000000E+00 -0.00000000000E+00 -0.45593999997E+02  0.45594000000E+02  0.51100000000E-03 0.  1.
    9900012    2    1    2    0    0 -0.18288406584E+02 -0.30998785044E+01  0.25699328829E+01  0.72461558343E+02  0.69999984431E+02 0.  0.
        -24    2    3    3    0    0 -0.58393529955E+01 -0.79091011342E+01  0.13957515305E+02  0.54917767669E+02  0.52196714917E+02 0.  0.
         12    1    1    2    0    0  0.18288406584E+02  0.30998785044E+01 -0.25699328829E+01  0.18726441657E+02  0.00000000000E+00 0. -1.
         11    1    4    4    0    0 -0.13578853905E+02 -0.27991654447E+02  0.11853064833E+02  0.33292839144E+02  0.51100000000E-03 0. -1.
        -11    1    3    3    0    0 -0.12449053588E+02  0.48092226298E+01 -0.11387582422E+02  0.17543790674E+02  0.51100000000E-03 0.  1.
        -12    1    4    4    0    0  0.77395009096E+01  0.20082553313E+02  0.21044504716E+01  0.21624928525E+02  0.00000000000E+00 0.  1.
</event>
<event>
 8    1  0.1333056E-013  0.7246161E+02  0.7816164E-02  0.1226708E+00
        -11   -1    0    0    0    0  0.00000000000E+00  0.00000000000E+00  0.45593999997E+02  0.45594000000E+02  0.51100000000E-03 0.  1.
         11   -1    0    0    0    0 -0.00000000000E+00 -0.00000000000E+00 -0.45593999997E+02  0.45594000000E+02  0.51100000000E-03 0. -1.
    9900012    2    1    2    0    0 -0.82080453827E+01 -0.68564026873E+01  0.15371898478E+02  0.72461614080E+02  0.70000057039E+02 0.  0.
         24    2    3    3    0    0 -0.19582893001E+02 -0.10017028267E+02  0.11342836639E+02  0.59987238266E+02  0.54644105429E+02 0.  0.
         12    1    1    2    0    0  0.82080453827E+01  0.68564026873E+01 -0.15371898478E+02  0.18726385920E+02  0.00000000000E+00 0. -1.
         11    1    3    3    0    0  0.11374847618E+02  0.31606255798E+01  0.40290618393E+01  0.12474375814E+02  0.51100000000E-03 0. -1.
        -11    1    4    4    0    0 -0.17836783538E+02 -0.16010400431E+02  0.31101669329E+02  0.39265730660E+02  0.51100000000E-03 0.  1.
         12    1    4    4    0    0 -0.17461094626E+01  0.59933721642E+01 -0.19758832690E+02  0.20721507605E+02  0.00000000000E+00 0. -1.
</event>
<event>
 7    1  0.1333056E-013  0.7246158E+02  0.7816164E-02  0.1226708E+00
        -11   -1    0    0    0    0  0.00000000000E+00  0.00000000000E+00  0.45593999997E+02  0.45594000000E+02  0.51100000000E-03 0. -1.
         11   -1    0    0    0    0 -0.00000000000E+00 -0.00000000000E+00 -0.45593999997E+02  0.45594000000E+02  0.51100000000E-03 0.  1.
    9900012    2    1    2    0    0 -0.17323144838E+02  0.70429872532E+01 -0.99185860341E+00  0.72461580160E+02  0.70000012852E+02 0.  0.
         12    1    1    2    0    0  0.17323144838E+02 -0.70429872532E+01  0.99185860341E+00  0.18726419840E+02  0.00000000000E+00 0. -1.
         11    1    3    3    0    0 -0.10381448277E+02 -0.66227169661E+01  0.92469459706E+01  0.15399378506E+02  0.51100000000E-03 0. -1.
        -11    1    3    3    0    0  0.84151255565E+01  0.22248828136E+02 -0.24697918999E+02  0.34290113658E+02  0.51100000000E-03 0.  1.
        -12    1    3    3    0    0 -0.15356822117E+02 -0.85831239164E+01  0.14459114425E+02  0.22772087996E+02  0.00000000000E+00 0.  1.
</event>
<event>
 7    1  0.1333056E-013  0.7246162E+02  0.7816164E-02  0.1226708E+00
        -11   -1    0    0    0    0  0.00000000000E+00  0.00000000000E+00  0.45593999997E+02  0.45594000000E+02  0.51100000000E-03 0. -1.
         11   -1    0    0    0    0 -0.00000000000E+00 -0.00000000000E+00 -0.45593999997E+02  0.45594000000E+02  0.51100000000E-03 0.  1.
    9900012    2    1    2    0    0  0.57176183522E+00  0.11095583294E+02 -0.15074431888E+02  0.72461618155E+02  0.70000062348E+02 0.  0.
         12    1    1    2    0    0 -0.57176183522E+00 -0.11095583294E+02  0.15074431888E+02  0.18726381845E+02  0.00000000000E+00 0. -1.
         11    1    3    3    0    0  0.87530776267E+01  0.31199275600E+01  0.61333211732E+01  0.11134089311E+02  0.51100000000E-03 0. -1.
        -11    1    3    3    0    0 -0.13433042843E+02 -0.15833197837E+02  0.88957107820E+01  0.22589166969E+02  0.51100000000E-03 0.  1.
        -12    1    3    3    0    0  0.52517270513E+01  0.23808853571E+02 -0.30103463844E+02  0.38738361875E+02  0.00000000000E+00 0.  1.
</event>
<event>
 7    1  0.1333056E-013  0.7246151E+02  0.7816164E-02  0.1226708E+00
        -11   -1    0    0    0    0  0.00000000000E+00  0.00000000000E+00  0.45593999997E+02  0.45594000000E+02  0.51100000000E-03 0.  1.
         11   -1    0    0    0    0 -0.00000000000E+00 -0.00000000000E+00 -0.45593999997E+02  0.45594000000E+02  0.51100000000E-03 0. -1.
    9900012    2    1    2    0    0  0.43883792881E+01  0.11114784365E+02  0.14418226453E+02  0.72461506513E+02  0.69999916913E+02 0.  0.
         12    1    1    2    0    0 -0.43883792881E+01 -0.11114784365E+02 -0.14418226453E+02  0.18726493487E+02  0.00000000000E+00 0. -1.
         11    1    3    3    0    0  0.26126610087E+02  0.18198548477E+02  0.22593572611E+02  0.39041726971E+02  0.51100000000E-03 0.  1.
        -11    1    3    3    0    0 -0.14278300689E+02  0.73669291235E+01 -0.51991727899E+01  0.16887063487E+02  0.51100000000E-03 0. -1.
         12    1    3    3    0    0 -0.74599301101E+01 -0.14450693236E+02 -0.29761733679E+01  0.16532716055E+02  0.00000000000E+00 0. -1.
</event>
<event>
 7    1  0.1333056E-013  0.7246149E+02  0.7816164E-02  0.1226708E+00
        -11   -1    0    0    0    0  0.00000000000E+00  0.00000000000E+00  0.45593999997E+02  0.45594000000E+02  0.51100000000E-03 0.  1.
         11   -1    0    0    0    0 -0.00000000000E+00 -0.00000000000E+00 -0.45593999997E+02  0.45594000000E+02  0.51100000000E-03 0. -1.
    9900012    2    1    2    0    0 -0.73464900449E+00  0.32729155936E+01  0.18423635005E+02  0.72461494388E+02  0.69999901117E+02 0.  0.
         12    1    1    2    0    0  0.73464900449E+00 -0.32729155936E+01 -0.18423635005E+02  0.18726505612E+02  0.00000000000E+00 0. -1.
         11    1    3    3    0    0 -0.12536098403E+02  0.95558418100E+01 -0.10882253537E+02  0.19154407278E+02  0.51100000000E-03 0. -1.
        -11    1    3    3    0    0  0.24305882849E+02  0.72438744969E+01  0.12101976022E+02  0.28101734514E+02  0.51100000000E-03 0.  1.
        -12    1    3    3    0    0 -0.12504433451E+02 -0.13526800713E+02  0.17203912521E+02  0.25205352596E+02  0.00000000000E+00 0.  1.
</event>
<event>
 7    1  0.1333056E-013  0.7246156E+02  0.7816164E-02  0.1226708E+00
        -11   -1    0    0    0    0  0.00000000000E+00  0.00000000000E+00  0.45593999997E+02  0.45594000000E+02  0.51100000000E-03 0.  1.
         11   -1    0    0    0    0 -0.00000000000E+00 -0.00000000000E+00 -0.45593999997E+02  0.45594000000E+02  0.51100000000E-03 0. -1.
    9900012    2    1    2    0    0 -0.31628908707E+01 -0.18182254047E+02  0.31751227659E+01  0.72461557587E+02  0.69999983446E+02 0.  0.
         12    1    1    2    0    0  0.31628908707E+01  0.18182254047E+02 -0.31751227659E+01  0.18726442413E+02  0.00000000000E+00 0. -1.
         11    1    3    3    0    0 -0.15368669280E+02 -0.18045097212E+02 -0.15085721339E+02  0.28096272304E+02  0.51100000000E-03 0. -1.
        -11    1    3    3    0    0  0.12477778833E+02 -0.11964198529E+02  0.25268094368E+02  0.30615577804E+02  0.51100000000E-03 0.  1.
         12    1    3    3    0    0 -0.27200042419E+00  0.11827041695E+02 -0.70072502628E+01  0.13749707478E+02  0.00000000000E+00 0. -1.
</event>
<event>
 7    1  0.1333056E-013  0.7246146E+02  0.7816164E-02  0.1226708E+00
        -11   -1    0    0    0    0  0.00000000000E+00  0.00000000000E+00  0.45593999997E+02  0.45594000000E+02  0.51100000000E-03 0.  1.
         11   -1    0    0    0    0 -0.00000000000E+00 -0.00000000000E+00 -0.45593999997E+02  0.45594000000E+02  0.51100000000E-03 0. -1.
    9900012    2    1    2    0    0  0.17339753617E+02 -0.52976530838E+01  0.46852150835E+01  0.72461456698E+02  0.69999852019E+02 0.  0.
         12    1    1    2    0    0 -0.17339753617E+02  0.52976530838E+01 -0.46852150835E+01  0.18726543302E+02  0.00000000000E+00 0. -1.
         11    1    3    3    0    0  0.25936608086E+02  0.11528607640E+01 -0.26599372526E+02  0.37169387216E+02  0.51100000000E-03 0. -1.
        -11    1    3    3    0    0 -0.35769773867E+01 -0.55243994380E+01  0.43754742036E+01  0.79030709944E+01  0.51100000000E-03 0.  1.
         12    1    3    3    0    0 -0.50198770833E+01 -0.92611440981E+00  0.26909113406E+02  0.27388998487E+02  0.00000000000E+00 0. -1.
</event>
<event>
 7    1  0.1533755E-013  0.7246149E+02  0.7816164E-02  0.1226708E+00
        -11   -1    0    0    0    0  0.00000000000E+00  0.00000000000E+00  0.45593999997E+02  0.45594000000E+02  0.51100000000E-03 0. -1.
         11   -1    0    0    0    0 -0.00000000000E+00 -0.00000000000E+00 -0.45593999997E+02  0.45594000000E+02  0.51100000000E-03 0.  1.
    9900012    2    1    2    0    0 -0.96179347709E+01  0.11778981761E+02 -0.10928537415E+02  0.72461494436E+02  0.69999901181E+02 0.  0.
         12    1    1    2    0    0  0.96179347709E+01 -0.11778981761E+02  0.10928537415E+02  0.18726505564E+02  0.00000000000E+00 0. -1.
         11    1    3    3    0    0  0.24194850987E+02  0.18601565240E+01  0.35459554955E+01  0.24523963734E+02  0.51100000000E-03 0. -1.
        -11    1    3    3    0    0 -0.22592596608E+02  0.20127180957E+02 -0.71422368879E+01  0.31089232586E+02  0.51100000000E-03 0.  1.
        -12    1    3    3    0    0 -0.11220189150E+02 -0.10208355720E+02 -0.73322560226E+01  0.16848298117E+02  0.00000000000E+00 0.  1.
</event>
<event>
 7    1  0.1333056E-013  0.7246161E+02  0.7816164E-02  0.1226708E+00
        -11   -1    0    0    0    0  0.00000000000E+00  0.00000000000E+00  0.45593999997E+02  0.45594000000E+02  0.51100000000E-03 0.  1.
         11   -1    0    0    0    0 -0.00000000000E+00 -0.00000000000E+00 -0.45593999997E+02  0.45594000000E+02  0.51100000000E-03 0. -1.
    9900012    2    1    2    0    0 -0.15699859088E+02  0.79213796761E+01  0.64376861070E+01  0.72461611299E+02  0.70000053416E+02 0.  0.
         12    1    1    2    0    0  0.15699859088E+02 -0.79213796761E+01 -0.64376861070E+01  0.18726388701E+02  0.00000000000E+00 0. -1.
         11    1    3    3    0    0 -0.16173033300E+02  0.16950179275E+02 -0.10612059963E+02  0.25719475121E+02  0.51100000000E-03 0. -1.
        -11    1    3    3    0    0  0.13672208431E+02  0.79785422373E+01  0.19453234304E+02  0.25080166362E+02  0.51100000000E-03 0.  1.
        -12    1    3    3    0    0 -0.13199034219E+02 -0.17007341836E+02 -0.24034882342E+01  0.21661969816E+02  0.00000000000E+00 0.  1.
</event>
<event>
 7    1  0.1333056E-013  0.7246140E+02  0.7816164E-02  0.1226708E+00
        -11   -1    0    0    0    0  0.00000000000E+00  0.00000000000E+00  0.45593999997E+02  0.45594000000E+02  0.51100000000E-03 0.  1.
         11   -1    0    0    0    0 -0.00000000000E+00 -0.00000000000E+00 -0.45593999997E+02  0.45594000000E+02  0.51100000000E-03 0. -1.
    9900012    2    1    2    0    0 -0.10205462977E+02 -0.33846966867E+01  0.15332245681E+02  0.72461403837E+02  0.69999783158E+02 0.  0.
         12    1    1    2    0    0  0.10205462977E+02  0.33846966867E+01 -0.15332245681E+02  0.18726596163E+02  0.00000000000E+00 0. -1.
         11    1    3    3    0    0  0.10262645955E+02 -0.63958901514E+01 -0.21058474882E+02  0.24283506284E+02  0.51100000000E-03 0. -1.
        -11    1    3    3    0    0 -0.25669197200E+01 -0.94290396055E+01  0.11088437920E+02  0.14780031140E+02  0.51100000000E-03 0.  1.
         12    1    3    3    0    0 -0.17901189212E+02  0.12440233070E+02  0.25302282643E+02  0.33397866414E+02  0.00000000000E+00 0. -1.
</event>
<event>
 7    1  0.1333056E-013  0.7246156E+02  0.7816164E-02  0.1226708E+00
        -11   -1    0    0    0    0  0.00000000000E+00  0.00000000000E+00  0.45593999997E+02  0.45594000000E+02  0.51100000000E-03 0.  1.
         11   -1    0    0    0    0 -0.00000000000E+00 -0.00000000000E+00 -0.45593999997E+02  0.45594000000E+02  0.51100000000E-03 0. -1.
    9900012    2    1    2    0    0 -0.20992795205E+01  0.18590279944E+02  0.82092490011E+00  0.72461564124E+02  0.69999991962E+02 0.  0.
         12    1    1    2    0    0  0.20992795205E+01 -0.18590279944E+02 -0.82092490011E+00  0.18726435876E+02  0.00000000000E+00 0. -1.
         11    1    3    3    0    0 -0.80712810867E+01 -0.17040626335E+02 -0.36071728790E+01  0.19197401405E+02  0.51100000000E-03 0. -1.
        -11    1    3    3    0    0  0.13216531330E+02  0.21644977889E+02 -0.14042856390E+02  0.28989370190E+02  0.51100000000E-03 0.  1.
         12    1    3    3    0    0 -0.72445297638E+01  0.13985928390E+02  0.18470954169E+02  0.24274792529E+02  0.00000000000E+00 0. -1.
</event>
<event>
 7    1  0.1333056E-013  0.7246157E+02  0.7816164E-02  0.1226708E+00
        -11   -1    0    0    0    0  0.00000000000E+00  0.00000000000E+00  0.45593999997E+02  0.45594000000E+02  0.51100000000E-03 0. -1.
         11   -1    0    0    0    0 -0.00000000000E+00 -0.00000000000E+00 -0.45593999997E+02  0.45594000000E+02  0.51100000000E-03 0.  1.
    9900012    2    1    2    0    0  0.81150996651E+01  0.13285142222E+02  0.10408131921E+02  0.72461573311E+02  0.70000003930E+02 0.  0.
         12    1    1    2    0    0 -0.81150996651E+01 -0.13285142222E+02 -0.10408131921E+02  0.18726426689E+02  0.00000000000E+00 0. -1.
         11    1    3    3    0    0 -0.23968505072E+02  0.80283807372E+00 -0.11953429094E+01  0.24011718583E+02  0.51100000000E-03 0.  1.
        -11    1    3    3    0    0  0.28285460823E+02  0.13622565079E+02  0.21323685770E+02  0.37951826681E+02  0.51100000000E-03 0. -1.
         12    1    3    3    0    0  0.37981439140E+01 -0.11402609306E+01 -0.97202109399E+01  0.10498028048E+02  0.00000000000E+00 0. -1.
</event>
<event>
 7    1  0.1333056E-013  0.7246156E+02  0.7816164E-02  0.1226708E+00
        -11   -1    0    0    0    0  0.00000000000E+00  0.00000000000E+00  0.45593999997E+02  0.45594000000E+02  0.51100000000E-03 0.  1.
         11   -1    0    0    0    0 -0.00000000000E+00 -0.00000000000E+00 -0.45593999997E+02  0.45594000000E+02  0.51100000000E-03 0. -1.
    9900012    2    1    2    0    0 -0.92346424557E+01 -0.88649476875E+01  0.13667978695E+02  0.72461559858E+02  0.69999986404E+02 0.  0.
         12    1    1    2    0    0  0.92346424557E+01  0.88649476875E+01 -0.13667978695E+02  0.18726440142E+02  0.00000000000E+00 0. -1.
         11    1    3    3    0    0  0.39789472965E+01  0.19744431127E+02 -0.12329690794E+02  0.23615585054E+02  0.51100000000E-03 0. -1.
        -11    1    3    3    0    0  0.27315289653E+01 -0.37340620393E+01  0.17500019983E+02  0.18101247732E+02  0.51100000000E-03 0.  1.
         12    1    3    3    0    0 -0.15945118717E+02 -0.24875316775E+02  0.84976495069E+01  0.30744727072E+02  0.00000000000E+00 0. -1.
</event>
<event>
 7    1  0.1333056E-013  0.7246157E+02  0.7816164E-02  0.1226708E+00
        -11   -1    0    0    0    0  0.00000000000E+00  0.00000000000E+00  0.45593999997E+02  0.45594000000E+02  0.51100000000E-03 0. -1.
         11   -1    0    0    0    0 -0.00000000000E+00 -0.00000000000E+00 -0.45593999997E+02  0.45594000000E+02  0.51100000000E-03 0.  1.
    9900012    2    1    2    0    0  0.69186695283E+01 -0.90245489952E+01  0.14878458901E+02  0.72461574503E+02  0.70000005483E+02 0.  0.
         12    1    1    2    0    0 -0.69186695283E+01  0.90245489952E+01 -0.14878458901E+02  0.18726425497E+02  0.00000000000E+00 0. -1.
         11    1    3    3    0    0  0.25573745999E+02  0.15549454425E+01  0.15908665538E+02  0.30158248941E+02  0.51100000000E-03 0. -1.
        -11    1    3    3    0    0 -0.68639519979E+01  0.12523178087E+02 -0.66665594538E+01  0.15760293196E+02  0.51100000000E-03 0.  1.
         12    1    3    3    0    0 -0.11791124472E+02 -0.23102672525E+02  0.56363528173E+01  0.26543032366E+02  0.00000000000E+00 0. -1.
</event>
<event>
 7    1  0.1333056E-013  0.7246150E+02  0.7816164E-02  0.1226708E+00
        -11   -1    0    0    0    0  0.00000000000E+00  0.00000000000E+00  0.45593999997E+02  0.45594000000E+02  0.51100000000E-03 0.  1.
         11   -1    0    0    0    0 -0.00000000000E+00 -0.00000000000E+00 -0.45593999997E+02  0.45594000000E+02  0.51100000000E-03 0. -1.
    9900012    2    1    2    0    0  0.17531959369E+02  0.58979566038E+01 -0.29200152874E+01  0.72461495235E+02  0.69999902221E+02 0.  0.
         12    1    1    2    0    0 -0.17531959369E+02 -0.58979566038E+01  0.29200152874E+01  0.18726504765E+02  0.00000000000E+00 0. -1.
         11    1    3    3    0    0  0.13344950602E+02  0.10800364588E+02 -0.74996003647E+01  0.18734449224E+02  0.51100000000E-03 0. -1.
        -11    1    3    3    0    0 -0.20398351107E+02 -0.16277225533E+02 -0.79912964883E+00  0.26108990930E+02  0.51100000000E-03 0.  1.
        -12    1    3    3    0    0  0.24585359874E+02  0.11374817548E+02  0.53787147261E+01  0.27618055082E+02  0.00000000000E+00 0.  1.
</event>
<event>
 7    1  0.1333056E-013  0.7246155E+02  0.7816164E-02  0.1226708E+00
        -11   -1    0    0    0    0  0.00000000000E+00  0.00000000000E+00  0.45593999997E+02  0.45594000000E+02  0.51100000000E-03 0. -1.
         11   -1    0    0    0    0 -0.00000000000E+00 -0.00000000000E+00 -0.45593999997E+02  0.45594000000E+02  0.51100000000E-03 0.  1.
    9900012    2    1    2    0    0  0.12835895687E+02 -0.12279794340E+02 -0.59267559105E+01  0.72461548048E+02  0.69999971019E+02 0.  0.
         12    1    1    2    0    0 -0.12835895687E+02  0.12279794340E+02  0.59267559105E+01  0.18726451952E+02  0.00000000000E+00 0. -1.
         11    1    3    3    0    0 -0.23381345519E+01 -0.31971696516E+01  0.21195211084E+01  0.44923420344E+01  0.51100000000E-03 0. -1.
        -11    1    3    3    0    0  0.90055519422E+01  0.91858753846E+01 -0.33587688004E+02  0.35966832750E+02  0.51100000000E-03 0.  1.
        -12    1    3    3    0    0  0.61684782964E+01 -0.18268500073E+02  0.25541410985E+02  0.32002373263E+02  0.00000000000E+00 0.  1.
</event>
<event>
 7    1  0.1333056E-013  0.7246167E+02  0.7816164E-02  0.1226708E+00
        -11   -1    0    0    0    0  0.00000000000E+00  0.00000000000E+00  0.45593999997E+02  0.45594000000E+02  0.51100000000E-03 0.  1.
         11   -1    0    0    0    0 -0.00000000000E+00 -0.00000000000E+00 -0.45593999997E+02  0.45594000000E+02  0.51100000000E-03 0. -1.
    9900012    2    1    2    0    0  0.37648045146E+01  0.18339339640E+02 -0.41288504006E+00  0.72461665455E+02  0.70000123964E+02 0.  0.
         12    1    1    2    0    0 -0.37648045146E+01 -0.18339339640E+02  0.41288504006E+00  0.18726334545E+02  0.00000000000E+00 0. -1.
         11    1    3    3    0    0  0.19191854845E+02 -0.14940644067E+02 -0.73650436376E+01  0.25412477360E+02  0.51100000000E-03 0. -1.
        -11    1    3    3    0    0 -0.81477048181E+01  0.22198395051E+02  0.18058590045E+02  0.29753428564E+02  0.51100000000E-03 0.  1.
        -12    1    3    3    0    0 -0.72793455121E+01  0.11081588656E+02 -0.11106431448E+02  0.17295759531E+02  0.00000000000E+00 0.  1.
</event>
<event>
 7    1  0.1333056E-013  0.7246148E+02  0.7816164E-02  0.1226708E+00
        -11   -1    0    0    0    0  0.00000000000E+00  0.00000000000E+00  0.45593999997E+02  0.45594000000E+02  0.51100000000E-03 0. -1.
         11   -1    0    0    0    0 -0.00000000000E+00 -0.00000000000E+00 -0.45593999997E+02  0.45594000000E+02  0.51100000000E-03 0.  1.
    9900012    2    1    2    0    0 -0.30716774672E+01 -0.11881316801E+02 -0.14145019582E+02  0.72461482161E+02  0.69999885190E+02 0.  0.
         12    1    1    2    0    0  0.30716774672E+01  0.11881316801E+02  0.14145019582E+02  0.18726517839E+02  0.00000000000E+00 0. -1.
         11    1    3    3    0    0  0.21972355346E+02 -0.11841567643E+02 -0.23465310746E+02  0.34258253492E+02  0.51100000000E-03 0. -1.
        -11    1    3    3    0    0 -0.99232114287E+01 -0.89125726243E+01  0.14714747627E+02  0.19860208303E+02  0.51100000000E-03 0.  1.
        -12    1    3    3    0    0 -0.15120821384E+02  0.88728234664E+01 -0.53944564637E+01  0.18343020366E+02  0.00000000000E+00 0.  1.
</event>
<event>
 8    1  0.1333056E-013  0.7246151E+02  0.7816164E-02  0.1226708E+00
        -11   -1    0    0    0    0  0.00000000000E+00  0.00000000000E+00  0.45593999997E+02  0.45594000000E+02  0.51100000000E-03 0.  1.
         11   -1    0    0    0    0 -0.00000000000E+00 -0.00000000000E+00 -0.45593999997E+02  0.45594000000E+02  0.51100000000E-03 0. -1.
    9900012    2    1    2    0    0  0.12695055603E+02  0.71790322848E+01  0.11746424367E+02  0.72461510027E+02  0.69999921490E+02 0.  0.
        -24    2    3    3    0    0  0.19297108292E+02  0.60806270421E+01 -0.49375138826E+01  0.54485209252E+02  0.50347855667E+02 0.  0.
         12    1    1    2    0    0 -0.12695055603E+02 -0.71790322848E+01 -0.11746424367E+02  0.18726489973E+02  0.00000000000E+00 0. -1.
         11    1    4    4    0    0  0.68651172923E+01 -0.15994625330E+02 -0.18787804962E+02  0.25611315672E+02  0.51100000000E-03 0. -1.
        -11    1    3    3    0    0 -0.66020526887E+01  0.10984052427E+01  0.16683938249E+02  0.17976300775E+02  0.51100000000E-03 0.  1.
        -12    1    4    4    0    0  0.12431991000E+02  0.22075252372E+02  0.13850291079E+02  0.28873893580E+02  0.00000000000E+00 0.  1.
</event>
<event>
 7    1  0.1333056E-013  0.7246234E+02  0.7816164E-02  0.1226706E+00
        -11   -1    0    0    0    0  0.00000000000E+00  0.00000000000E+00  0.45593999997E+02  0.45594000000E+02  0.51100000000E-03 0.  1.
         11   -1    0    0    0    0 -0.00000000000E+00 -0.00000000000E+00 -0.45593999997E+02  0.45594000000E+02  0.51100000000E-03 0. -1.
    9900012    2    1    2    0    0  0.15145054409E+02  0.99092050045E+01 -0.48047089789E+01  0.72462342595E+02  0.70001006058E+02 0.  0.
         12    1    1    2    0    0 -0.15145054409E+02 -0.99092050045E+01  0.48047089789E+01  0.18725657405E+02  0.00000000000E+00 0. -1.
         11    1    3    3    0    0  0.49180565681E+01  0.27108326877E+02 -0.71978450822E+01  0.28475562165E+02  0.51100000000E-03 0. -1.
        -11    1    3    3    0    0 -0.15295153302E+01 -0.26284488224E+02  0.88638108719E+01  0.27780944580E+02  0.51100000000E-03 0.  1.
        -12    1    3    3    0    0  0.11756513171E+02  0.90853663507E+01 -0.64706747686E+01  0.16205835851E+02  0.00000000000E+00 0.  1.
</event>
<event>
 7    1  0.1333056E-013  0.7246157E+02  0.7816164E-02  0.1226708E+00
        -11   -1    0    0    0    0  0.00000000000E+00  0.00000000000E+00  0.45593999997E+02  0.45594000000E+02  0.51100000000E-03 0. -1.
         11   -1    0    0    0    0 -0.00000000000E+00 -0.00000000000E+00 -0.45593999997E+02  0.45594000000E+02  0.51100000000E-03 0.  1.
    9900012    2    1    2    0    0  0.49789706299E+01  0.63865215499E+01 -0.16884945676E+02  0.72461569574E+02  0.69999999061E+02 0.  0.
         12    1    1    2    0    0 -0.49789706299E+01 -0.63865215499E+01  0.16884945676E+02  0.18726430426E+02  0.00000000000E+00 0. -1.
         11    1    3    3    0    0 -0.89842415765E+01 -0.24217327755E+02  0.11192073003E+02  0.28150631586E+02  0.51100000000E-03 0. -1.
        -11    1    3    3    0    0  0.32985847455E+01  0.14977182079E+02 -0.11727002248E+02  0.19305937593E+02  0.51100000000E-03 0.  1.
         12    1    3    3    0    0  0.10664627461E+02  0.15626667226E+02 -0.16350016431E+02  0.25005000395E+02  0.00000000000E+00 0. -1.
</event>
<event>
 7    1  0.1333056E-013  0.7246156E+02  0.7816164E-02  0.1226708E+00
        -11   -1    0    0    0    0  0.00000000000E+00  0.00000000000E+00  0.45593999997E+02  0.45594000000E+02  0.51100000000E-03 0. -1.
         11   -1    0    0    0    0 -0.00000000000E+00 -0.00000000000E+00 -0.45593999997E+02  0.45594000000E+02  0.51100000000E-03 0.  1.
    9900012    2    1    2    0    0  0.16628026797E+02 -0.84765496235E+01 -0.15285396465E+01  0.72461558744E+02  0.69999984953E+02 0.  0.
         12    1    1    2    0    0 -0.16628026797E+02  0.84765496235E+01  0.15285396465E+01  0.18726441256E+02  0.00000000000E+00 0. -1.
         11    1    3    3    0    0  0.40097838385E+01  0.13455770854E+02 -0.91294918037E+01  0.16747649285E+02  0.51100000000E-03 0. -1.
        -11    1    3    3    0    0 -0.11444214677E+00 -0.30178349870E+02 -0.10631038709E+02  0.31996326073E+02  0.51100000000E-03 0.  1.
        -12    1    3    3    0    0  0.12732685105E+02  0.82460293923E+01  0.18231990866E+02  0.23717583386E+02  0.00000000000E+00 0.  1.
</event>
<event>
 7    1  0.1333056E-013  0.7246159E+02  0.7816164E-02  0.1226708E+00
        -11   -1    0    0    0    0  0.00000000000E+00  0.00000000000E+00  0.45593999997E+02  0.45594000000E+02  0.51100000000E-03 0.  1.
         11   -1    0    0    0    0 -0.00000000000E+00 -0.00000000000E+00 -0.45593999997E+02  0.45594000000E+02  0.51100000000E-03 0. -1.
    9900012    2    1    2    0    0 -0.39895407051E+01  0.10714824389E+02  0.14830865891E+02  0.72461588711E+02  0.70000023991E+02 0.  0.
         12    1    1    2    0    0  0.39895407051E+01 -0.10714824389E+02 -0.14830865891E+02  0.18726411289E+02  0.00000000000E+00 0. -1.
         11    1    3    3    0    0 -0.46392185841E+01  0.22255353885E+02 -0.11195620578E+02  0.25340975633E+02  0.51100000000E-03 0. -1.
        -11    1    3    3    0    0 -0.15930328123E+02 -0.34289694194E+01  0.23343938944E+02  0.28468801714E+02  0.51100000000E-03 0.  1.
         12    1    3    3    0    0  0.16580006002E+02 -0.81115600775E+01  0.26825475251E+01  0.18651811363E+02  0.00000000000E+00 0. -1.
</event>
<event>
 7    1  0.1333056E-013  0.7246158E+02  0.7816164E-02  0.1226708E+00
        -11   -1    0    0    0    0  0.00000000000E+00  0.00000000000E+00  0.45593999997E+02  0.45594000000E+02  0.51100000000E-03 0.  1.
         11   -1    0    0    0    0 -0.00000000000E+00 -0.00000000000E+00 -0.45593999997E+02  0.45594000000E+02  0.51100000000E-03 0. -1.
    9900012    2    1    2    0    0 -0.77300730090E+01 -0.15759783344E+02  0.65233312252E+01  0.72461584164E+02  0.70000018068E+02 0.  0.
         12    1    1    2    0    0  0.77300730090E+01  0.15759783344E+02 -0.65233312252E+01  0.18726415836E+02  0.00000000000E+00 0. -1.
         11    1    3    3    0    0  0.66069455923E+01 -0.23149963621E+00 -0.85046085880E+01  0.10771893503E+02  0.51100000000E-03 0. -1.
        -11    1    3    3    0    0 -0.23248640219E+02 -0.28395192710E+02 -0.41534447789E+01  0.36932876206E+02  0.51100000000E-03 0.  1.
        -12    1    3    3    0    0  0.89116216177E+01  0.12866909002E+02  0.19181384592E+02  0.24756814456E+02  0.00000000000E+00 0.  1.
</event>
<event>
 7    1  0.1333056E-013  0.7246152E+02  0.7816164E-02  0.1226708E+00
        -11   -1    0    0    0    0  0.00000000000E+00  0.00000000000E+00  0.45593999997E+02  0.45594000000E+02  0.51100000000E-03 0.  1.
         11   -1    0    0    0    0 -0.00000000000E+00 -0.00000000000E+00 -0.45593999997E+02  0.45594000000E+02  0.51100000000E-03 0. -1.
    9900012    2    1    2    0    0  0.14670834772E+02 -0.74761934629E+01  0.89193116838E+01  0.72461521887E+02  0.69999936940E+02 0.  0.
         12    1    1    2    0    0 -0.14670834772E+02  0.74761934629E+01 -0.89193116838E+01  0.18726478113E+02  0.00000000000E+00 0. -1.
         11    1    3    3    0    0  0.23010317034E+02 -0.12452204632E+02 -0.10110754624E+02  0.28049232601E+02  0.51100000000E-03 0. -1.
        -11    1    3    3    0    0 -0.11042127282E+02  0.20369941824E+02  0.56773446936E+01  0.23855719395E+02  0.51100000000E-03 0.  1.
        -12    1    3    3    0    0  0.27026450207E+01 -0.15393930655E+02  0.13352721614E+02  0.20556569890E+02  0.00000000000E+00 0.  1.
</event>
<event>
 7    1  0.1333056E-013  0.7246157E+02  0.7816164E-02  0.1226708E+00
        -11   -1    0    0    0    0  0.00000000000E+00  0.00000000000E+00  0.45593999997E+02  0.45594000000E+02  0.51100000000E-03 0. -1.
         11   -1    0    0    0    0 -0.00000000000E+00 -0.00000000000E+00 -0.45593999997E+02  0.45594000000E+02  0.51100000000E-03 0.  1.
    9900012    2    1    2    0    0 -0.96462761649E+01 -0.15362601291E+02  0.46496442818E+01  0.72461565362E+02  0.69999993575E+02 0.  0.
         12    1    1    2    0    0  0.96462761649E+01  0.15362601291E+02 -0.46496442818E+01  0.18726434638E+02  0.00000000000E+00 0. -1.
         11    1    3    3    0    0 -0.78850343852E+01 -0.19846631431E+02  0.14145743450E+02  0.25615710110E+02  0.51100000000E-03 0. -1.
        -11    1    3    3    0    0  0.11320011509E+02  0.20963543419E+02 -0.15477731875E+00  0.23825128951E+02  0.51100000000E-03 0.  1.
        -12    1    3    3    0    0 -0.13081253289E+02 -0.16479513280E+02 -0.93413218499E+01  0.23020726301E+02  0.00000000000E+00 0.  1.
</event>
<event>
 7    1  0.1333056E-013  0.7246167E+02  0.7816164E-02  0.1226708E+00
        -11   -1    0    0    0    0  0.00000000000E+00  0.00000000000E+00  0.45593999997E+02  0.45594000000E+02  0.51100000000E-03 0.  1.
         11   -1    0    0    0    0 -0.00000000000E+00 -0.00000000000E+00 -0.45593999997E+02  0.45594000000E+02  0.51100000000E-03 0. -1.
    9900012    2    1    2    0    0 -0.90541872427E-01 -0.97719795985E+01  0.15974213051E+02  0.72461674528E+02  0.70000135783E+02 0.  0.
         12    1    1    2    0    0  0.90541872427E-01  0.97719795985E+01 -0.15974213051E+02  0.18726325472E+02  0.00000000000E+00 0. -1.
         11    1    3    3    0    0  0.22449270215E+01  0.91757397248E+01 -0.12732094097E+02  0.15853709887E+02  0.51100000000E-03 0. -1.
        -11    1    3    3    0    0  0.80324801005E+01 -0.30854613864E+02  0.13291854415E+02  0.34542746377E+02  0.51100000000E-03 0.  1.
         12    1    3    3    0    0 -0.10367948994E+02  0.11906894540E+02  0.15414452733E+02  0.22065218263E+02  0.00000000000E+00 0. -1.
</event>
<event>
 7    1  0.1333056E-013  0.7246159E+02  0.7816164E-02  0.1226708E+00
        -11   -1    0    0    0    0  0.00000000000E+00  0.00000000000E+00  0.45593999997E+02  0.45594000000E+02  0.51100000000E-03 0. -1.
         11   -1    0    0    0    0 -0.00000000000E+00 -0.00000000000E+00 -0.45593999997E+02  0.45594000000E+02  0.51100000000E-03 0.  1.
    9900012    2    1    2    0    0  0.52354395076E+01  0.16662834942E+02 -0.67541417512E+01  0.72461592818E+02  0.70000029341E+02 0.  0.
         12    1    1    2    0    0 -0.52354395076E+01 -0.16662834942E+02  0.67541417512E+01  0.18726407182E+02  0.00000000000E+00 0. -1.
         11    1    3    3    0    0 -0.26797307066E+01  0.97157190023E+01 -0.28053809723E+02  0.29809266892E+02  0.51100000000E-03 0.  1.
        -11    1    3    3    0    0 -0.35086701021E+01  0.11119525366E+02  0.26858455186E+02  0.29280219014E+02  0.51100000000E-03 0. -1.
         12    1    3    3    0    0  0.11423840316E+02 -0.41724094257E+01 -0.55587872145E+01  0.13372106913E+02  0.00000000000E+00 0. -1.
</event>
<event>
 7    1  0.1333056E-013  0.7246154E+02  0.7816164E-02  0.1226708E+00
        -11   -1    0    0    0    0  0.00000000000E+00  0.00000000000E+00  0.45593999997E+02  0.45594000000E+02  0.51100000000E-03 0.  1.
         11   -1    0    0    0    0 -0.00000000000E+00 -0.00000000000E+00 -0.45593999997E+02  0.45594000000E+02  0.51100000000E-03 0. -1.
    9900012    2    1    2    0    0  0.55783352479E+01  0.16414998961E+02  0.70788569096E+01  0.72461541975E+02  0.69999963109E+02 0.  0.
         12    1    1    2    0    0 -0.55783352479E+01 -0.16414998961E+02 -0.70788569096E+01  0.18726458025E+02  0.00000000000E+00 0. -1.
         11    1    3    3    0    0  0.43193972068E+01  0.18747591329E+02  0.32493598595E+02  0.37761929543E+02  0.51100000000E-03 0. -1.
        -11    1    3    3    0    0 -0.21477200290E+01 -0.75581861523E+01  0.66379261132E+00  0.78853979055E+01  0.51100000000E-03 0.  1.
         12    1    3    3    0    0  0.34066580702E+01  0.52255937844E+01 -0.26078534297E+02  0.26814214527E+02  0.00000000000E+00 0. -1.
</event>
<event>
 7    1  0.1333056E-013  0.7246151E+02  0.7816164E-02  0.1226708E+00
        -11   -1    0    0    0    0  0.00000000000E+00  0.00000000000E+00  0.45593999997E+02  0.45594000000E+02  0.51100000000E-03 0.  1.
         11   -1    0    0    0    0 -0.00000000000E+00 -0.00000000000E+00 -0.45593999997E+02  0.45594000000E+02  0.51100000000E-03 0. -1.
    9900012    2    1    2    0    0 -0.17736723733E+02  0.47708592787E+01 -0.36509013553E+01  0.72461506795E+02  0.69999917280E+02 0.  0.
         12    1    1    2    0    0  0.17736723733E+02 -0.47708592787E+01  0.36509013553E+01  0.18726493205E+02  0.00000000000E+00 0. -1.
         11    1    3    3    0    0 -0.24005547523E+02 -0.70059739574E+01 -0.53024428134E+01  0.25562978759E+02  0.51100000000E-03 0. -1.
        -11    1    3    3    0    0 -0.15802462477E+00  0.21279449230E+02  0.17349010311E+02  0.27455929967E+02  0.51100000000E-03 0.  1.
         12    1    3    3    0    0  0.64268484150E+01 -0.95026159941E+01 -0.15697468853E+02  0.19442598069E+02  0.00000000000E+00 0. -1.
</event>
<event>
 7    1  0.1333056E-013  0.7246171E+02  0.7816164E-02  0.1226708E+00
        -11   -1    0    0    0    0  0.00000000000E+00  0.00000000000E+00  0.45593999997E+02  0.45594000000E+02  0.51100000000E-03 0. -1.
         11   -1    0    0    0    0 -0.00000000000E+00 -0.00000000000E+00 -0.45593999997E+02  0.45594000000E+02  0.51100000000E-03 0.  1.
    9900012    2    1    2    0    0 -0.16074681751E+02  0.70536194558E+01  0.65211064568E+01  0.72461714457E+02  0.70000187798E+02 0.  0.
         12    1    1    2    0    0  0.16074681751E+02 -0.70536194558E+01 -0.65211064568E+01  0.18726285543E+02  0.00000000000E+00 0. -1.
         11    1    3    3    0    0 -0.95064629214E+01 -0.21137990905E+02  0.16699790533E+02  0.28566947700E+02  0.51100000000E-03 0.  1.
        -11    1    3    3    0    0 -0.39347473807E+01  0.35067308079E+02 -0.92023815867E+01  0.36467549410E+02  0.51100000000E-03 0. -1.
         12    1    3    3    0    0 -0.26334714488E+01 -0.68756977175E+01 -0.97630248923E+00  0.74272173473E+01  0.00000000000E+00 0. -1.
</event>
<event>
 7    1  0.1333056E-013  0.7246199E+02  0.7816164E-02  0.1226707E+00
        -11   -1    0    0    0    0  0.00000000000E+00  0.00000000000E+00  0.45593999997E+02  0.45594000000E+02  0.51100000000E-03 0.  1.
         11   -1    0    0    0    0 -0.00000000000E+00 -0.00000000000E+00 -0.45593999997E+02  0.45594000000E+02  0.51100000000E-03 0. -1.
    9900012    2    1    2    0    0  0.17527864437E+02  0.56905438890E+01  0.33249371809E+01  0.72461987911E+02  0.70000544021E+02 0.  0.
         12    1    1    2    0    0 -0.17527864437E+02 -0.56905438890E+01 -0.33249371809E+01  0.18726012089E+02  0.00000000000E+00 0. -1.
         11    1    3    3    0    0  0.29686770302E+02 -0.13831911154E+02  0.11364165346E+02  0.34666559555E+02  0.51100000000E-03 0.  1.
        -11    1    3    3    0    0 -0.72612144014E+01  0.11421600745E+02  0.10399738151E+02  0.17068472457E+02  0.51100000000E-03 0. -1.
         12    1    3    3    0    0 -0.48976914627E+01  0.81008542980E+01 -0.18438966316E+02  0.20726955899E+02  0.00000000000E+00 0. -1.
</event>
<event>
 7    1  0.1333056E-013  0.7246156E+02  0.7816164E-02  0.1226708E+00
        -11   -1    0    0    0    0  0.00000000000E+00  0.00000000000E+00  0.45593999997E+02  0.45594000000E+02  0.51100000000E-03 0.  1.
         11   -1    0    0    0    0 -0.00000000000E+00 -0.00000000000E+00 -0.45593999997E+02  0.45594000000E+02  0.51100000000E-03 0. -1.
    9900012    2    1    2    0    0  0.11688246573E+02 -0.53478559086E+01  0.13618550833E+02  0.72461558865E+02  0.69999985112E+02 0.  0.
         12    1    1    2    0    0 -0.11688246573E+02  0.53478559086E+01 -0.13618550833E+02  0.18726441135E+02  0.00000000000E+00 0. -1.
         11    1    3    3    0    0  0.36851260457E+02  0.52992018573E+01  0.68262452607E+01  0.37850951933E+02  0.51100000000E-03 0. -1.
        -11    1    3    3    0    0 -0.47539256467E+01 -0.57678285602E+01  0.10911353131E+02  0.13225932208E+02  0.51100000000E-03 0.  1.
         12    1    3    3    0    0 -0.20409088237E+02 -0.48792292057E+01 -0.41190475579E+01  0.21384674725E+02  0.00000000000E+00 0. -1.
</event>
<event>
 7    1  0.1333056E-013  0.7246155E+02  0.7816164E-02  0.1226708E+00
        -11   -1    0    0    0    0  0.00000000000E+00  0.00000000000E+00  0.45593999997E+02  0.45594000000E+02  0.51100000000E-03 0.  1.
         11   -1    0    0    0    0 -0.00000000000E+00 -0.00000000000E+00 -0.45593999997E+02  0.45594000000E+02  0.51100000000E-03 0. -1.
    9900012    2    1    2    0    0  0.24015706279E+01  0.17546231923E+02  0.60862221193E+01  0.72461550901E+02  0.69999974736E+02 0.  0.
         12    1    1    2    0    0 -0.24015706279E+01 -0.17546231923E+02 -0.60862221193E+01  0.18726449099E+02  0.00000000000E+00 0. -1.
         11    1    3    3    0    0  0.55246907215E-01 -0.98466944752E+01 -0.25255276519E+01  0.10165566118E+02  0.51100000000E-03 0. -1.
        -11    1    3    3    0    0  0.23418195134E+02  0.32004244195E+02  0.18887304752E+01  0.39702025300E+02  0.51100000000E-03 0.  1.
        -12    1    3    3    0    0 -0.21071871414E+02 -0.46113177962E+01  0.67230192960E+01  0.22593959483E+02  0.00000000000E+00 0.  1.
</event>
<event>
 7    1  0.1333056E-013  0.7246154E+02  0.7816164E-02  0.1226708E+00
        -11   -1    0    0    0    0  0.00000000000E+00  0.00000000000E+00  0.45593999997E+02  0.45594000000E+02  0.51100000000E-03 0.  1.
         11   -1    0    0    0    0 -0.00000000000E+00 -0.00000000000E+00 -0.45593999997E+02  0.45594000000E+02  0.51100000000E-03 0. -1.
    9900012    2    1    2    0    0  0.18513332748E+02  0.15713429945E+01 -0.23383243742E+01  0.72461538265E+02  0.69999958276E+02 0.  0.
         12    1    1    2    0    0 -0.18513332748E+02 -0.15713429945E+01  0.23383243742E+01  0.18726461735E+02  0.00000000000E+00 0. -1.
         11    1    3    3    0    0  0.12979634568E+02 -0.37230838300E+01 -0.19281726107E+02  0.23539694744E+02  0.51100000000E-03 0.  1.
        -11    1    3    3    0    0 -0.83441256980E+01  0.13355804410E+02  0.26071302277E+02  0.30458410132E+02  0.51100000000E-03 0. -1.
        -12    1    3    3    0    0  0.13877823877E+02 -0.80613775857E+01 -0.91279005439E+01  0.18463433388E+02  0.00000000000E+00 0.  1.
</event>
<event>
 7    1  0.1333056E-013  0.7246162E+02  0.7816164E-02  0.1226708E+00
        -11   -1    0    0    0    0  0.00000000000E+00  0.00000000000E+00  0.45593999997E+02  0.45594000000E+02  0.51100000000E-03 0. -1.
         11   -1    0    0    0    0 -0.00000000000E+00 -0.00000000000E+00 -0.45593999997E+02  0.45594000000E+02  0.51100000000E-03 0.  1.
    9900012    2    1    2    0    0  0.12756950036E+02 -0.13621528083E+02  0.15464839390E+01  0.72461617164E+02  0.70000061057E+02 0.  0.
         12    1    1    2    0    0 -0.12756950036E+02  0.13621528083E+02 -0.15464839390E+01  0.18726382836E+02  0.00000000000E+00 0. -1.
         11    1    3    3    0    0  0.36992854071E+02  0.90190990864E+00 -0.43748812300E+01  0.37261565719E+02  0.51100000000E-03 0. -1.
        -11    1    3    3    0    0 -0.69018989872E+01 -0.11492053290E+02 -0.52051449727E+01  0.14380439246E+02  0.51100000000E-03 0.  1.
         12    1    3    3    0    0 -0.17334005048E+02 -0.30313847014E+01  0.11126510142E+02  0.20819612200E+02  0.00000000000E+00 0. -1.
</event>
<event>
 7    1  0.1333056E-013  0.7246160E+02  0.7816164E-02  0.1226708E+00
        -11   -1    0    0    0    0  0.00000000000E+00  0.00000000000E+00  0.45593999997E+02  0.45594000000E+02  0.51100000000E-03 0.  1.
         11   -1    0    0    0    0 -0.00000000000E+00 -0.00000000000E+00 -0.45593999997E+02  0.45594000000E+02  0.51100000000E-03 0. -1.
    9900012    2    1    2    0    0  0.49090488849E+01  0.19346138199E+01  0.17967657240E+02  0.72461596227E+02  0.70000033782E+02 0.  0.
         12    1    1    2    0    0 -0.49090488849E+01 -0.19346138199E+01 -0.17967657240E+02  0.18726403773E+02  0.00000000000E+00 0. -1.
         11    1    3    3    0    0  0.45205491709E+01 -0.20927001461E+02  0.17637666725E+02  0.27739178840E+02  0.51100000000E-03 0. -1.
        -11    1    3    3    0    0  0.16527099024E+02  0.23310300278E+02  0.27105245962E-01  0.28574741226E+02  0.51100000000E-03 0.  1.
        -12    1    3    3    0    0 -0.16138599310E+02 -0.44868499640E+00  0.30288526883E+00  0.16147676161E+02  0.00000000000E+00 0.  1.
</event>
<event>
 7    1  0.1333056E-013  0.7246158E+02  0.7816164E-02  0.1226708E+00
        -11   -1    0    0    0    0  0.00000000000E+00  0.00000000000E+00  0.45593999997E+02  0.45594000000E+02  0.51100000000E-03 0. -1.
         11   -1    0    0    0    0 -0.00000000000E+00 -0.00000000000E+00 -0.45593999997E+02  0.45594000000E+02  0.51100000000E-03 0.  1.
    9900012    2    1    2    0    0  0.14678303441E+02 -0.31162680228E+01  0.11203343954E+02  0.72461584592E+02  0.70000018625E+02 0.  0.
         12    1    1    2    0    0 -0.14678303441E+02  0.31162680228E+01 -0.11203343954E+02  0.18726415408E+02  0.00000000000E+00 0. -1.
         11    1    3    3    0    0  0.27877788368E+02  0.13009221843E+02  0.27556828198E+00  0.30765026823E+02  0.51100000000E-03 0. -1.
        -11    1    3    3    0    0 -0.76886744761E+01 -0.10176643351E+02 -0.11916835382E+02  0.17455393175E+02  0.51100000000E-03 0.  1.
         12    1    3    3    0    0 -0.55108104507E+01 -0.59488465153E+01  0.22844611054E+02  0.24241164594E+02  0.00000000000E+00 0. -1.
</event>
<event>
 7    1  0.1333056E-013  0.7246162E+02  0.7816164E-02  0.1226708E+00
        -11   -1    0    0    0    0  0.00000000000E+00  0.00000000000E+00  0.45593999997E+02  0.45594000000E+02  0.51100000000E-03 0.  1.
         11   -1    0    0    0    0 -0.00000000000E+00 -0.00000000000E+00 -0.45593999997E+02  0.45594000000E+02  0.51100000000E-03 0. -1.
    9900012    2    1    2    0    0  0.17514768354E+02 -0.64609081350E+01  0.14720038584E+01  0.72461621819E+02  0.70000067120E+02 0.  0.
         12    1    1    2    0    0 -0.17514768354E+02  0.64609081350E+01 -0.14720038584E+01  0.18726378181E+02  0.00000000000E+00 0. -1.
         11    1    3    3    0    0 -0.34359975780E+01  0.19999512603E+02  0.22137102295E+00  0.20293732755E+02  0.51100000000E-03 0. -1.
        -11    1    3    3    0    0  0.17813901532E+01 -0.62385448454E+01  0.18358558955E+02  0.19471247516E+02  0.51100000000E-03 0.  1.
         12    1    3    3    0    0  0.19169375779E+02 -0.20221875893E+02 -0.17107926120E+02  0.32696641548E+02  0.00000000000E+00 0. -1.
</event>
<event>
 7    1  0.1333056E-013  0.7246156E+02  0.7816164E-02  0.1226708E+00
        -11   -1    0    0    0    0  0.00000000000E+00  0.00000000000E+00  0.45593999997E+02  0.45594000000E+02  0.51100000000E-03 0. -1.
         11   -1    0    0    0    0 -0.00000000000E+00 -0.00000000000E+00 -0.45593999997E+02  0.45594000000E+02  0.51100000000E-03 0.  1.
    9900012    2    1    2    0    0 -0.61706806391E+01  0.17439071836E+02  0.29122098534E+01  0.72461561677E+02  0.69999988774E+02 0.  0.
         12    1    1    2    0    0  0.61706806391E+01 -0.17439071836E+02 -0.29122098534E+01  0.18726438323E+02  0.00000000000E+00 0. -1.
         11    1    3    3    0    0 -0.21434099374E+02  0.37915244803E+01  0.27359139478E+02  0.34961675976E+02  0.51100000000E-03 0. -1.
        -11    1    3    3    0    0  0.55757405357E+01 -0.11103415000E+01 -0.17717422114E+02  0.18607224064E+02  0.51100000000E-03 0.  1.
         12    1    3    3    0    0  0.96876781987E+01  0.14757888855E+02 -0.67295075112E+01  0.18892661636E+02  0.00000000000E+00 0. -1.
</event>
<event>
 7    1  0.1392361E-013  0.7246138E+02  0.7816164E-02  0.1226709E+00
        -11   -1    0    0    0    0  0.00000000000E+00  0.00000000000E+00  0.45593999997E+02  0.45594000000E+02  0.51100000000E-03 0. -1.
         11   -1    0    0    0    0 -0.00000000000E+00 -0.00000000000E+00 -0.45593999997E+02  0.45594000000E+02  0.51100000000E-03 0.  1.
    9900012    2    1    2    0    0 -0.84423815659E+01 -0.62792225717E+01 -0.15491416535E+02  0.72461376469E+02  0.69999747506E+02 0.  0.
         12    1    1    2    0    0  0.84423815659E+01  0.62792225717E+01  0.15491416535E+02  0.18726623531E+02  0.00000000000E+00 0. -1.
         11    1    3    3    0    0 -0.24278106939E+02 -0.41622041141E+01  0.10061095846E+02  0.26607819706E+02  0.51100000000E-03 0. -1.
        -11    1    3    3    0    0  0.16363239189E+02  0.12289372345E+02 -0.23710233818E+02  0.31320272306E+02  0.51100000000E-03 0.  1.
        -12    1    3    3    0    0 -0.52751381593E+00 -0.14406390802E+02 -0.18422785636E+01  0.14533284456E+02  0.00000000000E+00 0.  1.
</event>
<event>
 7    1  0.1333056E-013  0.7246173E+02  0.7816164E-02  0.1226708E+00
        -11   -1    0    0    0    0  0.00000000000E+00  0.00000000000E+00  0.45593999997E+02  0.45594000000E+02  0.51100000000E-03 0.  1.
         11   -1    0    0    0    0 -0.00000000000E+00 -0.00000000000E+00 -0.45593999997E+02  0.45594000000E+02  0.51100000000E-03 0. -1.
    9900012    2    1    2    0    0 -0.13564891147E+00 -0.14293469705E+02  0.12097580663E+02  0.72461731426E+02  0.70000209903E+02 0.  0.
         12    1    1    2    0    0  0.13564891147E+00  0.14293469705E+02 -0.12097580663E+02  0.18726268574E+02  0.00000000000E+00 0. -1.
         11    1    3    3    0    0 -0.11779568820E+02 -0.87065484263E+01 -0.11993796291E+02  0.18931808599E+02  0.51100000000E-03 0. -1.
        -11    1    3    3    0    0  0.50660703341E+01  0.19516473890E+02  0.36406233655E+01  0.20489313324E+02  0.51100000000E-03 0.  1.
        -12    1    3    3    0    0  0.65778495746E+01 -0.25103395169E+02  0.20450753588E+02  0.33040609503E+02  0.00000000000E+00 0.  1.
</event>
<event>
 7    1  0.1333056E-013  0.7246161E+02  0.7816164E-02  0.1226708E+00
        -11   -1    0    0    0    0  0.00000000000E+00  0.00000000000E+00  0.45593999997E+02  0.45594000000E+02  0.51100000000E-03 0.  1.
         11   -1    0    0    0    0 -0.00000000000E+00 -0.00000000000E+00 -0.45593999997E+02  0.45594000000E+02  0.51100000000E-03 0. -1.
    9900012    2    1    2    0    0 -0.12497868478E+02  0.43086374937E+00  0.13938986053E+02  0.72461609738E+02  0.70000051383E+02 0.  0.
         12    1    1    2    0    0  0.12497868478E+02 -0.43086374937E+00 -0.13938986053E+02  0.18726390262E+02  0.00000000000E+00 0. -1.
         11    1    3    3    0    0 -0.42981448267E+01 -0.15579364188E+02  0.23554493571E+02  0.28565797820E+02  0.51100000000E-03 0.  1.
        -11    1    3    3    0    0  0.11995396757E+01  0.17938661638E+02  0.11055883635E+02  0.21106090116E+02  0.51100000000E-03 0. -1.
         12    1    3    3    0    0 -0.93992633267E+01 -0.19284337006E+01 -0.20671391153E+02  0.22789721802E+02  0.00000000000E+00 0. -1.
</event>
<event>
 7    1  0.1333056E-013  0.7246121E+02  0.7816164E-02  0.1226709E+00
        -11   -1    0    0    0    0  0.00000000000E+00  0.00000000000E+00  0.45593999997E+02  0.45594000000E+02  0.51100000000E-03 0.  1.
         11   -1    0    0    0    0 -0.00000000000E+00 -0.00000000000E+00 -0.45593999997E+02  0.45594000000E+02  0.51100000000E-03 0. -1.
    9900012    2    1    2    0    0 -0.76879739153E+01 -0.15661781751E+02  0.68041376985E+01  0.72461210623E+02  0.69999531460E+02 0.  0.
         12    1    1    2    0    0  0.76879739153E+01  0.15661781751E+02 -0.68041376985E+01  0.18726789377E+02  0.00000000000E+00 0. -1.
         11    1    3    3    0    0  0.77605747322E+01 -0.19241425917E+02 -0.15584900786E+02  0.25948952277E+02  0.51100000000E-03 0. -1.
        -11    1    3    3    0    0 -0.19791664199E+02 -0.11785424999E+02  0.19721282702E+02  0.30323838904E+02  0.51100000000E-03 0.  1.
         12    1    3    3    0    0  0.43431155518E+01  0.15365069165E+02  0.26677557828E+01  0.16188419443E+02  0.00000000000E+00 0. -1.
</event>
<event>
 7    1  0.1333056E-013  0.7246155E+02  0.7816164E-02  0.1226708E+00
        -11   -1    0    0    0    0  0.00000000000E+00  0.00000000000E+00  0.45593999997E+02  0.45594000000E+02  0.51100000000E-03 0.  1.
         11   -1    0    0    0    0 -0.00000000000E+00 -0.00000000000E+00 -0.45593999997E+02  0.45594000000E+02  0.51100000000E-03 0. -1.
    9900012    2    1    2    0    0  0.11376928976E+02 -0.74234130590E+01  0.12889472375E+02  0.72461546185E+02  0.69999968593E+02 0.  0.
         12    1    1    2    0    0 -0.11376928976E+02  0.74234130590E+01 -0.12889472375E+02  0.18726453815E+02  0.00000000000E+00 0. -1.
         11    1    3    3    0    0  0.21223566077E+02 -0.21085939365E+02 -0.10460698338E+02  0.31693576729E+02  0.51100000000E-03 0. -1.
        -11    1    3    3    0    0  0.51799000441E+01  0.17150630794E+02  0.13918865206E+02  0.22687227905E+02  0.51100000000E-03 0.  1.
         12    1    3    3    0    0 -0.15026537144E+02 -0.34881044883E+01  0.94313055072E+01  0.18080741551E+02  0.00000000000E+00 0. -1.
</event>
<event>
 7    1  0.1333056E-013  0.7246154E+02  0.7816164E-02  0.1226708E+00
        -11   -1    0    0    0    0  0.00000000000E+00  0.00000000000E+00  0.45593999997E+02  0.45594000000E+02  0.51100000000E-03 0.  1.
         11   -1    0    0    0    0 -0.00000000000E+00 -0.00000000000E+00 -0.45593999997E+02  0.45594000000E+02  0.51100000000E-03 0. -1.
    9900012    2    1    2    0    0  0.10826993848E+02  0.14486770376E+02 -0.48569590424E+01  0.72461538432E+02  0.69999958493E+02 0.  0.
         12    1    1    2    0    0 -0.10826993848E+02 -0.14486770376E+02  0.48569590424E+01  0.18726461568E+02  0.00000000000E+00 0. -1.
         11    1    3    3    0    0 -0.39597414259E+01  0.28313272655E+02 -0.12108764279E+02  0.31047433601E+02  0.51100000000E-03 0. -1.
        -11    1    3    3    0    0 -0.37890473553E+01 -0.60275766380E+01  0.17440513230E+02  0.18837729746E+02  0.51100000000E-03 0.  1.
         12    1    3    3    0    0  0.18575782629E+02 -0.77989256405E+01 -0.10188707993E+02  0.22576375086E+02  0.00000000000E+00 0. -1.
</event>
<event>
 7    1  0.1333056E-013  0.7246139E+02  0.7816164E-02  0.1226708E+00
        -11   -1    0    0    0    0  0.00000000000E+00  0.00000000000E+00  0.45593999997E+02  0.45594000000E+02  0.51100000000E-03 0. -1.
         11   -1    0    0    0    0 -0.00000000000E+00 -0.00000000000E+00 -0.45593999997E+02  0.45594000000E+02  0.51100000000E-03 0.  1.
    9900012    2    1    2    0    0 -0.86462963720E+01  0.33654541685E+01 -0.16266566629E+02  0.72461390253E+02  0.69999765462E+02 0.  0.
         12    1    1    2    0    0  0.86462963720E+01 -0.33654541685E+01  0.16266566629E+02  0.18726609747E+02  0.00000000000E+00 0. -1.
         11    1    3    3    0    0 -0.22871687200E+02 -0.22689241421E+01  0.10850095899E+02  0.25416267889E+02  0.51100000000E-03 0. -1.
        -11    1    3    3    0    0  0.14509705577E+02 -0.97843074339E+01 -0.26315115423E+02  0.31602998717E+02  0.51100000000E-03 0.  1.
         12    1    3    3    0    0 -0.28431474895E+00  0.15418685744E+02 -0.80154710483E+00  0.15442123647E+02  0.00000000000E+00 0. -1.
</event>
<event>
 7    1  0.1333056E-013  0.7246162E+02  0.7816164E-02  0.1226708E+00
        -11   -1    0    0    0    0  0.00000000000E+00  0.00000000000E+00  0.45593999997E+02  0.45594000000E+02  0.51100000000E-03 0. -1.
         11   -1    0    0    0    0 -0.00000000000E+00 -0.00000000000E+00 -0.45593999997E+02  0.45594000000E+02  0.51100000000E-03 0.  1.
    9900012    2    1    2    0    0 -0.16052726358E+02  0.47553618397E+01  0.83889119052E+01  0.72461619338E+02  0.70000063889E+02 0.  0.
         12    1    1    2    0    0  0.16052726358E+02 -0.47553618397E+01 -0.83889119052E+01  0.18726380662E+02  0.00000000000E+00 0. -1.
         11    1    3    3    0    0 -0.25692843898E+02 -0.20675329104E+02  0.52103591420E+01  0.33387711868E+02  0.51100000000E-03 0. -1.
        -11    1    3    3    0    0  0.15144867017E+02  0.54750964753E+01 -0.49295502602E+01  0.16841738165E+02  0.51100000000E-03 0.  1.
         12    1    3    3    0    0 -0.55047494762E+01  0.19955594468E+02  0.81081030233E+01  0.22232169305E+02  0.00000000000E+00 0. -1.
</event>
<event>
 7    1  0.1333056E-013  0.7246157E+02  0.7816164E-02  0.1226708E+00
        -11   -1    0    0    0    0  0.00000000000E+00  0.00000000000E+00  0.45593999997E+02  0.45594000000E+02  0.51100000000E-03 0.  1.
         11   -1    0    0    0    0 -0.00000000000E+00 -0.00000000000E+00 -0.45593999997E+02  0.45594000000E+02  0.51100000000E-03 0. -1.
    9900012    2    1    2    0    0 -0.59738119391E+01 -0.17705419999E+02  0.12291881743E+01  0.72461568680E+02  0.69999997897E+02 0.  0.
         12    1    1    2    0    0  0.59738119391E+01  0.17705419999E+02 -0.12291881743E+01  0.18726431320E+02  0.00000000000E+00 0. -1.
         11    1    3    3    0    0 -0.85883843488E+01  0.16758432900E+02  0.23340771591E+02  0.29989948945E+02  0.51100000000E-03 0.  1.
        -11    1    3    3    0    0  0.51183519767E+01 -0.23771750588E+02 -0.19536367977E+02  0.31192360073E+02  0.51100000000E-03 0. -1.
        -12    1    3    3    0    0 -0.25037795670E+01 -0.10692102311E+02 -0.25752154403E+01  0.11279259661E+02  0.00000000000E+00 0.  1.
</event>
<event>
 7    1  0.1333056E-013  0.7246153E+02  0.7816164E-02  0.1226708E+00
        -11   -1    0    0    0    0  0.00000000000E+00  0.00000000000E+00  0.45593999997E+02  0.45594000000E+02  0.51100000000E-03 0. -1.
         11   -1    0    0    0    0 -0.00000000000E+00 -0.00000000000E+00 -0.45593999997E+02  0.45594000000E+02  0.51100000000E-03 0.  1.
    9900012    2    1    2    0    0 -0.17489980391E+02  0.65541385474E+01  0.13507198676E+01  0.72461532358E+02  0.69999950581E+02 0.  0.
         12    1    1    2    0    0  0.17489980391E+02 -0.65541385474E+01 -0.13507198676E+01  0.18726467642E+02  0.00000000000E+00 0. -1.
         11    1    3    3    0    0  0.13084802607E+02 -0.59128329445E+01  0.18908403065E+02  0.23742395824E+02  0.51100000000E-03 0. -1.
        -11    1    3    3    0    0 -0.13451481676E+02  0.17746927060E+02 -0.20843400344E+02  0.30501526478E+02  0.51100000000E-03 0.  1.
         12    1    3    3    0    0 -0.17123301323E+02 -0.52799555684E+01  0.32857171458E+01  0.18217610056E+02  0.00000000000E+00 0. -1.
</event>
<event>
 7    1  0.1333056E-013  0.7246140E+02  0.7816164E-02  0.1226708E+00
        -11   -1    0    0    0    0  0.00000000000E+00  0.00000000000E+00  0.45593999997E+02  0.45594000000E+02  0.51100000000E-03 0. -1.
         11   -1    0    0    0    0 -0.00000000000E+00 -0.00000000000E+00 -0.45593999997E+02  0.45594000000E+02  0.51100000000E-03 0.  1.
    9900012    2    1    2    0    0 -0.64902638213E+00 -0.13400158415E+02 -0.13065228376E+02  0.72461396643E+02  0.69999773786E+02 0.  0.
         12    1    1    2    0    0  0.64902638213E+00  0.13400158415E+02  0.13065228376E+02  0.18726603357E+02  0.00000000000E+00 0. -1.
         11    1    3    3    0    0 -0.20334035260E+02 -0.11186125704E+01  0.12915495047E+02  0.24115022219E+02  0.51100000000E-03 0. -1.
        -11    1    3    3    0    0 -0.11270302130E+00  0.96931815803E+01 -0.12561338600E+02  0.15866874261E+02  0.51100000000E-03 0.  1.
         12    1    3    3    0    0  0.19797711899E+02 -0.21974727424E+02 -0.13419384823E+02  0.32479500163E+02  0.00000000000E+00 0. -1.
</event>
<event>
 7    1  0.1333056E-013  0.7246167E+02  0.7816164E-02  0.1226708E+00
        -11   -1    0    0    0    0  0.00000000000E+00  0.00000000000E+00  0.45593999997E+02  0.45594000000E+02  0.51100000000E-03 0.  1.
         11   -1    0    0    0    0 -0.00000000000E+00 -0.00000000000E+00 -0.45593999997E+02  0.45594000000E+02  0.51100000000E-03 0. -1.
    9900012    2    1    2    0    0 -0.14089413476E+02 -0.12268500853E+02  0.12835912733E+01  0.72461673830E+02  0.70000134874E+02 0.  0.
         12    1    1    2    0    0  0.14089413476E+02  0.12268500853E+02 -0.12835912733E+01  0.18726326170E+02  0.00000000000E+00 0. -1.
         11    1    3    3    0    0  0.12541326659E+02 -0.11440186279E+02  0.11226872292E+02  0.20352036709E+02  0.51100000000E-03 0. -1.
        -11    1    3    3    0    0 -0.96635735745E+01  0.13859080531E+02 -0.21114104453E+02  0.27041896651E+02  0.51100000000E-03 0.  1.
         12    1    3    3    0    0 -0.16967166561E+02 -0.14687395105E+02  0.11170823434E+02  0.25067740470E+02  0.00000000000E+00 0. -1.
</event>
<event>
 7    1  0.1333056E-013  0.7246158E+02  0.7816164E-02  0.1226708E+00
        -11   -1    0    0    0    0  0.00000000000E+00  0.00000000000E+00  0.45593999997E+02  0.45594000000E+02  0.51100000000E-03 0. -1.
         11   -1    0    0    0    0 -0.00000000000E+00 -0.00000000000E+00 -0.45593999997E+02  0.45594000000E+02  0.51100000000E-03 0.  1.
    9900012    2    1    2    0    0 -0.16299712635E+02  0.89863387621E+01 -0.20600420617E+01  0.72461583107E+02  0.70000016691E+02 0.  0.
         12    1    1    2    0    0  0.16299712635E+02 -0.89863387621E+01  0.20600420617E+01  0.18726416893E+02  0.00000000000E+00 0. -1.
         11    1    3    3    0    0 -0.52858286153E+00 -0.24923983453E+01 -0.14507943897E+01  0.29319368983E+01  0.51100000000E-03 0. -1.
        -11    1    3    3    0    0 -0.11634082853E+02  0.18456016014E+02  0.30432931731E+02  0.37445156495E+02  0.51100000000E-03 0.  1.
        -12    1    3    3    0    0 -0.41370469213E+01 -0.69772789063E+01 -0.31042179403E+02  0.32084489714E+02  0.00000000000E+00 0.  1.
</event>
<event>
 7    1  0.1333056E-013  0.7246169E+02  0.7816164E-02  0.1226708E+00
        -11   -1    0    0    0    0  0.00000000000E+00  0.00000000000E+00  0.45593999997E+02  0.45594000000E+02  0.51100000000E-03 0. -1.
         11   -1    0    0    0    0 -0.00000000000E+00 -0.00000000000E+00 -0.45593999997E+02  0.45594000000E+02  0.51100000000E-03 0.  1.
    9900012    2    1    2    0    0 -0.15803101706E+02 -0.33219353151E+01 -0.94816422759E+01  0.72461686481E+02  0.70000151354E+02 0.  0.
         12    1    1    2    0    0  0.15803101706E+02  0.33219353151E+01  0.94816422759E+01  0.18726313519E+02  0.00000000000E+00 0. -1.
         11    1    3    3    0    0 -0.20697240856E+02  0.83444450089E+01  0.19574905676E+02  0.29684717854E+02  0.51100000000E-03 0. -1.
        -11    1    3    3    0    0  0.66656848447E+01 -0.20205672543E+02 -0.25861357069E+02  0.33488958585E+02  0.51100000000E-03 0.  1.
        -12    1    3    3    0    0 -0.17715456951E+01  0.85392922195E+01 -0.31951908834E+01  0.92880100420E+01  0.00000000000E+00 0.  1.
</event>
<event>
 7    1  0.1333056E-013  0.7246161E+02  0.7816164E-02  0.1226708E+00
        -11   -1    0    0    0    0  0.00000000000E+00  0.00000000000E+00  0.45593999997E+02  0.45594000000E+02  0.51100000000E-03 0. -1.
         11   -1    0    0    0    0 -0.00000000000E+00 -0.00000000000E+00 -0.45593999997E+02  0.45594000000E+02  0.51100000000E-03 0.  1.
    9900012    2    1    2    0    0 -0.39814182582E+01 -0.16368480623E+02 -0.81791678105E+01  0.72461611258E+02  0.70000053363E+02 0.  0.
         12    1    1    2    0    0  0.39814182582E+01  0.16368480623E+02  0.81791678105E+01  0.18726388742E+02  0.00000000000E+00 0. -1.
         11    1    3    3    0    0 -0.78658673312E+00 -0.15580303412E+02  0.18498594448E+02  0.24198400152E+02  0.51100000000E-03 0. -1.
        -11    1    3    3    0    0 -0.87812365176E+01  0.17856532304E+02 -0.85245628186E+01  0.21647956768E+02  0.51100000000E-03 0.  1.
        -12    1    3    3    0    0  0.55864049926E+01 -0.18644709514E+02 -0.18153199440E+02  0.26615254339E+02  0.00000000000E+00 0.  1.
</event>
<event>
 7    1  0.1333056E-013  0.7246156E+02  0.7816164E-02  0.1226708E+00
        -11   -1    0    0    0    0  0.00000000000E+00  0.00000000000E+00  0.45593999997E+02  0.45594000000E+02  0.51100000000E-03 0. -1.
         11   -1    0    0    0    0 -0.00000000000E+00 -0.00000000000E+00 -0.45593999997E+02  0.45594000000E+02  0.51100000000E-03 0.  1.
    9900012    2    1    2    0    0  0.18567422229E+02 -0.65791029665E+00  0.23446444200E+01  0.72461564898E+02  0.69999992970E+02 0.  0.
         12    1    1    2    0    0 -0.18567422229E+02  0.65791029665E+00 -0.23446444200E+01  0.18726435102E+02  0.00000000000E+00 0. -1.
         11    1    3    3    0    0  0.92429517459E+01 -0.25067032654E+01  0.19488898896E+02  0.21714808281E+02  0.51100000000E-03 0. -1.
        -11    1    3    3    0    0  0.70072393365E+01 -0.16798715896E+02 -0.24539485740E+02  0.30552980534E+02  0.51100000000E-03 0.  1.
        -12    1    3    3    0    0  0.23172311463E+01  0.18647508865E+02  0.73952312643E+01  0.20193776083E+02  0.00000000000E+00 0.  1.
</event>
<event>
 7    1  0.1333056E-013  0.7246169E+02  0.7816164E-02  0.1226708E+00
        -11   -1    0    0    0    0  0.00000000000E+00  0.00000000000E+00  0.45593999997E+02  0.45594000000E+02  0.51100000000E-03 0.  1.
         11   -1    0    0    0    0 -0.00000000000E+00 -0.00000000000E+00 -0.45593999997E+02  0.45594000000E+02  0.51100000000E-03 0. -1.
    9900012    2    1    2    0    0  0.16081810117E+02  0.79949774492E+01 -0.53038095299E+01  0.72461690257E+02  0.70000156274E+02 0.  0.
         12    1    1    2    0    0 -0.16081810117E+02 -0.79949774492E+01  0.53038095299E+01  0.18726309743E+02  0.00000000000E+00 0. -1.
         11    1    3    3    0    0  0.26682083872E+02 -0.62738499657E+01 -0.25266429855E+02  0.37278509507E+02  0.51100000000E-03 0. -1.
        -11    1    3    3    0    0 -0.10499267290E+01  0.18007043434E+02  0.16244043176E+02  0.24273955144E+02  0.51100000000E-03 0.  1.
        -12    1    3    3    0    0 -0.95503470261E+01 -0.37382160191E+01  0.37185771493E+01  0.10909225607E+02  0.00000000000E+00 0.  1.
</event>
<event>
 7    1  0.1333056E-013  0.7246153E+02  0.7816164E-02  0.1226708E+00
        -11   -1    0    0    0    0  0.00000000000E+00  0.00000000000E+00  0.45593999997E+02  0.45594000000E+02  0.51100000000E-03 0.  1.
         11   -1    0    0    0    0 -0.00000000000E+00 -0.00000000000E+00 -0.45593999997E+02  0.45594000000E+02  0.51100000000E-03 0. -1.
    9900012    2    1    2    0    0  0.80276273133E+01  0.94131058563E+01  0.14058135857E+02  0.72461533544E+02  0.69999952126E+02 0.  0.
         12    1    1    2    0    0 -0.80276273133E+01 -0.94131058563E+01 -0.14058135857E+02  0.18726466456E+02  0.00000000000E+00 0. -1.
         11    1    3    3    0    0  0.34102193932E+01  0.91814926403E+01 -0.21347673487E+02  0.23487285220E+02  0.51100000000E-03 0. -1.
        -11    1    3    3    0    0  0.17483618279E+02 -0.83032658666E+00  0.92297847202E+01  0.19787755725E+02  0.51100000000E-03 0.  1.
         12    1    3    3    0    0 -0.12866210359E+02  0.10619398026E+01  0.26176024624E+02  0.29186492600E+02  0.00000000000E+00 0. -1.
</event>
<event>
 7    1  0.1333056E-013  0.7246154E+02  0.7816164E-02  0.1226708E+00
        -11   -1    0    0    0    0  0.00000000000E+00  0.00000000000E+00  0.45593999997E+02  0.45594000000E+02  0.51100000000E-03 0. -1.
         11   -1    0    0    0    0 -0.00000000000E+00 -0.00000000000E+00 -0.45593999997E+02  0.45594000000E+02  0.51100000000E-03 0.  1.
    9900012    2    1    2    0    0 -0.95854749074E+01  0.11729266695E+02 -0.11010140368E+02  0.72461542318E+02  0.69999963555E+02 0.  0.
         12    1    1    2    0    0  0.95854749074E+01 -0.11729266695E+02  0.11010140368E+02  0.18726457682E+02  0.00000000000E+00 0. -1.
         11    1    3    3    0    0 -0.62591879615E+00  0.23943681359E+02  0.22138408469E+02  0.32615958995E+02  0.51100000000E-03 0. -1.
        -11    1    3    3    0    0 -0.72134953918E+01  0.61796343149E+00 -0.20508521949E+02  0.21748927959E+02  0.51100000000E-03 0.  1.
        -12    1    3    3    0    0 -0.17460607194E+01 -0.12832378096E+02 -0.12640026888E+02  0.18096655364E+02  0.00000000000E+00 0.  1.
</event>
<event>
 7    1  0.1530080E-013  0.7246164E+02  0.7816164E-02  0.1226708E+00
        -11   -1    0    0    0    0  0.00000000000E+00  0.00000000000E+00  0.45593999997E+02  0.45594000000E+02  0.51100000000E-03 0. -1.
         11   -1    0    0    0    0 -0.00000000000E+00 -0.00000000000E+00 -0.45593999997E+02  0.45594000000E+02  0.51100000000E-03 0.  1.
    9900012    2    1    2    0    0  0.43497193157E+01 -0.46529615879E+00 -0.18208240116E+02  0.72461639789E+02  0.70000090529E+02 0.  0.
         12    1    1    2    0    0 -0.43497193157E+01  0.46529615879E+00  0.18208240116E+02  0.18726360211E+02  0.00000000000E+00 0. -1.
         11    1    3    3    0    0  0.20438390818E+02  0.19237081889E+02 -0.10231399797E+01  0.28086294781E+02  0.51100000000E-03 0. -1.
        -11    1    3    3    0    0 -0.98253182276E+01 -0.14807919765E+02  0.68609477323E+01  0.19049513645E+02  0.51100000000E-03 0.  1.
        -12    1    3    3    0    0 -0.62633532746E+01 -0.48944582828E+01 -0.24046047869E+02  0.25325831363E+02  0.00000000000E+00 0.  1.
</event>
<event>
 7    1  0.1333056E-013  0.7246156E+02  0.7816164E-02  0.1226708E+00
        -11   -1    0    0    0    0  0.00000000000E+00  0.00000000000E+00  0.45593999997E+02  0.45594000000E+02  0.51100000000E-03 0. -1.
         11   -1    0    0    0    0 -0.00000000000E+00 -0.00000000000E+00 -0.45593999997E+02  0.45594000000E+02  0.51100000000E-03 0.  1.
    9900012    2    1    2    0    0  0.14171511894E+02 -0.17200804519E+01 -0.12119776700E+02  0.72461563783E+02  0.69999991518E+02 0.  0.
         12    1    1    2    0    0 -0.14171511894E+02  0.17200804519E+01  0.12119776700E+02  0.18726436217E+02  0.00000000000E+00 0. -1.
         11    1    3    3    0    0  0.17890599216E+02 -0.29655365138E+02 -0.21229362971E+02  0.40622654692E+02  0.51100000000E-03 0. -1.
        -11    1    3    3    0    0 -0.66076499190E+01  0.83129607596E+01  0.40919701746E+01  0.11380271272E+02  0.51100000000E-03 0.  1.
         12    1    3    3    0    0  0.28885625965E+01  0.19622323927E+02  0.50176160959E+01  0.20458637820E+02  0.00000000000E+00 0. -1.
</event>
<event>
 7    1  0.1333056E-013  0.7246158E+02  0.7816164E-02  0.1226708E+00
        -11   -1    0    0    0    0  0.00000000000E+00  0.00000000000E+00  0.45593999997E+02  0.45594000000E+02  0.51100000000E-03 0.  1.
         11   -1    0    0    0    0 -0.00000000000E+00 -0.00000000000E+00 -0.45593999997E+02  0.45594000000E+02  0.51100000000E-03 0. -1.
    9900012    2    1    2    0    0 -0.20570134556E+01 -0.49678822558E+01  0.17937887238E+02  0.72461575968E+02  0.70000007391E+02 0.  0.
         12    1    1    2    0    0  0.20570134556E+01  0.49678822558E+01 -0.17937887238E+02  0.18726424032E+02  0.00000000000E+00 0. -1.
         11    1    3    3    0    0 -0.25941393201E+02 -0.15269461065E+02  0.17618246361E+01  0.30153214567E+02  0.51100000000E-03 0.  1.
        -11    1    3    3    0    0  0.13334490110E+02  0.62983953944E+01  0.24285734893E+02  0.28412591057E+02  0.51100000000E-03 0. -1.
        -12    1    3    3    0    0  0.10549889635E+02  0.40031834152E+01 -0.81096722907E+01  0.13895770343E+02  0.00000000000E+00 0.  1.
</event>
<event>
 7    1  0.1333056E-013  0.7246156E+02  0.7816164E-02  0.1226708E+00
        -11   -1    0    0    0    0  0.00000000000E+00  0.00000000000E+00  0.45593999997E+02  0.45594000000E+02  0.51100000000E-03 0.  1.
         11   -1    0    0    0    0 -0.00000000000E+00 -0.00000000000E+00 -0.45593999997E+02  0.45594000000E+02  0.51100000000E-03 0. -1.
    9900012    2    1    2    0    0  0.56413556901E+01  0.17855499822E+02  0.18884828950E+00  0.72461563297E+02  0.69999990885E+02 0.  0.
         12    1    1    2    0    0 -0.56413556901E+01 -0.17855499822E+02 -0.18884828950E+00  0.18726436703E+02  0.00000000000E+00 0. -1.
         11    1    3    3    0    0  0.14666076325E+02 -0.17234616523E+01 -0.27957220887E+02  0.31617563392E+02  0.51100000000E-03 0. -1.
        -11    1    3    3    0    0 -0.10197449285E+02  0.94774429623E+01  0.37568258782E+01  0.14419557482E+02  0.51100000000E-03 0.  1.
         12    1    3    3    0    0  0.11727286500E+01  0.10101518512E+02  0.24389243299E+02  0.26424442424E+02  0.00000000000E+00 0. -1.
</event>
<event>
 7    1  0.1544153E-013  0.7246150E+02  0.7816164E-02  0.1226708E+00
        -11   -1    0    0    0    0  0.00000000000E+00  0.00000000000E+00  0.45593999997E+02  0.45594000000E+02  0.51100000000E-03 0. -1.
         11   -1    0    0    0    0 -0.00000000000E+00 -0.00000000000E+00 -0.45593999997E+02  0.45594000000E+02  0.51100000000E-03 0.  1.
    9900012    2    1    2    0    0 -0.32825194963E+01 -0.35649985989E+01 -0.18088600991E+02  0.72461504464E+02  0.69999914244E+02 0.  0.
         12    1    1    2    0    0  0.32825194963E+01  0.35649985989E+01  0.18088600991E+02  0.18726495536E+02  0.00000000000E+00 0. -1.
         11    1    3    3    0    0 -0.16689891141E+02  0.49197605649E+01 -0.96649440631E+01  0.19903960769E+02  0.51100000000E-03 0. -1.
        -11    1    3    3    0    0  0.19802051499E+02  0.16664487724E+02 -0.30808458196E+01  0.26063729700E+02  0.51100000000E-03 0.  1.
        -12    1    3    3    0    0 -0.63946798542E+01 -0.25149246888E+02 -0.53428111081E+01  0.26493813995E+02  0.00000000000E+00 0.  1.
</event>
<event>
 7    1  0.1333056E-013  0.7246162E+02  0.7816164E-02  0.1226708E+00
        -11   -1    0    0    0    0  0.00000000000E+00  0.00000000000E+00  0.45593999997E+02  0.45594000000E+02  0.51100000000E-03 0.  1.
         11   -1    0    0    0    0 -0.00000000000E+00 -0.00000000000E+00 -0.45593999997E+02  0.45594000000E+02  0.51100000000E-03 0. -1.
    9900012    2    1    2    0    0 -0.74709588832E+01 -0.12497790364E+02  0.11775701922E+02  0.72461624313E+02  0.70000070369E+02 0.  0.
         12    1    1    2    0    0  0.74709588832E+01  0.12497790364E+02 -0.11775701922E+02  0.18726375687E+02  0.00000000000E+00 0. -1.
         11    1    3    3    0    0 -0.31585917595E+01  0.10934590205E+02 -0.93922948977E+01  0.14756597459E+02  0.51100000000E-03 0. -1.
        -11    1    3    3    0    0  0.21941626818E+02 -0.91638043625E+01  0.85409788690E+01  0.25265759797E+02  0.51100000000E-03 0.  1.
        -12    1    3    3    0    0 -0.26253993942E+02 -0.14268576206E+02  0.12627017951E+02  0.32439267057E+02  0.00000000000E+00 0.  1.
</event>
<event>
 7    1  0.1333056E-013  0.7246149E+02  0.7816164E-02  0.1226708E+00
        -11   -1    0    0    0    0  0.00000000000E+00  0.00000000000E+00  0.45593999997E+02  0.45594000000E+02  0.51100000000E-03 0.  1.
         11   -1    0    0    0    0 -0.00000000000E+00 -0.00000000000E+00 -0.45593999997E+02  0.45594000000E+02  0.51100000000E-03 0. -1.
    9900012    2    1    2    0    0  0.43456831297E+01 -0.98520125454E+01  0.15321064339E+02  0.72461491368E+02  0.69999897184E+02 0.  0.
         12    1    1    2    0    0 -0.43456831297E+01  0.98520125454E+01 -0.15321064339E+02  0.18726508632E+02  0.00000000000E+00 0. -1.
         11    1    3    3    0    0  0.74965863423E+01  0.66227437324E+01  0.66769951962E+01  0.12026712204E+02  0.51100000000E-03 0. -1.
        -11    1    3    3    0    0 -0.59699202379E+00 -0.26394587414E+02 -0.17957189014E+02  0.31929473559E+02  0.51100000000E-03 0.  1.
        -12    1    3    3    0    0 -0.25539111888E+01  0.99198311365E+01  0.26601258156E+02  0.28505305605E+02  0.00000000000E+00 0.  1.
</event>
<event>
 7    1  0.1333056E-013  0.7246156E+02  0.7816164E-02  0.1226708E+00
        -11   -1    0    0    0    0  0.00000000000E+00  0.00000000000E+00  0.45593999997E+02  0.45594000000E+02  0.51100000000E-03 0.  1.
         11   -1    0    0    0    0 -0.00000000000E+00 -0.00000000000E+00 -0.45593999997E+02  0.45594000000E+02  0.51100000000E-03 0. -1.
    9900012    2    1    2    0    0 -0.89534995547E+01 -0.14336179418E+02  0.80615392060E+01  0.72461558561E+02  0.69999984715E+02 0.  0.
         12    1    1    2    0    0  0.89534995547E+01  0.14336179418E+02 -0.80615392060E+01  0.18726441439E+02  0.00000000000E+00 0. -1.
         11    1    3    3    0    0 -0.27930614389E+02 -0.29851033270E+02  0.12857653429E+02  0.42854669050E+02  0.51100000000E-03 0. -1.
        -11    1    3    3    0    0  0.13594584408E+02  0.13531277357E+01 -0.47275826651E+01  0.14456615026E+02  0.51100000000E-03 0.  1.
         12    1    3    3    0    0  0.53825304258E+01  0.14161726116E+02 -0.68531558163E-01  0.15150274484E+02  0.00000000000E+00 0. -1.
</event>
<event>
 7    1  0.1333056E-013  0.7246153E+02  0.7816164E-02  0.1226708E+00
        -11   -1    0    0    0    0  0.00000000000E+00  0.00000000000E+00  0.45593999997E+02  0.45594000000E+02  0.51100000000E-03 0.  1.
         11   -1    0    0    0    0 -0.00000000000E+00 -0.00000000000E+00 -0.45593999997E+02  0.45594000000E+02  0.51100000000E-03 0. -1.
    9900012    2    1    2    0    0 -0.11300375524E+02 -0.12409565838E+02 -0.83057148404E+01  0.72461529156E+02  0.69999946409E+02 0.  0.
         12    1    1    2    0    0  0.11300375524E+02  0.12409565838E+02  0.83057148404E+01  0.18726470844E+02  0.00000000000E+00 0. -1.
         11    1    3    3    0    0 -0.16135643409E+02 -0.16743594459E+01 -0.11062007047E+02  0.19634929792E+02  0.51100000000E-03 0. -1.
        -11    1    3    3    0    0  0.24523080545E+02  0.66461703373E+01  0.66833721369E+01  0.26272048320E+02  0.51100000000E-03 0.  1.
        -12    1    3    3    0    0 -0.19687812660E+02 -0.17381376729E+02 -0.39270799301E+01  0.26554551043E+02  0.00000000000E+00 0.  1.
</event>
<event>
 7    1  0.1333056E-013  0.7246145E+02  0.7816164E-02  0.1226708E+00
        -11   -1    0    0    0    0  0.00000000000E+00  0.00000000000E+00  0.45593999997E+02  0.45594000000E+02  0.51100000000E-03 0.  1.
         11   -1    0    0    0    0 -0.00000000000E+00 -0.00000000000E+00 -0.45593999997E+02  0.45594000000E+02  0.51100000000E-03 0. -1.
    9900012    2    1    2    0    0  0.17208565536E+02 -0.34698286966E+01  0.65198979304E+01  0.72461454456E+02  0.69999849099E+02 0.  0.
         12    1    1    2    0    0 -0.17208565536E+02  0.34698286966E+01 -0.65198979304E+01  0.18726545544E+02  0.00000000000E+00 0. -1.
         11    1    3    3    0    0  0.11579149817E+02 -0.55971125350E+01 -0.40876855133E+01  0.13494945437E+02  0.51100000000E-03 0. -1.
        -11    1    3    3    0    0  0.28975603370E+01  0.27748317620E+01  0.34589210195E+02  0.34821100060E+02  0.51100000000E-03 0.  1.
        -12    1    3    3    0    0  0.27318553814E+01 -0.64754792359E+00 -0.23981626752E+02  0.24145408959E+02  0.00000000000E+00 0.  1.
</event>
<event>
 7    1  0.1333056E-013  0.7246158E+02  0.7816164E-02  0.1226708E+00
        -11   -1    0    0    0    0  0.00000000000E+00  0.00000000000E+00  0.45593999997E+02  0.45594000000E+02  0.51100000000E-03 0.  1.
         11   -1    0    0    0    0 -0.00000000000E+00 -0.00000000000E+00 -0.45593999997E+02  0.45594000000E+02  0.51100000000E-03 0. -1.
    9900012    2    1    2    0    0  0.16355806069E+02  0.35014642655E+01  0.84205904529E+01  0.72461575148E+02  0.70000006323E+02 0.  0.
         12    1    1    2    0    0 -0.16355806069E+02 -0.35014642655E+01 -0.84205904529E+01  0.18726424852E+02  0.00000000000E+00 0. -1.
         11    1    3    3    0    0  0.64681045668E+01  0.26674060613E+00 -0.38467844334E+01  0.75302906967E+01  0.51100000000E-03 0. -1.
        -11    1    3    3    0    0 -0.26475744684E+02  0.34130585858E+01  0.99666050562E+01  0.28494687963E+02  0.51100000000E-03 0.  1.
        -12    1    3    3    0    0  0.36363446186E+02 -0.17833492645E+00  0.23007698301E+01  0.36436596489E+02  0.00000000000E+00 0.  1.
</event>
<event>
 7    1  0.1333056E-013  0.7246154E+02  0.7816164E-02  0.1226708E+00
        -11   -1    0    0    0    0  0.00000000000E+00  0.00000000000E+00  0.45593999997E+02  0.45594000000E+02  0.51100000000E-03 0. -1.
         11   -1    0    0    0    0 -0.00000000000E+00 -0.00000000000E+00 -0.45593999997E+02  0.45594000000E+02  0.51100000000E-03 0.  1.
    9900012    2    1    2    0    0  0.96730856414E+01  0.19127912242E+00 -0.16033557777E+02  0.72461544155E+02  0.69999965949E+02 0.  0.
         12    1    1    2    0    0 -0.96730856414E+01 -0.19127912242E+00  0.16033557777E+02  0.18726455845E+02  0.00000000000E+00 0. -1.
         11    1    3    3    0    0  0.15746263118E+02 -0.22586117167E+02 -0.12134543544E+02  0.30088613098E+02  0.51100000000E-03 0. -1.
        -11    1    3    3    0    0 -0.11254493017E+01  0.11328935462E+01 -0.16678633351E+02  0.16754906584E+02  0.51100000000E-03 0.  1.
         12    1    3    3    0    0 -0.49477281744E+01  0.21644502743E+02  0.12779619118E+02  0.25618024473E+02  0.00000000000E+00 0. -1.
</event>
<event>
 7    1  0.1333056E-013  0.7246158E+02  0.7816164E-02  0.1226708E+00
        -11   -1    0    0    0    0  0.00000000000E+00  0.00000000000E+00  0.45593999997E+02  0.45594000000E+02  0.51100000000E-03 0.  1.
         11   -1    0    0    0    0 -0.00000000000E+00 -0.00000000000E+00 -0.45593999997E+02  0.45594000000E+02  0.51100000000E-03 0. -1.
    9900012    2    1    2    0    0  0.61975355363E+01 -0.99772012864E+01  0.14585083694E+02  0.72461583936E+02  0.70000017771E+02 0.  0.
         12    1    1    2    0    0 -0.61975355363E+01  0.99772012864E+01 -0.14585083694E+02  0.18726416064E+02  0.00000000000E+00 0. -1.
         11    1    3    3    0    0 -0.12126115321E+02  0.11947512995E+02  0.14779038444E+02  0.22543418488E+02  0.51100000000E-03 0. -1.
        -11    1    3    3    0    0  0.18256913229E+01 -0.31011688772E+02  0.51895540559E+00  0.31069716836E+02  0.51100000000E-03 0.  1.
        -12    1    3    3    0    0  0.16497959534E+02  0.90869744905E+01 -0.71291015521E+00  0.18848448612E+02  0.00000000000E+00 0.  1.
</event>
<event>
 7    1  0.1333056E-013  0.7246169E+02  0.7816164E-02  0.1226708E+00
        -11   -1    0    0    0    0  0.00000000000E+00  0.00000000000E+00  0.45593999997E+02  0.45594000000E+02  0.51100000000E-03 0.  1.
         11   -1    0    0    0    0 -0.00000000000E+00 -0.00000000000E+00 -0.45593999997E+02  0.45594000000E+02  0.51100000000E-03 0. -1.
    9900012    2    1    2    0    0  0.10609552762E+02 -0.15325665301E+02  0.17989239266E+01  0.72461688189E+02  0.70000153580E+02 0.  0.
         12    1    1    2    0    0 -0.10609552762E+02  0.15325665301E+02 -0.17989239266E+01  0.18726311811E+02  0.00000000000E+00 0. -1.
         11    1    3    3    0    0  0.15499513836E+02 -0.11223469652E+02 -0.20768212972E+02  0.28240394305E+02  0.51100000000E-03 0. -1.
        -11    1    3    3    0    0 -0.13503050230E+02  0.98417782510E+01  0.47807541625E+00  0.16715906228E+02  0.51100000000E-03 0.  1.
         12    1    3    3    0    0  0.86130891561E+01 -0.13943973900E+02  0.22089061482E+02  0.27505387656E+02  0.00000000000E+00 0. -1.
</event>
<event>
 7    1  0.1859721E-013  0.7246156E+02  0.7816164E-02  0.1226708E+00
        -11   -1    0    0    0    0  0.00000000000E+00  0.00000000000E+00  0.45593999997E+02  0.45594000000E+02  0.51100000000E-03 0. -1.
         11   -1    0    0    0    0 -0.00000000000E+00 -0.00000000000E+00 -0.45593999997E+02  0.45594000000E+02  0.51100000000E-03 0.  1.
    9900012    2    1    2    0    0  0.13081610156E+02  0.79918632512E+01  0.10755522536E+02  0.72461556998E+02  0.69999982679E+02 0.  0.
         12    1    1    2    0    0 -0.13081610156E+02 -0.79918632512E+01 -0.10755522536E+02  0.18726443002E+02  0.00000000000E+00 0. -1.
         11    1    3    3    0    0  0.15685220696E+02  0.17650490246E+02 -0.17693170065E+02  0.29506172598E+02  0.51100000000E-03 0.  1.
        -11    1    3    3    0    0  0.37613783564E+01  0.42261233504E+01  0.27029731045E+02  0.27615474762E+02  0.51100000000E-03 0. -1.
        -12    1    3    3    0    0 -0.63649888965E+01 -0.13884750345E+02  0.14189615556E+01  0.15339909638E+02  0.00000000000E+00 0.  1.
</event>
<event>
 7    1  0.1333056E-013  0.7246123E+02  0.7816164E-02  0.1226709E+00
        -11   -1    0    0    0    0  0.00000000000E+00  0.00000000000E+00  0.45593999997E+02  0.45594000000E+02  0.51100000000E-03 0. -1.
         11   -1    0    0    0    0 -0.00000000000E+00 -0.00000000000E+00 -0.45593999997E+02  0.45594000000E+02  0.51100000000E-03 0.  1.
    9900012    2    1    2    0    0 -0.12132292155E+02 -0.13504848975E+02  0.45954946892E+01  0.72461226914E+02  0.69999552682E+02 0.  0.
         12    1    1    2    0    0  0.12132292155E+02  0.13504848975E+02 -0.45954946892E+01  0.18726773086E+02  0.00000000000E+00 0. -1.
         11    1    3    3    0    0  0.17708968818E+02  0.20611068475E+01 -0.14081615432E+02  0.22718882707E+02  0.51100000000E-03 0. -1.
        -11    1    3    3    0    0 -0.18453309743E+02 -0.37589858605E+01 -0.63017604066E+01  0.19858670642E+02  0.51100000000E-03 0.  1.
         12    1    3    3    0    0 -0.11387951230E+02 -0.11806969962E+02  0.24978870528E+02  0.29883673565E+02  0.00000000000E+00 0. -1.
</event>
<event>
 7    1  0.1333056E-013  0.7246156E+02  0.7816164E-02  0.1226708E+00
        -11   -1    0    0    0    0  0.00000000000E+00  0.00000000000E+00  0.45593999997E+02  0.45594000000E+02  0.51100000000E-03 0. -1.
         11   -1    0    0    0    0 -0.00000000000E+00 -0.00000000000E+00 -0.45593999997E+02  0.45594000000E+02  0.51100000000E-03 0.  1.
    9900012    2    1    2    0    0  0.55350081025E+01  0.68845846557E+01 -0.16511983594E+02  0.72461563533E+02  0.69999991191E+02 0.  0.
         12    1    1    2    0    0 -0.55350081025E+01 -0.68845846557E+01  0.16511983594E+02  0.18726436467E+02  0.00000000000E+00 0. -1.
         11    1    3    3    0    0 -0.12577509266E+01 -0.52744339833E+01  0.18629125044E+02  0.19402213570E+02  0.51100000000E-03 0. -1.
        -11    1    3    3    0    0  0.16000626242E+02  0.21241146348E+02 -0.20911455949E+02  0.33830390605E+02  0.51100000000E-03 0.  1.
         12    1    3    3    0    0 -0.92078672131E+01 -0.90821277086E+01 -0.14229652689E+02  0.19228959358E+02  0.00000000000E+00 0. -1.
</event>
<event>
 7    1  0.1333056E-013  0.7246155E+02  0.7816164E-02  0.1226708E+00
        -11   -1    0    0    0    0  0.00000000000E+00  0.00000000000E+00  0.45593999997E+02  0.45594000000E+02  0.51100000000E-03 0. -1.
         11   -1    0    0    0    0 -0.00000000000E+00 -0.00000000000E+00 -0.45593999997E+02  0.45594000000E+02  0.51100000000E-03 0.  1.
    9900012    2    1    2    0    0  0.12489062260E+02  0.89891834362E+01  0.10672298389E+02  0.72461546842E+02  0.69999969449E+02 0.  0.
         12    1    1    2    0    0 -0.12489062260E+02 -0.89891834362E+01 -0.10672298389E+02  0.18726453158E+02  0.00000000000E+00 0. -1.
         11    1    3    3    0    0  0.30063323842E+02 -0.56373553976E+01  0.16393908672E+02  0.34703651942E+02  0.51100000000E-03 0. -1.
        -11    1    3    3    0    0  0.68109821495E+00  0.16566843520E+02 -0.93633784321E+01  0.19041981381E+02  0.51100000000E-03 0.  1.
         12    1    3    3    0    0 -0.18255359797E+02 -0.19403046866E+01  0.36417681492E+01  0.18715913519E+02  0.00000000000E+00 0. -1.
</event>
<event>
 7    1  0.1333056E-013  0.7246136E+02  0.7816164E-02  0.1226709E+00
        -11   -1    0    0    0    0  0.00000000000E+00  0.00000000000E+00  0.45593999997E+02  0.45594000000E+02  0.51100000000E-03 0. -1.
         11   -1    0    0    0    0 -0.00000000000E+00 -0.00000000000E+00 -0.45593999997E+02  0.45594000000E+02  0.51100000000E-03 0.  1.
    9900012    2    1    2    0    0  0.15643846847E+02  0.80715029126E+01 -0.63881054161E+01  0.72461361373E+02  0.69999727841E+02 0.  0.
         12    1    1    2    0    0 -0.15643846847E+02 -0.80715029126E+01  0.63881054161E+01  0.18726638627E+02  0.00000000000E+00 0. -1.
         11    1    3    3    0    0 -0.73888992108E+01 -0.90910777100E+01 -0.30428760846E+02  0.32606027240E+02  0.51100000000E-03 0. -1.
        -11    1    3    3    0    0  0.14332473832E+02  0.22490511558E+01  0.10376129406E+02  0.17836538312E+02  0.51100000000E-03 0.  1.
         12    1    3    3    0    0  0.87002722261E+01  0.14913529467E+02  0.13664526024E+02  0.22018795822E+02  0.00000000000E+00 0. -1.
</event>
<event>
 7    1  0.1333056E-013  0.7246151E+02  0.7816164E-02  0.1226708E+00
        -11   -1    0    0    0    0  0.00000000000E+00  0.00000000000E+00  0.45593999997E+02  0.45594000000E+02  0.51100000000E-03 0. -1.
         11   -1    0    0    0    0 -0.00000000000E+00 -0.00000000000E+00 -0.45593999997E+02  0.45594000000E+02  0.51100000000E-03 0.  1.
    9900012    2    1    2    0    0 -0.18564151731E+02  0.17610492804E+00  0.24540964243E+01  0.72461512564E+02  0.69999924795E+02 0.  0.
         12    1    1    2    0    0  0.18564151731E+02 -0.17610492804E+00 -0.24540964243E+01  0.18726487436E+02  0.00000000000E+00 0. -1.
         11    1    3    3    0    0 -0.17769514525E+02  0.25097971799E+02  0.44658590749E+01  0.31074229394E+02  0.51100000000E-03 0. -1.
        -11    1    3    3    0    0 -0.15938540953E+01 -0.26392116938E+02  0.10731177749E+02  0.28534932688E+02  0.51100000000E-03 0.  1.
         12    1    3    3    0    0  0.79921688905E+00  0.14702500667E+01 -0.12742940400E+02  0.12852350482E+02  0.00000000000E+00 0. -1.
</event>
<event>
 7    1  0.1333056E-013  0.7246158E+02  0.7816164E-02  0.1226708E+00
        -11   -1    0    0    0    0  0.00000000000E+00  0.00000000000E+00  0.45593999997E+02  0.45594000000E+02  0.51100000000E-03 0.  1.
         11   -1    0    0    0    0 -0.00000000000E+00 -0.00000000000E+00 -0.45593999997E+02  0.45594000000E+02  0.51100000000E-03 0. -1.
    9900012    2    1    2    0    0  0.16931013172E+02  0.30382408763E+01 -0.74019302866E+01  0.72461583188E+02  0.70000016796E+02 0.  0.
         12    1    1    2    0    0 -0.16931013172E+02 -0.30382408763E+01  0.74019302866E+01  0.18726416812E+02  0.00000000000E+00 0. -1.
         11    1    3    3    0    0  0.90753463174E+01  0.75943436697E+01 -0.35014995289E+02  0.36960598776E+02  0.51100000000E-03 0. -1.
        -11    1    3    3    0    0 -0.14903492360E+01 -0.89355197870E+01  0.43461650360E+01  0.10047577096E+02  0.51100000000E-03 0.  1.
         12    1    3    3    0    0  0.93460160907E+01  0.43794169936E+01  0.23266899966E+02  0.25453407316E+02  0.00000000000E+00 0. -1.
</event>
<event>
 7    1  0.1333056E-013  0.7246157E+02  0.7816164E-02  0.1226708E+00
        -11   -1    0    0    0    0  0.00000000000E+00  0.00000000000E+00  0.45593999997E+02  0.45594000000E+02  0.51100000000E-03 0. -1.
         11   -1    0    0    0    0 -0.00000000000E+00 -0.00000000000E+00 -0.45593999997E+02  0.45594000000E+02  0.51100000000E-03 0.  1.
    9900012    2    1    2    0    0  0.63902914853E+01  0.90435575574E+01 -0.15101564778E+02  0.72461574358E+02  0.70000005294E+02 0.  0.
         12    1    1    2    0    0 -0.63902914853E+01 -0.90435575574E+01  0.15101564778E+02  0.18726425642E+02  0.00000000000E+00 0. -1.
         11    1    3    3    0    0 -0.20723841640E+01 -0.19616827979E+02 -0.22858116949E+02  0.30192850591E+02  0.51100000000E-03 0. -1.
        -11    1    3    3    0    0  0.18464119898E+02  0.23239945042E+02  0.84809991398E+01  0.30869825329E+02  0.51100000000E-03 0.  1.
        -12    1    3    3    0    0 -0.10001444248E+02  0.54204404940E+01 -0.72444696888E+00  0.11398898439E+02  0.00000000000E+00 0.  1.
</event>
<event>
 7    1  0.1333056E-013  0.7246167E+02  0.7816164E-02  0.1226708E+00
        -11   -1    0    0    0    0  0.00000000000E+00  0.00000000000E+00  0.45593999997E+02  0.45594000000E+02  0.51100000000E-03 0. -1.
         11   -1    0    0    0    0 -0.00000000000E+00 -0.00000000000E+00 -0.45593999997E+02  0.45594000000E+02  0.51100000000E-03 0.  1.
    9900012    2    1    2    0    0  0.49537463099E+01  0.18019076338E+02  0.12036561065E+01  0.72461668203E+02  0.70000127544E+02 0.  0.
         12    1    1    2    0    0 -0.49537463099E+01 -0.18019076338E+02 -0.12036561065E+01  0.18726331797E+02  0.00000000000E+00 0. -1.
         11    1    3    3    0    0 -0.79961797897E+01  0.26337982016E+02 -0.20438962994E+02  0.34283806621E+02  0.51100000000E-03 0. -1.
        -11    1    3    3    0    0  0.89006216879E+01 -0.16554974619E+02  0.54583458980E+01  0.19572475348E+02  0.51100000000E-03 0.  1.
        -12    1    3    3    0    0  0.40493044117E+01  0.82360689405E+01  0.16184273202E+02  0.18605386233E+02  0.00000000000E+00 0.  1.
</event>
<event>
 7    1  0.1333056E-013  0.7246155E+02  0.7816164E-02  0.1226708E+00
        -11   -1    0    0    0    0  0.00000000000E+00  0.00000000000E+00  0.45593999997E+02  0.45594000000E+02  0.51100000000E-03 0.  1.
         11   -1    0    0    0    0 -0.00000000000E+00 -0.00000000000E+00 -0.45593999997E+02  0.45594000000E+02  0.51100000000E-03 0. -1.
    9900012    2    1    2    0    0  0.35998453661E+01  0.69137927218E+01  0.17027057151E+02  0.72461545673E+02  0.69999967926E+02 0.  0.
         12    1    1    2    0    0 -0.35998453661E+01 -0.69137927218E+01 -0.17027057151E+02  0.18726454327E+02  0.00000000000E+00 0. -1.
         11    1    3    3    0    0  0.30109142872E+02  0.22403749864E+02  0.11028354915E+02  0.39116660195E+02  0.51100000000E-03 0.  1.
        -11    1    3    3    0    0 -0.14844590172E+02 -0.14999616321E+02  0.32690757891E+01  0.21355027603E+02  0.51100000000E-03 0. -1.
        -12    1    3    3    0    0 -0.11664707334E+02 -0.49034082145E+00  0.27296264471E+01  0.11989857874E+02  0.00000000000E+00 0.  1.
</event>
<event>
 7    1  0.1333056E-013  0.7246158E+02  0.7816164E-02  0.1226708E+00
        -11   -1    0    0    0    0  0.00000000000E+00  0.00000000000E+00  0.45593999997E+02  0.45594000000E+02  0.51100000000E-03 0. -1.
         11   -1    0    0    0    0 -0.00000000000E+00 -0.00000000000E+00 -0.45593999997E+02  0.45594000000E+02  0.51100000000E-03 0.  1.
    9900012    2    1    2    0    0  0.13449386636E+02 -0.12773600935E+02 -0.25744890802E+01  0.72461578138E+02  0.70000010218E+02 0.  0.
         12    1    1    2    0    0 -0.13449386636E+02  0.12773600935E+02  0.25744890802E+01  0.18726421862E+02  0.00000000000E+00 0. -1.
         11    1    3    3    0    0  0.24670848026E+02  0.14003198112E+02 -0.34069010658E+01  0.28571791593E+02  0.51100000000E-03 0. -1.
        -11    1    3    3    0    0 -0.63312882674E+01 -0.20161860357E+02  0.16086699333E+02  0.26558759758E+02  0.51100000000E-03 0.  1.
         12    1    3    3    0    0 -0.48901731229E+01 -0.66149386896E+01 -0.15254287347E+02  0.17331026788E+02  0.00000000000E+00 0. -1.
</event>
<event>
 7    1  0.1333056E-013  0.7246156E+02  0.7816164E-02  0.1226708E+00
        -11   -1    0    0    0    0  0.00000000000E+00  0.00000000000E+00  0.45593999997E+02  0.45594000000E+02  0.51100000000E-03 0.  1.
         11   -1    0    0    0    0 -0.00000000000E+00 -0.00000000000E+00 -0.45593999997E+02  0.45594000000E+02  0.51100000000E-03 0. -1.
    9900012    2    1    2    0    0  0.34186821583E+01 -0.17004984835E+01  0.18333048155E+02  0.72461555131E+02  0.69999980247E+02 0.  0.
         12    1    1    2    0    0 -0.34186821583E+01  0.17004984835E+01 -0.18333048155E+02  0.18726444869E+02  0.00000000000E+00 0. -1.
         11    1    3    3    0    0  0.24601658171E+02  0.16824810325E+02 -0.21341213277E+01  0.29880935416E+02  0.51100000000E-03 0. -1.
        -11    1    3    3    0    0  0.37890666237E+01 -0.10267446967E+02  0.46679337211E+01  0.11898197283E+02  0.51100000000E-03 0.  1.
         12    1    3    3    0    0 -0.24972042637E+02 -0.82578618415E+01  0.15799235761E+02  0.30682422432E+02  0.00000000000E+00 0. -1.
</event>
<event>
 7    1  0.1333056E-013  0.7246162E+02  0.7816164E-02  0.1226708E+00
        -11   -1    0    0    0    0  0.00000000000E+00  0.00000000000E+00  0.45593999997E+02  0.45594000000E+02  0.51100000000E-03 0.  1.
         11   -1    0    0    0    0 -0.00000000000E+00 -0.00000000000E+00 -0.45593999997E+02  0.45594000000E+02  0.51100000000E-03 0. -1.
    9900012    2    1    2    0    0  0.67769287774E+01  0.84375040633E+00  0.17436704858E+02  0.72461618750E+02  0.70000063123E+02 0.  0.
         12    1    1    2    0    0 -0.67769287774E+01 -0.84375040633E+00 -0.17436704858E+02  0.18726381250E+02  0.00000000000E+00 0. -1.
         11    1    3    3    0    0  0.78745919900E+01  0.87336530259E+01 -0.17816031861E+02  0.21347058011E+02  0.51100000000E-03 0. -1.
        -11    1    3    3    0    0 -0.11128134108E+02 -0.17461244481E+02  0.11696333939E+02  0.23780972550E+02  0.51100000000E-03 0.  1.
        -12    1    3    3    0    0  0.10030470895E+02  0.95713418619E+01  0.23556402779E+02  0.27333588190E+02  0.00000000000E+00 0.  1.
</event>
<event>
 7    1  0.1554760E-013  0.7246159E+02  0.7816164E-02  0.1226708E+00
        -11   -1    0    0    0    0  0.00000000000E+00  0.00000000000E+00  0.45593999997E+02  0.45594000000E+02  0.51100000000E-03 0. -1.
         11   -1    0    0    0    0 -0.00000000000E+00 -0.00000000000E+00 -0.45593999997E+02  0.45594000000E+02  0.51100000000E-03 0.  1.
    9900012    2    1    2    0    0  0.81978375714E-01  0.88660317717E+00 -0.18705232499E+02  0.72461587944E+02  0.70000022991E+02 0.  0.
         12    1    1    2    0    0 -0.81978375714E-01 -0.88660317717E+00  0.18705232499E+02  0.18726412056E+02  0.00000000000E+00 0. -1.
         11    1    3    3    0    0  0.65222809724E+01  0.32611789011E+01  0.11590645188E+02  0.13693739191E+02  0.51100000000E-03 0. -1.
        -11    1    3    3    0    0 -0.24812224871E+02  0.10913620769E+02 -0.20883195754E+02  0.34217853330E+02  0.51100000000E-03 0.  1.
        -12    1    3    3    0    0  0.18371922274E+02 -0.13288196493E+02 -0.94126819329E+01  0.24549995423E+02  0.00000000000E+00 0.  1.
</event>
<event>
 7    1  0.1609384E-013  0.7246157E+02  0.7816164E-02  0.1226708E+00
        -11   -1    0    0    0    0  0.00000000000E+00  0.00000000000E+00  0.45593999997E+02  0.45594000000E+02  0.51100000000E-03 0.  1.
         11   -1    0    0    0    0 -0.00000000000E+00 -0.00000000000E+00 -0.45593999997E+02  0.45594000000E+02  0.51100000000E-03 0. -1.
    9900012    2    1    2    0    0 -0.44633525591E+01 -0.79619266892E+01 -0.16351314380E+02  0.72461567488E+02  0.69999996344E+02 0.  0.
         12    1    1    2    0    0  0.44633525591E+01  0.79619266892E+01  0.16351314380E+02  0.18726432512E+02  0.00000000000E+00 0. -1.
         11    1    3    3    0    0  0.23466645736E+02  0.90758722320E+01 -0.36595079814E+01  0.25425320407E+02  0.51100000000E-03 0. -1.
        -11    1    3    3    0    0 -0.20516693582E+02 -0.15565861329E+02  0.63711614051E+01  0.26529652323E+02  0.51100000000E-03 0.  1.
        -12    1    3    3    0    0 -0.74133047127E+01 -0.14719375918E+01 -0.19062967804E+02  0.20506594757E+02  0.00000000000E+00 0.  1.
</event>
<event>
 7    1  0.1333056E-013  0.7246158E+02  0.7816164E-02  0.1226708E+00
        -11   -1    0    0    0    0  0.00000000000E+00  0.00000000000E+00  0.45593999997E+02  0.45594000000E+02  0.51100000000E-03 0.  1.
         11   -1    0    0    0    0 -0.00000000000E+00 -0.00000000000E+00 -0.45593999997E+02  0.45594000000E+02  0.51100000000E-03 0. -1.
    9900012    2    1    2    0    0  0.14543026527E+02 -0.89784099921E+01 -0.76529347543E+01  0.72461578108E+02  0.70000010178E+02 0.  0.
         12    1    1    2    0    0 -0.14543026527E+02  0.89784099921E+01  0.76529347543E+01  0.18726421892E+02  0.00000000000E+00 0. -1.
         11    1    3    3    0    0  0.16145170493E+02 -0.33445625422E+02 -0.22196810750E+02  0.43266324063E+02  0.51100000000E-03 0. -1.
        -11    1    3    3    0    0 -0.91822252197E+00  0.12842357541E+02  0.11238823279E+02  0.17090360698E+02  0.51100000000E-03 0.  1.
         12    1    3    3    0    0 -0.68392144456E+00  0.11624857889E+02  0.33050527166E+01  0.12104893347E+02  0.00000000000E+00 0. -1.
</event>
<event>
 7    1  0.1333056E-013  0.7246158E+02  0.7816164E-02  0.1226708E+00
        -11   -1    0    0    0    0  0.00000000000E+00  0.00000000000E+00  0.45593999997E+02  0.45594000000E+02  0.51100000000E-03 0.  1.
         11   -1    0    0    0    0 -0.00000000000E+00 -0.00000000000E+00 -0.45593999997E+02  0.45594000000E+02  0.51100000000E-03 0. -1.
    9900012    2    1    2    0    0  0.14692901230E+02 -0.11462890937E+02 -0.18437809954E+01  0.72461581668E+02  0.70000014816E+02 0.  0.
         12    1    1    2    0    0 -0.14692901230E+02  0.11462890937E+02  0.18437809954E+01  0.18726418332E+02  0.00000000000E+00 0. -1.
         11    1    3    3    0    0  0.32930872463E+02  0.11180224657E+02  0.47082621335E+01  0.35094266157E+02  0.51100000000E-03 0. -1.
        -11    1    3    3    0    0 -0.79896053210E+01 -0.23674243051E+02  0.31483101482E+00  0.24988051066E+02  0.51100000000E-03 0.  1.
         12    1    3    3    0    0 -0.10248365912E+02  0.10311274576E+01 -0.68668741437E+01  0.12379264445E+02  0.00000000000E+00 0. -1.
</event>
<event>
 7    1  0.1333056E-013  0.7246216E+02  0.7816164E-02  0.1226706E+00
        -11   -1    0    0    0    0  0.00000000000E+00  0.00000000000E+00  0.45593999997E+02  0.45594000000E+02  0.51100000000E-03 0.  1.
         11   -1    0    0    0    0 -0.00000000000E+00 -0.00000000000E+00 -0.45593999997E+02  0.45594000000E+02  0.51100000000E-03 0. -1.
    9900012    2    1    2    0    0  0.12882487081E+02 -0.10376488234E+02  0.87765024518E+01  0.72462162856E+02  0.70000771917E+02 0.  0.
         12    1    1    2    0    0 -0.12882487081E+02  0.10376488234E+02 -0.87765024518E+01  0.18725837144E+02  0.00000000000E+00 0. -1.
         11    1    3    3    0    0  0.29828198169E+01 -0.88045514358E+01 -0.54933141974E+01  0.10797862806E+02  0.51100000000E-03 0. -1.
        -11    1    3    3    0    0  0.87971667109E+01  0.25021505416E+02  0.21433592716E+02  0.34100803105E+02  0.51100000000E-03 0.  1.
        -12    1    3    3    0    0  0.11025005533E+01 -0.26593442214E+02 -0.71637760669E+01  0.27563496945E+02  0.00000000000E+00 0.  1.
</event>
<event>
 7    1  0.1333056E-013  0.7246160E+02  0.7816164E-02  0.1226708E+00
        -11   -1    0    0    0    0  0.00000000000E+00  0.00000000000E+00  0.45593999997E+02  0.45594000000E+02  0.51100000000E-03 0.  1.
         11   -1    0    0    0    0 -0.00000000000E+00 -0.00000000000E+00 -0.45593999997E+02  0.45594000000E+02  0.51100000000E-03 0. -1.
    9900012    2    1    2    0    0 -0.95435668610E+01 -0.60053233143E+01  0.14951067154E+02  0.72461601906E+02  0.70000041180E+02 0.  0.
         12    1    1    2    0    0  0.95435668610E+01  0.60053233143E+01 -0.14951067154E+02  0.18726398094E+02  0.00000000000E+00 0. -1.
         11    1    3    3    0    0 -0.25700092701E+01  0.71519629134E+01 -0.12647622873E+02  0.14755266374E+02  0.51100000000E-03 0. -1.
        -11    1    3    3    0    0 -0.17842492169E+02 -0.25687134979E+02  0.26653282739E+02  0.41092346140E+02  0.51100000000E-03 0.  1.
        -12    1    3    3    0    0  0.10868934578E+02  0.12529848751E+02  0.94540728753E+00  0.16613989392E+02  0.00000000000E+00 0.  1.
</event>
<event>
 7    1  0.1333056E-013  0.7246147E+02  0.7816164E-02  0.1226708E+00
        -11   -1    0    0    0    0  0.00000000000E+00  0.00000000000E+00  0.45593999997E+02  0.45594000000E+02  0.51100000000E-03 0. -1.
         11   -1    0    0    0    0 -0.00000000000E+00 -0.00000000000E+00 -0.45593999997E+02  0.45594000000E+02  0.51100000000E-03 0.  1.
    9900012    2    1    2    0    0 -0.14911994449E+02 -0.32871120017E+01 -0.10840212397E+02  0.72461470995E+02  0.69999870644E+02 0.  0.
         12    1    1    2    0    0  0.14911994449E+02  0.32871120017E+01  0.10840212397E+02  0.18726529005E+02  0.00000000000E+00 0. -1.
         11    1    3    3    0    0  0.12122654348E+02 -0.10386592118E+02 -0.19349236004E+02  0.25084516708E+02  0.51100000000E-03 0.  1.
        -11    1    3    3    0    0 -0.16290171216E+02 -0.50629868266E+01  0.20886002810E+02  0.26967176854E+02  0.51100000000E-03 0. -1.
        -12    1    3    3    0    0 -0.10744477581E+02  0.12162466943E+02 -0.12376979203E+02  0.20409777432E+02  0.00000000000E+00 0.  1.
</event>
<event>
 7    1  0.1333056E-013  0.7246157E+02  0.7816164E-02  0.1226708E+00
        -11   -1    0    0    0    0  0.00000000000E+00  0.00000000000E+00  0.45593999997E+02  0.45594000000E+02  0.51100000000E-03 0.  1.
         11   -1    0    0    0    0 -0.00000000000E+00 -0.00000000000E+00 -0.45593999997E+02  0.45594000000E+02  0.51100000000E-03 0. -1.
    9900012    2    1    2    0    0  0.25703447416E+01 -0.22775536528E+00  0.18547791602E+02  0.72461571673E+02  0.70000001795E+02 0.  0.
         12    1    1    2    0    0 -0.25703447416E+01  0.22775536528E+00 -0.18547791602E+02  0.18726428327E+02  0.00000000000E+00 0. -1.
         11    1    3    3    0    0  0.17282861282E+01 -0.83111034137E+01 -0.13582366886E+02  0.16016931772E+02  0.51100000000E-03 0. -1.
        -11    1    3    3    0    0  0.91341471913E+01  0.16701901343E+02  0.38459730248E+02  0.42913133239E+02  0.51100000000E-03 0.  1.
        -12    1    3    3    0    0 -0.82920885779E+01 -0.86185532942E+01 -0.63295717602E+01  0.13531506662E+02  0.00000000000E+00 0.  1.
</event>
<event>
 7    1  0.1333056E-013  0.7246159E+02  0.7816164E-02  0.1226708E+00
        -11   -1    0    0    0    0  0.00000000000E+00  0.00000000000E+00  0.45593999997E+02  0.45594000000E+02  0.51100000000E-03 0. -1.
         11   -1    0    0    0    0 -0.00000000000E+00 -0.00000000000E+00 -0.45593999997E+02  0.45594000000E+02  0.51100000000E-03 0.  1.
    9900012    2    1    2    0    0  0.47062769334E+01  0.17916294098E+02 -0.27451100809E+01  0.72461594415E+02  0.70000031422E+02 0.  0.
         12    1    1    2    0    0 -0.47062769334E+01 -0.17916294098E+02  0.27451100809E+01  0.18726405585E+02  0.00000000000E+00 0. -1.
         11    1    3    3    0    0  0.27528415261E+02  0.10050007905E+02 -0.71222745224E+01  0.30158632268E+02  0.51100000000E-03 0.  1.
        -11    1    3    3    0    0 -0.20426615919E+02  0.11536391143E+02  0.16980172995E+02  0.28959648370E+02  0.51100000000E-03 0. -1.
        -12    1    3    3    0    0 -0.23955224078E+01 -0.36701049506E+01 -0.12603008553E+02  0.13343313777E+02  0.00000000000E+00 0.  1.
</event>
<event>
 7    1  0.1333056E-013  0.7246230E+02  0.7816164E-02  0.1226706E+00
        -11   -1    0    0    0    0  0.00000000000E+00  0.00000000000E+00  0.45593999997E+02  0.45594000000E+02  0.51100000000E-03 0.  1.
         11   -1    0    0    0    0 -0.00000000000E+00 -0.00000000000E+00 -0.45593999997E+02  0.45594000000E+02  0.51100000000E-03 0. -1.
    9900012    2    1    2    0    0  0.38505371806E+01 -0.17878517103E+02 -0.40229256306E+01  0.72462297316E+02  0.70000947074E+02 0.  0.
         12    1    1    2    0    0 -0.38505371806E+01  0.17878517103E+02  0.40229256306E+01  0.18725702684E+02  0.00000000000E+00 0. -1.
         11    1    3    3    0    0  0.96690913881E+01  0.15970008165E+02  0.15262645366E+02  0.24113913679E+02  0.51100000000E-03 0. -1.
        -11    1    3    3    0    0  0.50267366301E+00 -0.13762407850E+02  0.63568339560E+01  0.15167923024E+02  0.51100000000E-03 0.  1.
         12    1    3    3    0    0 -0.63212278705E+01 -0.20086117418E+02 -0.25642404953E+02  0.33180460613E+02  0.00000000000E+00 0. -1.
</event>
<event>
 7    1  0.1333056E-013  0.7246156E+02  0.7816164E-02  0.1226708E+00
        -11   -1    0    0    0    0  0.00000000000E+00  0.00000000000E+00  0.45593999997E+02  0.45594000000E+02  0.51100000000E-03 0. -1.
         11   -1    0    0    0    0 -0.00000000000E+00 -0.00000000000E+00 -0.45593999997E+02  0.45594000000E+02  0.51100000000E-03 0.  1.
    9900012    2    1    2    0    0 -0.38490053203E+01  0.13019982601E+02 -0.12897472396E+02  0.72461559252E+02  0.69999985615E+02 0.  0.
         12    1    1    2    0    0  0.38490053203E+01 -0.13019982601E+02  0.12897472396E+02  0.18726440748E+02  0.00000000000E+00 0. -1.
         11    1    3    3    0    0 -0.47904033274E+01  0.22414848528E+02  0.18781800108E+02  0.29633248457E+02  0.51100000000E-03 0. -1.
        -11    1    3    3    0    0  0.87011151880E+01  0.65578845385E+01 -0.97423228624E+01  0.14616022378E+02  0.51100000000E-03 0.  1.
         12    1    3    3    0    0 -0.77597171809E+01 -0.15952750466E+02 -0.21936949642E+02  0.28212288417E+02  0.00000000000E+00 0. -1.
</event>
<event>
 7    1  0.1333056E-013  0.7246156E+02  0.7816164E-02  0.1226708E+00
        -11   -1    0    0    0    0  0.00000000000E+00  0.00000000000E+00  0.45593999997E+02  0.45594000000E+02  0.51100000000E-03 0. -1.
         11   -1    0    0    0    0 -0.00000000000E+00 -0.00000000000E+00 -0.45593999997E+02  0.45594000000E+02  0.51100000000E-03 0.  1.
    9900012    2    1    2    0    0 -0.77744207256E+00  0.17834380053E+02 -0.56577487520E+01  0.72461557493E+02  0.69999983323E+02 0.  0.
         12    1    1    2    0    0  0.77744207256E+00 -0.17834380053E+02  0.56577487520E+01  0.18726442507E+02  0.00000000000E+00 0. -1.
         11    1    3    3    0    0 -0.38068621277E+00  0.13619070158E+02  0.24489929425E+02  0.28024643395E+02  0.51100000000E-03 0. -1.
        -11    1    3    3    0    0 -0.43726684572E+01  0.17714015920E+02 -0.13865070815E+02  0.22916081218E+02  0.51100000000E-03 0.  1.
         12    1    3    3    0    0  0.39759125974E+01 -0.13498706025E+02 -0.16282607361E+02  0.21520832879E+02  0.00000000000E+00 0. -1.
</event>
<event>
 7    1  0.1333056E-013  0.7246158E+02  0.7816164E-02  0.1226708E+00
        -11   -1    0    0    0    0  0.00000000000E+00  0.00000000000E+00  0.45593999997E+02  0.45594000000E+02  0.51100000000E-03 0. -1.
         11   -1    0    0    0    0 -0.00000000000E+00 -0.00000000000E+00 -0.45593999997E+02  0.45594000000E+02  0.51100000000E-03 0.  1.
    9900012    2    1    2    0    0  0.94783151124E+01 -0.96911559619E+00 -0.16121454316E+02  0.72461576645E+02  0.70000008273E+02 0.  0.
         12    1    1    2    0    0 -0.94783151124E+01  0.96911559619E+00  0.16121454316E+02  0.18726423355E+02  0.00000000000E+00 0. -1.
         11    1    3    3    0    0 -0.67474558370E+01 -0.23969132691E+02  0.94841117372E+01  0.26645747465E+02  0.51100000000E-03 0.  1.
        -11    1    3    3    0    0  0.12230124911E+02  0.17398170493E+02 -0.30634824877E+02  0.37292958951E+02  0.51100000000E-03 0. -1.
         12    1    3    3    0    0  0.39956460388E+01  0.56018466026E+01  0.50292588239E+01  0.85228702292E+01  0.00000000000E+00 0. -1.
</event>
<event>
 7    1  0.1333056E-013  0.7246146E+02  0.7816164E-02  0.1226708E+00
        -11   -1    0    0    0    0  0.00000000000E+00  0.00000000000E+00  0.45593999997E+02  0.45594000000E+02  0.51100000000E-03 0.  1.
         11   -1    0    0    0    0 -0.00000000000E+00 -0.00000000000E+00 -0.45593999997E+02  0.45594000000E+02  0.51100000000E-03 0. -1.
    9900012    2    1    2    0    0  0.10829321620E+02 -0.99146842254E+01  0.11623609219E+02  0.72461455703E+02  0.69999850723E+02 0.  0.
         12    1    1    2    0    0 -0.10829321620E+02  0.99146842254E+01 -0.11623609219E+02  0.18726544297E+02  0.00000000000E+00 0. -1.
         11    1    3    3    0    0 -0.21155687849E+02  0.86322534729E+01 -0.57163028075E+01  0.23553238555E+02  0.51100000000E-03 0. -1.
        -11    1    3    3    0    0  0.34085405246E+02 -0.17011566775E+02  0.21691972154E+02  0.43837768090E+02  0.51100000000E-03 0.  1.
        -12    1    3    3    0    0 -0.21003957779E+01 -0.15353709229E+01 -0.43520601272E+01  0.50704490576E+01  0.00000000000E+00 0.  1.
</event>
<event>
 7    1  0.1333056E-013  0.7246163E+02  0.7816164E-02  0.1226708E+00
        -11   -1    0    0    0    0  0.00000000000E+00  0.00000000000E+00  0.45593999997E+02  0.45594000000E+02  0.51100000000E-03 0.  1.
         11   -1    0    0    0    0 -0.00000000000E+00 -0.00000000000E+00 -0.45593999997E+02  0.45594000000E+02  0.51100000000E-03 0. -1.
    9900012    2    1    2    0    0  0.56579246526E+01  0.16734838841E+02  0.62136990992E+01  0.72461628251E+02  0.70000075499E+02 0.  0.
         12    1    1    2    0    0 -0.56579246526E+01 -0.16734838841E+02 -0.62136990992E+01  0.18726371749E+02  0.00000000000E+00 0. -1.
         11    1    3    3    0    0 -0.23624454026E+02 -0.69410356437E+01  0.19109115233E+02  0.31168110130E+02  0.51100000000E-03 0. -1.
        -11    1    3    3    0    0  0.14022231217E+02  0.17720234558E+02 -0.97611211377E+01  0.24615222266E+02  0.51100000000E-03 0.  1.
         12    1    3    3    0    0  0.15260147462E+02  0.59556399268E+01 -0.31342949961E+01  0.16678295855E+02  0.00000000000E+00 0. -1.
</event>
<event>
 7    1  0.1333056E-013  0.7246159E+02  0.7816164E-02  0.1226708E+00
        -11   -1    0    0    0    0  0.00000000000E+00  0.00000000000E+00  0.45593999997E+02  0.45594000000E+02  0.51100000000E-03 0.  1.
         11   -1    0    0    0    0 -0.00000000000E+00 -0.00000000000E+00 -0.45593999997E+02  0.45594000000E+02  0.51100000000E-03 0. -1.
    9900012    2    1    2    0    0 -0.12114630525E+02 -0.44294683380E+01  0.13575489026E+02  0.72461591781E+02  0.70000027990E+02 0.  0.
         12    1    1    2    0    0  0.12114630525E+02  0.44294683380E+01 -0.13575489026E+02  0.18726408219E+02  0.00000000000E+00 0. -1.
         11    1    3    3    0    0  0.46084534155E+01 -0.14479852231E+02 -0.15663266855E+02  0.21822967084E+02  0.51100000000E-03 0. -1.
        -11    1    3    3    0    0  0.36573692940E+01  0.16250002898E+02  0.31402999616E+01  0.16949938892E+02  0.51100000000E-03 0.  1.
         12    1    3    3    0    0 -0.20380453234E+02 -0.61996190057E+01  0.26098455920E+02  0.33688685804E+02  0.00000000000E+00 0. -1.
</event>
<event>
 7    1  0.1333056E-013  0.7246163E+02  0.7816164E-02  0.1226708E+00
        -11   -1    0    0    0    0  0.00000000000E+00  0.00000000000E+00  0.45593999997E+02  0.45594000000E+02  0.51100000000E-03 0. -1.
         11   -1    0    0    0    0 -0.00000000000E+00 -0.00000000000E+00 -0.45593999997E+02  0.45594000000E+02  0.51100000000E-03 0.  1.
    9900012    2    1    2    0    0 -0.93215597061E+01 -0.13383084628E+02 -0.92020831440E+01  0.72461634531E+02  0.70000083680E+02 0.  0.
         12    1    1    2    0    0  0.93215597061E+01  0.13383084628E+02  0.92020831440E+01  0.18726365469E+02  0.00000000000E+00 0. -1.
         11    1    3    3    0    0 -0.24726807132E+01  0.19814226303E+02  0.17993913982E+02  0.26879335084E+02  0.51100000000E-03 0. -1.
        -11    1    3    3    0    0 -0.31768483362E+01 -0.21990802827E+02 -0.91600991572E+01  0.24033210171E+02  0.51100000000E-03 0.  1.
         12    1    3    3    0    0 -0.36720306567E+01 -0.11206508104E+02 -0.18035897969E+02  0.21549089275E+02  0.00000000000E+00 0. -1.
</event>
<event>
 7    1  0.1333056E-013  0.7246156E+02  0.7816164E-02  0.1226708E+00
        -11   -1    0    0    0    0  0.00000000000E+00  0.00000000000E+00  0.45593999997E+02  0.45594000000E+02  0.51100000000E-03 0. -1.
         11   -1    0    0    0    0 -0.00000000000E+00 -0.00000000000E+00 -0.45593999997E+02  0.45594000000E+02  0.51100000000E-03 0.  1.
    9900012    2    1    2    0    0 -0.11095189472E+02  0.30856797228E+01 -0.14766682170E+02  0.72461560107E+02  0.69999986729E+02 0.  0.
         12    1    1    2    0    0  0.11095189472E+02 -0.30856797228E+01  0.14766682170E+02  0.18726439893E+02  0.00000000000E+00 0. -1.
         11    1    3    3    0    0 -0.29889488322E+02  0.17201808812E+02 -0.36814032995E+01  0.34681932891E+02  0.51100000000E-03 0. -1.
        -11    1    3    3    0    0  0.18718179487E+02 -0.46267855805E+00 -0.14527443270E+02  0.23698753616E+02  0.51100000000E-03 0.  1.
        -12    1    3    3    0    0  0.76119362806E-01 -0.13653450531E+02  0.34421644001E+01  0.14080873599E+02  0.00000000000E+00 0.  1.
</event>
<event>
 7    1  0.1333056E-013  0.7246161E+02  0.7816164E-02  0.1226708E+00
        -11   -1    0    0    0    0  0.00000000000E+00  0.00000000000E+00  0.45593999997E+02  0.45594000000E+02  0.51100000000E-03 0.  1.
         11   -1    0    0    0    0 -0.00000000000E+00 -0.00000000000E+00 -0.45593999997E+02  0.45594000000E+02  0.51100000000E-03 0. -1.
    9900012    2    1    2    0    0  0.10846776348E+02  0.14792429512E+01  0.15193323021E+02  0.72461607361E+02  0.70000048287E+02 0.  0.
         12    1    1    2    0    0 -0.10846776348E+02 -0.14792429512E+01 -0.15193323021E+02  0.18726392639E+02  0.00000000000E+00 0. -1.
         11    1    3    3    0    0  0.44712041566E+01  0.44271732574E+01 -0.22027444250E+02  0.22908509994E+02  0.51100000000E-03 0. -1.
        -11    1    3    3    0    0 -0.67450431806E+01  0.11348740000E+02  0.17050682636E+02  0.21564213079E+02  0.51100000000E-03 0.  1.
         12    1    3    3    0    0  0.13120615372E+02 -0.14296670306E+02  0.20170084635E+02  0.27988884289E+02  0.00000000000E+00 0. -1.
</event>
<event>
 7    1  0.1333056E-013  0.7246157E+02  0.7816164E-02  0.1226708E+00
        -11   -1    0    0    0    0  0.00000000000E+00  0.00000000000E+00  0.45593999997E+02  0.45594000000E+02  0.51100000000E-03 0.  1.
         11   -1    0    0    0    0 -0.00000000000E+00 -0.00000000000E+00 -0.45593999997E+02  0.45594000000E+02  0.51100000000E-03 0. -1.
    9900012    2    1    2    0    0 -0.17106114045E+02 -0.16329124265E+01  0.74426856461E+01  0.72461571875E+02  0.70000002059E+02 0.  0.
         12    1    1    2    0    0  0.17106114045E+02  0.16329124265E+01 -0.74426856461E+01  0.18726428125E+02  0.00000000000E+00 0. -1.
         11    1    3    3    0    0 -0.39317057430E+02 -0.45847626149E+01  0.16630213102E+02  0.42935009506E+02  0.51100000000E-03 0.  1.
        -11    1    3    3    0    0  0.22434993954E+02 -0.11997854100E+01 -0.39046452258E+01  0.22803830673E+02  0.51100000000E-03 0. -1.
        -12    1    3    3    0    0 -0.22405056894E+00  0.41516355985E+01 -0.52828822302E+01  0.67227316961E+01  0.00000000000E+00 0.  1.
</event>
<event>
 7    1  0.1333056E-013  0.7246142E+02  0.7816164E-02  0.1226708E+00
        -11   -1    0    0    0    0  0.00000000000E+00  0.00000000000E+00  0.45593999997E+02  0.45594000000E+02  0.51100000000E-03 0.  1.
         11   -1    0    0    0    0 -0.00000000000E+00 -0.00000000000E+00 -0.45593999997E+02  0.45594000000E+02  0.51100000000E-03 0. -1.
    9900012    2    1    2    0    0  0.60334062060E+01  0.17245675299E+02 -0.41072529599E+01  0.72461419057E+02  0.69999802985E+02 0.  0.
         12    1    1    2    0    0 -0.60334062060E+01 -0.17245675299E+02  0.41072529599E+01  0.18726580943E+02  0.00000000000E+00 0. -1.
         11    1    3    3    0    0  0.85726495168E+01 -0.24522556961E+02 -0.80772070942E+00  0.25990354608E+02  0.51100000000E-03 0.  1.
        -11    1    3    3    0    0  0.66284865083E+01  0.22264151944E+02 -0.77044979399E+01  0.24474243276E+02  0.51100000000E-03 0. -1.
        -12    1    3    3    0    0 -0.91677298191E+01  0.19504080316E+02  0.44049656894E+01  0.21996821173E+02  0.00000000000E+00 0.  1.
</event>
<event>
 7    1  0.1333056E-013  0.7246177E+02  0.7816164E-02  0.1226707E+00
        -11   -1    0    0    0    0  0.00000000000E+00  0.00000000000E+00  0.45593999997E+02  0.45594000000E+02  0.51100000000E-03 0. -1.
         11   -1    0    0    0    0 -0.00000000000E+00 -0.00000000000E+00 -0.45593999997E+02  0.45594000000E+02  0.51100000000E-03 0.  1.
    9900012    2    1    2    0    0 -0.12075060551E+02 -0.11858529863E+02 -0.80149801358E+01  0.72461769082E+02  0.70000258957E+02 0.  0.
         12    1    1    2    0    0  0.12075060551E+02  0.11858529863E+02  0.80149801358E+01  0.18726230918E+02  0.00000000000E+00 0. -1.
         11    1    3    3    0    0  0.21843598275E+02 -0.16657202670E+02 -0.13046453604E+02  0.30410773392E+02  0.51100000000E-03 0. -1.
        -11    1    3    3    0    0 -0.19663397110E+02 -0.41209925639E+01 -0.71082857470E+01  0.21311018092E+02  0.51100000000E-03 0.  1.
         12    1    3    3    0    0 -0.14255261717E+02  0.89196653711E+01  0.12139759215E+02  0.20739977598E+02  0.00000000000E+00 0. -1.
</event>
<event>
 7    1  0.1333056E-013  0.7246165E+02  0.7816164E-02  0.1226708E+00
        -11   -1    0    0    0    0  0.00000000000E+00  0.00000000000E+00  0.45593999997E+02  0.45594000000E+02  0.51100000000E-03 0.  1.
         11   -1    0    0    0    0 -0.00000000000E+00 -0.00000000000E+00 -0.45593999997E+02  0.45594000000E+02  0.51100000000E-03 0. -1.
    9900012    2    1    2    0    0 -0.35817265704E+01  0.12087919178E+02  0.13846651292E+02  0.72461646717E+02  0.70000099554E+02 0.  0.
         12    1    1    2    0    0  0.35817265704E+01 -0.12087919178E+02 -0.13846651292E+02  0.18726353283E+02  0.00000000000E+00 0. -1.
         11    1    3    3    0    0 -0.29135411620E+02  0.10160479932E+02  0.32811633586E+01  0.31030204575E+02  0.51100000000E-03 0. -1.
        -11    1    3    3    0    0  0.17916664705E+02 -0.55212843340E+01 -0.77088641955E+01  0.20271113494E+02  0.51100000000E-03 0.  1.
         12    1    3    3    0    0  0.76370203448E+01  0.74487235802E+01  0.18274352129E+02  0.21160328647E+02  0.00000000000E+00 0. -1.
</event>
<event>
 7    1  0.1333056E-013  0.7246155E+02  0.7816164E-02  0.1226708E+00
        -11   -1    0    0    0    0  0.00000000000E+00  0.00000000000E+00  0.45593999997E+02  0.45594000000E+02  0.51100000000E-03 0.  1.
         11   -1    0    0    0    0 -0.00000000000E+00 -0.00000000000E+00 -0.45593999997E+02  0.45594000000E+02  0.51100000000E-03 0. -1.
    9900012    2    1    2    0    0  0.12265776210E+02 -0.13980269849E+02  0.21869596238E+01  0.72461548028E+02  0.69999970993E+02 0.  0.
         12    1    1    2    0    0 -0.12265776210E+02  0.13980269849E+02 -0.21869596238E+01  0.18726451972E+02  0.00000000000E+00 0. -1.
         11    1    3    3    0    0 -0.16522110395E+02 -0.96811400632E+01  0.69748173590E+01  0.20380203196E+02  0.51100000000E-03 0. -1.
        -11    1    3    3    0    0  0.21430385266E+02  0.26971547840E+01 -0.22798879066E+02  0.31405810664E+02  0.51100000000E-03 0.  1.
        -12    1    3    3    0    0  0.73575013401E+01 -0.69962845694E+01  0.18011021331E+02  0.20675534168E+02  0.00000000000E+00 0.  1.
</event>
<event>
 7    1  0.1333056E-013  0.7246158E+02  0.7816164E-02  0.1226708E+00
        -11   -1    0    0    0    0  0.00000000000E+00  0.00000000000E+00  0.45593999997E+02  0.45594000000E+02  0.51100000000E-03 0.  1.
         11   -1    0    0    0    0 -0.00000000000E+00 -0.00000000000E+00 -0.45593999997E+02  0.45594000000E+02  0.51100000000E-03 0. -1.
    9900012    2    1    2    0    0  0.13824894148E+02 -0.90024441067E+01  0.88604329428E+01  0.72461575621E+02  0.70000006938E+02 0.  0.
         12    1    1    2    0    0 -0.13824894148E+02  0.90024441067E+01 -0.88604329428E+01  0.18726424379E+02  0.00000000000E+00 0. -1.
         11    1    3    3    0    0  0.17927902281E+02 -0.30253596546E+02  0.14290955940E+02  0.37959467938E+02  0.51100000000E-03 0. -1.
        -11    1    3    3    0    0 -0.14148238465E+02  0.18814130013E+02 -0.20617381758E+01  0.23630380961E+02  0.51100000000E-03 0.  1.
        -12    1    3    3    0    0  0.10045230332E+02  0.24370224268E+01 -0.33687848219E+01  0.10871726722E+02  0.00000000000E+00 0.  1.
</event>
<event>
 7    1  0.1333056E-013  0.7246145E+02  0.7816164E-02  0.1226708E+00
        -11   -1    0    0    0    0  0.00000000000E+00  0.00000000000E+00  0.45593999997E+02  0.45594000000E+02  0.51100000000E-03 0.  1.
         11   -1    0    0    0    0 -0.00000000000E+00 -0.00000000000E+00 -0.45593999997E+02  0.45594000000E+02  0.51100000000E-03 0. -1.
    9900012    2    1    2    0    0  0.92236549233E+01 -0.10076516438E+02  0.12809044741E+02  0.72461451443E+02  0.69999845174E+02 0.  0.
         12    1    1    2    0    0 -0.92236549233E+01  0.10076516438E+02 -0.12809044741E+02  0.18726548557E+02  0.00000000000E+00 0. -1.
         11    1    3    3    0    0  0.20586905006E+02  0.13328006698E+02  0.36814004636E+01  0.24799377612E+02  0.51100000000E-03 0. -1.
        -11    1    3    3    0    0 -0.80419052762E+01 -0.16738914481E+02  0.24404510563E+02  0.30666653462E+02  0.51100000000E-03 0.  1.
         12    1    3    3    0    0 -0.33213448068E+01 -0.66656086550E+01 -0.15276866285E+02  0.16995420370E+02  0.00000000000E+00 0. -1.
</event>
<event>
 7    1  0.1333056E-013  0.7246157E+02  0.7816164E-02  0.1226708E+00
        -11   -1    0    0    0    0  0.00000000000E+00  0.00000000000E+00  0.45593999997E+02  0.45594000000E+02  0.51100000000E-03 0.  1.
         11   -1    0    0    0    0 -0.00000000000E+00 -0.00000000000E+00 -0.45593999997E+02  0.45594000000E+02  0.51100000000E-03 0. -1.
    9900012    2    1    2    0    0 -0.12726510526E+02 -0.83662508309E+01 -0.10895912684E+02  0.72461571180E+02  0.70000001153E+02 0.  0.
         12    1    1    2    0    0  0.12726510526E+02  0.83662508309E+01  0.10895912684E+02  0.18726428820E+02  0.00000000000E+00 0. -1.
         11    1    3    3    0    0 -0.87509548801E+01 -0.22107477499E+02 -0.31687052388E+02  0.39615515420E+02  0.51100000000E-03 0. -1.
        -11    1    3    3    0    0 -0.55634285464E+01  0.18790197657E+02  0.13338704729E+02  0.23705364568E+02  0.51100000000E-03 0.  1.
         12    1    3    3    0    0  0.15878729001E+01 -0.50489709893E+01  0.74524349755E+01  0.91406911917E+01  0.00000000000E+00 0. -1.
</event>
<event>
 7    1  0.1333056E-013  0.7246156E+02  0.7816164E-02  0.1226708E+00
        -11   -1    0    0    0    0  0.00000000000E+00  0.00000000000E+00  0.45593999997E+02  0.45594000000E+02  0.51100000000E-03 0. -1.
         11   -1    0    0    0    0 -0.00000000000E+00 -0.00000000000E+00 -0.45593999997E+02  0.45594000000E+02  0.51100000000E-03 0.  1.
    9900012    2    1    2    0    0 -0.54195064858E+01  0.17916409461E+02 -0.55749659043E+00  0.72461559309E+02  0.69999985689E+02 0.  0.
         12    1    1    2    0    0  0.54195064858E+01 -0.17916409461E+02  0.55749659043E+00  0.18726440691E+02  0.00000000000E+00 0. -1.
         11    1    3    3    0    0  0.12191121634E+02  0.35015993883E+01 -0.19424350451E+02  0.23198923158E+02  0.51100000000E-03 0.  1.
        -11    1    3    3    0    0 -0.20935876256E+02  0.23338488220E+02  0.22996871942E+02  0.38882541922E+02  0.51100000000E-03 0. -1.
         12    1    3    3    0    0  0.33252481356E+01 -0.89236781473E+01 -0.41300180809E+01  0.10380094228E+02  0.00000000000E+00 0. -1.
</event>
<event>
 7    1  0.1333056E-013  0.7246165E+02  0.7816164E-02  0.1226708E+00
        -11   -1    0    0    0    0  0.00000000000E+00  0.00000000000E+00  0.45593999997E+02  0.45594000000E+02  0.51100000000E-03 0.  1.
         11   -1    0    0    0    0 -0.00000000000E+00 -0.00000000000E+00 -0.45593999997E+02  0.45594000000E+02  0.51100000000E-03 0. -1.
    9900012    2    1    2    0    0  0.67894011134E+00  0.32681348365E+01  0.18426466794E+02  0.72461645750E+02  0.70000098295E+02 0.  0.
         12    1    1    2    0    0 -0.67894011134E+00 -0.32681348365E+01 -0.18426466794E+02  0.18726354250E+02  0.00000000000E+00 0. -1.
         11    1    3    3    0    0 -0.15519582552E+02 -0.12227085806E+02 -0.28448520046E+00  0.19759554701E+02  0.51100000000E-03 0. -1.
        -11    1    3    3    0    0  0.27948230832E+02  0.10276123468E+02  0.24539290100E+02  0.38585995893E+02  0.51100000000E-03 0.  1.
        -12    1    3    3    0    0 -0.11749708169E+02  0.52190971749E+01 -0.58283381063E+01  0.14116095156E+02  0.00000000000E+00 0.  1.
</event>
<event>
 7    1  0.1333056E-013  0.7246161E+02  0.7816164E-02  0.1226708E+00
        -11   -1    0    0    0    0  0.00000000000E+00  0.00000000000E+00  0.45593999997E+02  0.45594000000E+02  0.51100000000E-03 0. -1.
         11   -1    0    0    0    0 -0.00000000000E+00 -0.00000000000E+00 -0.45593999997E+02  0.45594000000E+02  0.51100000000E-03 0.  1.
    9900012    2    1    2    0    0  0.68415208359E+01 -0.15852608888E+02  0.72502531336E+01  0.72461607224E+02  0.70000048107E+02 0.  0.
         12    1    1    2    0    0 -0.68415208359E+01  0.15852608888E+02 -0.72502531336E+01  0.18726392776E+02  0.00000000000E+00 0. -1.
         11    1    3    3    0    0 -0.15808249635E+02 -0.26083258364E+02  0.24424227751E+02  0.39074032616E+02  0.51100000000E-03 0.  1.
        -11    1    3    3    0    0  0.23412306589E+02  0.99459806140E+01 -0.11956925274E+02  0.28107413478E+02  0.51100000000E-03 0. -1.
        -12    1    3    3    0    0 -0.76253611789E+00  0.28466886175E+00 -0.52170493436E+01  0.52801611287E+01  0.00000000000E+00 0.  1.
</event>
<event>
 7    1  0.1333056E-013  0.7246157E+02  0.7816164E-02  0.1226708E+00
        -11   -1    0    0    0    0  0.00000000000E+00  0.00000000000E+00  0.45593999997E+02  0.45594000000E+02  0.51100000000E-03 0.  1.
         11   -1    0    0    0    0 -0.00000000000E+00 -0.00000000000E+00 -0.45593999997E+02  0.45594000000E+02  0.51100000000E-03 0. -1.
    9900012    2    1    2    0    0  0.40777123778E+01 -0.68112991240E+01  0.16960470067E+02  0.72461572714E+02  0.70000003152E+02 0.  0.
         12    1    1    2    0    0 -0.40777123778E+01  0.68112991240E+01 -0.16960470067E+02  0.18726427286E+02  0.00000000000E+00 0. -1.
         11    1    3    3    0    0 -0.19406354676E+02  0.39857997928E+01 -0.12165032822E+02  0.23248252098E+02  0.51100000000E-03 0. -1.
        -11    1    3    3    0    0  0.10628633288E+02  0.84052161941E+01  0.20446351419E+02  0.24528937838E+02  0.51100000000E-03 0.  1.
         12    1    3    3    0    0  0.12855433765E+02 -0.19202315111E+02  0.86791514705E+01  0.24684382779E+02  0.00000000000E+00 0. -1.
</event>
<event>
 7    1  0.3522652E-013  0.7246159E+02  0.7816164E-02  0.1226708E+00
        -11   -1    0    0    0    0  0.00000000000E+00  0.00000000000E+00  0.45593999997E+02  0.45594000000E+02  0.51100000000E-03 0. -1.
         11   -1    0    0    0    0 -0.00000000000E+00 -0.00000000000E+00 -0.45593999997E+02  0.45594000000E+02  0.51100000000E-03 0.  1.
    9900012    2    1    2    0    0 -0.58290379033E+01  0.40031577866E+01 -0.17339999388E+02  0.72461587265E+02  0.70000022108E+02 0.  0.
         12    1    1    2    0    0  0.58290379033E+01 -0.40031577866E+01  0.17339999388E+02  0.18726412735E+02  0.00000000000E+00 0. -1.
         11    1    3    3    0    0  0.19517487019E+02 -0.69082098412E+01 -0.11969890171E+01  0.20738573859E+02  0.51100000000E-03 0. -1.
        -11    1    3    3    0    0 -0.25472207633E+02 -0.93996420986E+01 -0.25237657385E+01  0.27268223760E+02  0.51100000000E-03 0.  1.
        -12    1    3    3    0    0  0.12568271031E+00  0.20311009726E+02 -0.13619244632E+02  0.24454789645E+02  0.00000000000E+00 0.  1.
</event>
<event>
 7    1  0.1333056E-013  0.7246161E+02  0.7816164E-02  0.1226708E+00
        -11   -1    0    0    0    0  0.00000000000E+00  0.00000000000E+00  0.45593999997E+02  0.45594000000E+02  0.51100000000E-03 0. -1.
         11   -1    0    0    0    0 -0.00000000000E+00 -0.00000000000E+00 -0.45593999997E+02  0.45594000000E+02  0.51100000000E-03 0.  1.
    9900012    2    1    2    0    0 -0.85004032281E+00  0.10416802683E+01 -0.18678061202E+02  0.72461611224E+02  0.70000053319E+02 0.  0.
         12    1    1    2    0    0  0.85004032281E+00 -0.10416802683E+01  0.18678061202E+02  0.18726388776E+02  0.00000000000E+00 0. -1.
         11    1    3    3    0    0 -0.57277440619E+01  0.13902325804E+02 -0.29007306735E+02  0.32672703578E+02  0.51100000000E-03 0.  1.
        -11    1    3    3    0    0 -0.48543917063E+01 -0.11524137798E+02  0.21525461894E+02  0.24894103335E+02  0.51100000000E-03 0. -1.
         12    1    3    3    0    0  0.97320954454E+01 -0.13365077381E+01 -0.11196216361E+02  0.14894804312E+02  0.00000000000E+00 0. -1.
</event>
<event>
 7    1  0.1333056E-013  0.7246126E+02  0.7816164E-02  0.1226709E+00
        -11   -1    0    0    0    0  0.00000000000E+00  0.00000000000E+00  0.45593999997E+02  0.45594000000E+02  0.51100000000E-03 0.  1.
         11   -1    0    0    0    0 -0.00000000000E+00 -0.00000000000E+00 -0.45593999997E+02  0.45594000000E+02  0.51100000000E-03 0. -1.
    9900012    2    1    2    0    0  0.10516311963E+02 -0.40681382089E+01  0.14951526675E+02  0.72461262011E+02  0.69999598403E+02 0.  0.
         12    1    1    2    0    0 -0.10516311963E+02  0.40681382089E+01 -0.14951526675E+02  0.18726737989E+02  0.00000000000E+00 0. -1.
         11    1    3    3    0    0  0.42762782044E+01 -0.83517454625E+01 -0.15899489346E+02  0.18461635065E+02  0.51100000000E-03 0. -1.
        -11    1    3    3    0    0  0.21955033147E+02  0.13310818874E+02  0.13956153527E+02  0.29222860933E+02  0.51100000000E-03 0.  1.
        -12    1    3    3    0    0 -0.15714999388E+02 -0.90272116202E+01  0.16894862494E+02  0.24776766014E+02  0.00000000000E+00 0.  1.
</event>
<event>
 7    1  0.1333056E-013  0.7246161E+02  0.7816164E-02  0.1226708E+00
        -11   -1    0    0    0    0  0.00000000000E+00  0.00000000000E+00  0.45593999997E+02  0.45594000000E+02  0.51100000000E-03 0. -1.
         11   -1    0    0    0    0 -0.00000000000E+00 -0.00000000000E+00 -0.45593999997E+02  0.45594000000E+02  0.51100000000E-03 0.  1.
    9900012    2    1    2    0    0 -0.13891063345E+02 -0.12453928720E+02 -0.16172830808E+01  0.72461612575E+02  0.70000055079E+02 0.  0.
         12    1    1    2    0    0  0.13891063345E+02  0.12453928720E+02  0.16172830808E+01  0.18726387425E+02  0.00000000000E+00 0. -1.
         11    1    3    3    0    0 -0.34950712361E+02  0.12066624530E+02  0.46123667300E+01  0.37261637768E+02  0.51100000000E-03 0. -1.
        -11    1    3    3    0    0  0.42084397462E+01 -0.48612594223E+01  0.37578997179E+01  0.74474572049E+01  0.51100000000E-03 0.  1.
         12    1    3    3    0    0  0.16851209269E+02 -0.19659293828E+02 -0.99875495288E+01  0.27752517602E+02  0.00000000000E+00 0. -1.
</event>
<event>
 7    1  0.1333056E-013  0.7246157E+02  0.7816164E-02  0.1226708E+00
        -11   -1    0    0    0    0  0.00000000000E+00  0.00000000000E+00  0.45593999997E+02  0.45594000000E+02  0.51100000000E-03 0. -1.
         11   -1    0    0    0    0 -0.00000000000E+00 -0.00000000000E+00 -0.45593999997E+02  0.45594000000E+02  0.51100000000E-03 0.  1.
    9900012    2    1    2    0    0  0.13507643152E+02 -0.14994368266E+00 -0.12969204085E+02  0.72461570515E+02  0.70000000288E+02 0.  0.
         12    1    1    2    0    0 -0.13507643152E+02  0.14994368266E+00  0.12969204085E+02  0.18726429485E+02  0.00000000000E+00 0. -1.
         11    1    3    3    0    0 -0.17986037796E+02  0.20774114212E+02 -0.12782214720E+02  0.30305880457E+02  0.51100000000E-03 0.  1.
        -11    1    3    3    0    0  0.24987127417E+02 -0.19925419292E+02  0.66729755299E+01  0.32648238440E+02  0.51100000000E-03 0. -1.
         12    1    3    3    0    0  0.65065535311E+01 -0.99863860234E+00 -0.68599648953E+01  0.95074516184E+01  0.00000000000E+00 0. -1.
</event>
<event>
 7    1  0.1333056E-013  0.7246141E+02  0.7816164E-02  0.1226708E+00
        -11   -1    0    0    0    0  0.00000000000E+00  0.00000000000E+00  0.45593999997E+02  0.45594000000E+02  0.51100000000E-03 0. -1.
         11   -1    0    0    0    0 -0.00000000000E+00 -0.00000000000E+00 -0.45593999997E+02  0.45594000000E+02  0.51100000000E-03 0.  1.
    9900012    2    1    2    0    0  0.22397770158E+00  0.16687960521E+02 -0.84939374206E+01  0.72461410207E+02  0.69999791456E+02 0.  0.
         12    1    1    2    0    0 -0.22397770158E+00 -0.16687960521E+02  0.84939374206E+01  0.18726589793E+02  0.00000000000E+00 0. -1.
         11    1    3    3    0    0 -0.16325383494E+02  0.37215046077E+02 -0.20640336995E+01  0.40690761066E+02  0.51100000000E-03 0. -1.
        -11    1    3    3    0    0  0.53280132917E+01 -0.71214426881E+01  0.56355078965E+01  0.10529084533E+02  0.51100000000E-03 0.  1.
         12    1    3    3    0    0  0.11221347904E+02 -0.13405642868E+02 -0.12065411618E+02  0.21241564608E+02  0.00000000000E+00 0. -1.
</event>
<event>
 7    1  0.1333056E-013  0.7246157E+02  0.7816164E-02  0.1226708E+00
        -11   -1    0    0    0    0  0.00000000000E+00  0.00000000000E+00  0.45593999997E+02  0.45594000000E+02  0.51100000000E-03 0.  1.
         11   -1    0    0    0    0 -0.00000000000E+00 -0.00000000000E+00 -0.45593999997E+02  0.45594000000E+02  0.51100000000E-03 0. -1.
    9900012    2    1    2    0    0  0.69992204487E+01  0.98830263511E+01  0.14283412165E+02  0.72461570553E+02  0.70000000337E+02 0.  0.
         12    1    1    2    0    0 -0.69992204487E+01 -0.98830263511E+01 -0.14283412165E+02  0.18726429447E+02  0.00000000000E+00 0. -1.
         11    1    3    3    0    0 -0.25770119427E+01 -0.91356470722E+01 -0.10380554739E+02  0.14066163476E+02  0.51100000000E-03 0. -1.
        -11    1    3    3    0    0 -0.68638439744E+01  0.28106991484E+02  0.20621141000E+01  0.29006337914E+02  0.51100000000E-03 0.  1.
        -12    1    3    3    0    0  0.16440076366E+02 -0.90883180602E+01  0.22601852804E+02  0.29389069163E+02  0.00000000000E+00 0.  1.
</event>
<event>
 7    1  0.1333056E-013  0.7246160E+02  0.7816164E-02  0.1226708E+00
        -11   -1    0    0    0    0  0.00000000000E+00  0.00000000000E+00  0.45593999997E+02  0.45594000000E+02  0.51100000000E-03 0. -1.
         11   -1    0    0    0    0 -0.00000000000E+00 -0.00000000000E+00 -0.45593999997E+02  0.45594000000E+02  0.51100000000E-03 0.  1.
    9900012    2    1    2    0    0 -0.15849366804E+02 -0.13807805187E+01  0.98777085918E+01  0.72461598585E+02  0.70000036854E+02 0.  0.
         12    1    1    2    0    0  0.15849366804E+02  0.13807805187E+01 -0.98777085918E+01  0.18726401415E+02  0.00000000000E+00 0. -1.
         11    1    3    3    0    0 -0.27527073206E+01  0.18447877937E+00 -0.24388666382E+02  0.24544214760E+02  0.51100000000E-03 0.  1.
        -11    1    3    3    0    0 -0.22259934121E+02  0.42036275109E+01  0.23810665699E+02  0.32865224061E+02  0.51100000000E-03 0. -1.
         12    1    3    3    0    0  0.91632746381E+01 -0.57688868090E+01  0.10455709276E+02  0.15052159764E+02  0.00000000000E+00 0. -1.
</event>
<event>
 7    1  0.1333056E-013  0.7246152E+02  0.7816164E-02  0.1226708E+00
        -11   -1    0    0    0    0  0.00000000000E+00  0.00000000000E+00  0.45593999997E+02  0.45594000000E+02  0.51100000000E-03 0. -1.
         11   -1    0    0    0    0 -0.00000000000E+00 -0.00000000000E+00 -0.45593999997E+02  0.45594000000E+02  0.51100000000E-03 0.  1.
    9900012    2    1    2    0    0  0.21297896718E+01 -0.18051299372E+02 -0.45050745475E+01  0.72461518490E+02  0.69999932515E+02 0.  0.
         12    1    1    2    0    0 -0.21297896718E+01  0.18051299372E+02  0.45050745475E+01  0.18726481510E+02  0.00000000000E+00 0. -1.
         11    1    3    3    0    0  0.20644225254E+02  0.19792708293E+02  0.10413051646E+01  0.28618519434E+02  0.51100000000E-03 0. -1.
        -11    1    3    3    0    0 -0.89684471563E+01 -0.15965327053E+02  0.28633399111E+01  0.18534385019E+02  0.51100000000E-03 0.  1.
         12    1    3    3    0    0 -0.95459884261E+01 -0.21878680612E+02 -0.84097196231E+01  0.25308614037E+02  0.00000000000E+00 0. -1.
</event>
<event>
 8    1  0.1333056E-013  0.7246158E+02  0.7816164E-02  0.1226708E+00
        -11   -1    0    0    0    0  0.00000000000E+00  0.00000000000E+00  0.45593999997E+02  0.45594000000E+02  0.51100000000E-03 0. -1.
         11   -1    0    0    0    0 -0.00000000000E+00 -0.00000000000E+00 -0.45593999997E+02  0.45594000000E+02  0.51100000000E-03 0.  1.
    9900012    2    1    2    0    0  0.75302048403E+01  0.17048513429E+02  0.18229579097E+01  0.72461575605E+02  0.70000006918E+02 0.  0.
         24    2    3    3    0    0  0.64114636706E+01  0.31084232095E+01 -0.10819028005E+02  0.53609586180E+02  0.52020834309E+02 0.  0.
         12    1    1    2    0    0 -0.75302048403E+01 -0.17048513429E+02 -0.18229579097E+01  0.18726424395E+02  0.00000000000E+00 0. -1.
         11    1    3    3    0    0  0.11187411696E+01  0.13940090220E+02  0.12641985914E+02  0.18851989425E+02  0.51100000000E-03 0. -1.
        -11    1    4    4    0    0 -0.21469946154E+02 -0.14600810271E+01 -0.13217809632E+02  0.25254720671E+02  0.51100000000E-03 0.  1.
         12    1    4    4    0    0  0.27881409824E+02  0.45685042365E+01  0.23987816269E+01  0.28354865509E+02  0.00000000000E+00 0. -1.
</event>
<event>
 7    1  0.1333056E-013  0.7246167E+02  0.7816164E-02  0.1226708E+00
        -11   -1    0    0    0    0  0.00000000000E+00  0.00000000000E+00  0.45593999997E+02  0.45594000000E+02  0.51100000000E-03 0.  1.
         11   -1    0    0    0    0 -0.00000000000E+00 -0.00000000000E+00 -0.45593999997E+02  0.45594000000E+02  0.51100000000E-03 0. -1.
    9900012    2    1    2    0    0  0.36935995168E+01 -0.18331557603E+02 -0.99339109198E+00  0.72461668074E+02  0.70000127376E+02 0.  0.
         12    1    1    2    0    0 -0.36935995168E+01  0.18331557603E+02  0.99339109198E+00  0.18726331926E+02  0.00000000000E+00 0. -1.
         11    1    3    3    0    0  0.32410399889E+02 -0.19033228070E+02 -0.54712994990E+01  0.37982007717E+02  0.51100000000E-03 0. -1.
        -11    1    3    3    0    0 -0.18433858008E+02 -0.78220224051E+01 -0.98573556076E+00  0.20049010709E+02  0.51100000000E-03 0.  1.
        -12    1    3    3    0    0 -0.10282942365E+02  0.85236928728E+01  0.54636439678E+01  0.14430649648E+02  0.00000000000E+00 0.  1.
</event>
<event>
 7    1  0.1333056E-013  0.7246153E+02  0.7816164E-02  0.1226708E+00
        -11   -1    0    0    0    0  0.00000000000E+00  0.00000000000E+00  0.45593999997E+02  0.45594000000E+02  0.51100000000E-03 0. -1.
         11   -1    0    0    0    0 -0.00000000000E+00 -0.00000000000E+00 -0.45593999997E+02  0.45594000000E+02  0.51100000000E-03 0.  1.
    9900012    2    1    2    0    0  0.13820172806E+02 -0.87735706138E+01 -0.90943833606E+01  0.72461534065E+02  0.69999952805E+02 0.  0.
         12    1    1    2    0    0 -0.13820172806E+02  0.87735706138E+01  0.90943833606E+01  0.18726465935E+02  0.00000000000E+00 0. -1.
         11    1    3    3    0    0  0.20298201299E+02 -0.36604791312E+01 -0.11869186209E+02  0.23796925536E+02  0.51100000000E-03 0. -1.
        -11    1    3    3    0    0 -0.17819998945E+02 -0.18980234768E+02  0.11824263607E+02  0.28593965873E+02  0.51100000000E-03 0.  1.
         12    1    3    3    0    0  0.11341970452E+02  0.13867143285E+02 -0.90494607581E+01  0.20070642656E+02  0.00000000000E+00 0. -1.
</event>
<event>
 7    1  0.1333056E-013  0.7246156E+02  0.7816164E-02  0.1226708E+00
        -11   -1    0    0    0    0  0.00000000000E+00  0.00000000000E+00  0.45593999997E+02  0.45594000000E+02  0.51100000000E-03 0.  1.
         11   -1    0    0    0    0 -0.00000000000E+00 -0.00000000000E+00 -0.45593999997E+02  0.45594000000E+02  0.51100000000E-03 0. -1.
    9900012    2    1    2    0    0  0.12129929019E+02  0.56113893225E+01  0.13117043837E+02  0.72461555939E+02  0.69999981300E+02 0.  0.
         12    1    1    2    0    0 -0.12129929019E+02 -0.56113893225E+01 -0.13117043837E+02  0.18726444061E+02  0.00000000000E+00 0. -1.
         11    1    3    3    0    0 -0.20781573452E+02  0.81744200935E+01  0.21851953369E+01  0.22438137577E+02  0.51100000000E-03 0. -1.
        -11    1    3    3    0    0  0.34031069700E+02  0.69899060061E+01  0.16972305395E+02  0.38665639030E+02  0.51100000000E-03 0.  1.
        -12    1    3    3    0    0 -0.11195672295E+01 -0.95529367771E+01 -0.60404568948E+01  0.11357779332E+02  0.00000000000E+00 0.  1.
</event>
<event>
 7    1  0.1333056E-013  0.7246159E+02  0.7816164E-02  0.1226708E+00
        -11   -1    0    0    0    0  0.00000000000E+00  0.00000000000E+00  0.45593999997E+02  0.45594000000E+02  0.51100000000E-03 0.  1.
         11   -1    0    0    0    0 -0.00000000000E+00 -0.00000000000E+00 -0.45593999997E+02  0.45594000000E+02  0.51100000000E-03 0. -1.
    9900012    2    1    2    0    0 -0.11138416525E+02  0.77425894223E+01  0.12909931427E+02  0.72461592360E+02  0.70000028745E+02 0.  0.
         12    1    1    2    0    0  0.11138416525E+02 -0.77425894223E+01 -0.12909931427E+02  0.18726407640E+02  0.00000000000E+00 0. -1.
         11    1    3    3    0    0  0.22494213627E+02 -0.82055520600E+01  0.72290494978E+01  0.25011595076E+02  0.51100000000E-03 0. -1.
        -11    1    3    3    0    0 -0.13978398444E+02  0.91986609177E+01 -0.11650981547E+02  0.20390104389E+02  0.51100000000E-03 0.  1.
         12    1    3    3    0    0 -0.19654231708E+02  0.67494805646E+01  0.17331863476E+02  0.27059892895E+02  0.00000000000E+00 0. -1.
</event>
<event>
 7    1  0.1333056E-013  0.7246151E+02  0.7816164E-02  0.1226708E+00
        -11   -1    0    0    0    0  0.00000000000E+00  0.00000000000E+00  0.45593999997E+02  0.45594000000E+02  0.51100000000E-03 0.  1.
         11   -1    0    0    0    0 -0.00000000000E+00 -0.00000000000E+00 -0.45593999997E+02  0.45594000000E+02  0.51100000000E-03 0. -1.
    9900012    2    1    2    0    0  0.38325063104E+01  0.17437617896E+02  0.56500197238E+01  0.72461512199E+02  0.69999924320E+02 0.  0.
         12    1    1    2    0    0 -0.38325063104E+01 -0.17437617896E+02 -0.56500197238E+01  0.18726487801E+02  0.00000000000E+00 0. -1.
         11    1    3    3    0    0 -0.20171241463E+02  0.33672211693E+02  0.70134209128E+01  0.39873360726E+02  0.51100000000E-03 0. -1.
        -11    1    3    3    0    0  0.85251926582E+01 -0.11035466138E+02 -0.66172841958E+01  0.15435312538E+02  0.51100000000E-03 0.  1.
         12    1    3    3    0    0  0.15478555115E+02 -0.51991276588E+01  0.52538830067E+01  0.17152838935E+02  0.00000000000E+00 0. -1.
</event>
<event>
 7    1  0.1333056E-013  0.7246152E+02  0.7816164E-02  0.1226708E+00
        -11   -1    0    0    0    0  0.00000000000E+00  0.00000000000E+00  0.45593999997E+02  0.45594000000E+02  0.51100000000E-03 0.  1.
         11   -1    0    0    0    0 -0.00000000000E+00 -0.00000000000E+00 -0.45593999997E+02  0.45594000000E+02  0.51100000000E-03 0. -1.
    9900012    2    1    2    0    0 -0.14879442392E+02 -0.21844406896E+01  0.11158467850E+02  0.72461521639E+02  0.69999936618E+02 0.  0.
         12    1    1    2    0    0  0.14879442392E+02  0.21844406896E+01 -0.11158467850E+02  0.18726478361E+02  0.00000000000E+00 0. -1.
         11    1    3    3    0    0  0.13747422277E+02 -0.17708881412E+02 -0.13575362644E+02  0.26208520967E+02  0.51100000000E-03 0. -1.
        -11    1    3    3    0    0  0.10151251436E+01  0.79327547521E+01  0.82772743323E+01  0.11509663229E+02  0.51100000000E-03 0.  1.
         12    1    3    3    0    0 -0.29641989813E+02  0.75916859700E+01  0.16456556162E+02  0.34743337443E+02  0.00000000000E+00 0. -1.
</event>
<event>
 7    1  0.1333056E-013  0.7246158E+02  0.7816164E-02  0.1226708E+00
        -11   -1    0    0    0    0  0.00000000000E+00  0.00000000000E+00  0.45593999997E+02  0.45594000000E+02  0.51100000000E-03 0.  1.
         11   -1    0    0    0    0 -0.00000000000E+00 -0.00000000000E+00 -0.45593999997E+02  0.45594000000E+02  0.51100000000E-03 0. -1.
    9900012    2    1    2    0    0 -0.34928057876E+01  0.88398154996E+01  0.16134954248E+02  0.72461580724E+02  0.70000013586E+02 0.  0.
         12    1    1    2    0    0  0.34928057876E+01 -0.88398154996E+01 -0.16134954248E+02  0.18726419276E+02  0.00000000000E+00 0. -1.
         11    1    3    3    0    0 -0.22358848608E+02 -0.25952000634E+01  0.74536504882E+01  0.23710969620E+02  0.51100000000E-03 0. -1.
        -11    1    3    3    0    0  0.37402341981E+01  0.22037581704E+02 -0.81189780974E+01  0.23781550934E+02  0.51100000000E-03 0.  1.
        -12    1    3    3    0    0  0.15125808623E+02 -0.10602566141E+02  0.16800281857E+02  0.24969060169E+02  0.00000000000E+00 0.  1.
</event>
<event>
 7    1  0.1333056E-013  0.7246155E+02  0.7816164E-02  0.1226708E+00
        -11   -1    0    0    0    0  0.00000000000E+00  0.00000000000E+00  0.45593999997E+02  0.45594000000E+02  0.51100000000E-03 0.  1.
         11   -1    0    0    0    0 -0.00000000000E+00 -0.00000000000E+00 -0.45593999997E+02  0.45594000000E+02  0.51100000000E-03 0. -1.
    9900012    2    1    2    0    0  0.76048440078E+01  0.15523048845E+02  0.72028747486E+01  0.72461545384E+02  0.69999967550E+02 0.  0.
         12    1    1    2    0    0 -0.76048440078E+01 -0.15523048845E+02 -0.72028747486E+01  0.18726454616E+02  0.00000000000E+00 0. -1.
         11    1    3    3    0    0  0.23394239623E+02 -0.13067710226E+02  0.13258245936E+02  0.29897099920E+02  0.51100000000E-03 0. -1.
        -11    1    3    3    0    0 -0.11318822412E+02  0.21668604773E+02  0.84633238221E+01  0.25870292306E+02  0.51100000000E-03 0.  1.
         12    1    3    3    0    0 -0.44705732029E+01  0.69221542987E+01 -0.14518695009E+02  0.16694153158E+02  0.00000000000E+00 0. -1.
</event>
<event>
 7    1  0.1333056E-013  0.7246158E+02  0.7816164E-02  0.1226708E+00
        -11   -1    0    0    0    0  0.00000000000E+00  0.00000000000E+00  0.45593999997E+02  0.45594000000E+02  0.51100000000E-03 0.  1.
         11   -1    0    0    0    0 -0.00000000000E+00 -0.00000000000E+00 -0.45593999997E+02  0.45594000000E+02  0.51100000000E-03 0. -1.
    9900012    2    1    2    0    0  0.12837379104E+02  0.10694364439E+02  0.84564119027E+01  0.72461584559E+02  0.70000018582E+02 0.  0.
         12    1    1    2    0    0 -0.12837379104E+02 -0.10694364439E+02 -0.84564119027E+01  0.18726415441E+02  0.00000000000E+00 0. -1.
         11    1    3    3    0    0  0.27579234396E+01 -0.23237795125E+02  0.59295820480E+01  0.24140447542E+02  0.51100000000E-03 0. -1.
        -11    1    3    3    0    0  0.70212610534E+01  0.19375570006E+02  0.17631896457E+02  0.27121847149E+02  0.51100000000E-03 0.  1.
         12    1    3    3    0    0  0.30581946109E+01  0.14556589559E+02 -0.15105066602E+02  0.21199289868E+02  0.00000000000E+00 0. -1.
</event>
<event>
 7    1  0.1333056E-013  0.7246160E+02  0.7816164E-02  0.1226708E+00
        -11   -1    0    0    0    0  0.00000000000E+00  0.00000000000E+00  0.45593999997E+02  0.45594000000E+02  0.51100000000E-03 0.  1.
         11   -1    0    0    0    0 -0.00000000000E+00 -0.00000000000E+00 -0.45593999997E+02  0.45594000000E+02  0.51100000000E-03 0. -1.
    9900012    2    1    2    0    0 -0.13325210697E+02  0.58602401243E+01  0.11780247594E+02  0.72461604516E+02  0.70000044581E+02 0.  0.
         12    1    1    2    0    0  0.13325210697E+02 -0.58602401243E+01 -0.11780247594E+02  0.18726395484E+02  0.00000000000E+00 0. -1.
         11    1    3    3    0    0 -0.37898064026E+02  0.70090215439E+01  0.25303077094E+01  0.38623724540E+02  0.51100000000E-03 0.  1.
        -11    1    3    3    0    0  0.18227286279E+02 -0.10257187409E+02  0.89040967727E+01  0.22731625508E+02  0.51100000000E-03 0. -1.
         12    1    3    3    0    0  0.63455670509E+01  0.91084059894E+01  0.34584311203E+00  0.11106254469E+02  0.00000000000E+00 0. -1.
</event>
<event>
 7    1  0.1333056E-013  0.7246157E+02  0.7816164E-02  0.1226708E+00
        -11   -1    0    0    0    0  0.00000000000E+00  0.00000000000E+00  0.45593999997E+02  0.45594000000E+02  0.51100000000E-03 0.  1.
         11   -1    0    0    0    0 -0.00000000000E+00 -0.00000000000E+00 -0.45593999997E+02  0.45594000000E+02  0.51100000000E-03 0. -1.
    9900012    2    1    2    0    0  0.53006061828E+01 -0.17692645324E+02 -0.30907919649E+01  0.72461571632E+02  0.70000001742E+02 0.  0.
         12    1    1    2    0    0 -0.53006061828E+01  0.17692645324E+02  0.30907919649E+01  0.18726428368E+02  0.00000000000E+00 0. -1.
         11    1    3    3    0    0 -0.12053428066E+02 -0.98741192551E+01 -0.12336605776E+02  0.19873983031E+02  0.51100000000E-03 0. -1.
        -11    1    3    3    0    0  0.32530182859E+02  0.31976922126E+01  0.30109674741E+01  0.32825355409E+02  0.51100000000E-03 0.  1.
        -12    1    3    3    0    0 -0.15176148610E+02 -0.11016218281E+02  0.62348463367E+01  0.19762233191E+02  0.00000000000E+00 0.  1.
</event>
<event>
 7    1  0.1333056E-013  0.7246186E+02  0.7816164E-02  0.1226707E+00
        -11   -1    0    0    0    0  0.00000000000E+00  0.00000000000E+00  0.45593999997E+02  0.45594000000E+02  0.51100000000E-03 0. -1.
         11   -1    0    0    0    0 -0.00000000000E+00 -0.00000000000E+00 -0.45593999997E+02  0.45594000000E+02  0.51100000000E-03 0.  1.
    9900012    2    1    2    0    0  0.29530383091E+01 -0.14336398428E+02 -0.11679711043E+02  0.72461857706E+02  0.70000374406E+02 0.  0.
         12    1    1    2    0    0 -0.29530383091E+01  0.14336398428E+02  0.11679711043E+02  0.18726142294E+02  0.00000000000E+00 0. -1.
         11    1    3    3    0    0  0.21803418639E+02  0.56172855598E+01 -0.87028994385E+01  0.24138836350E+02  0.51100000000E-03 0. -1.
        -11    1    3    3    0    0 -0.23358094760E+02 -0.95026679043E+00 -0.12592812956E+02  0.26553390295E+02  0.51100000000E-03 0.  1.
         12    1    3    3    0    0  0.45077144298E+01 -0.19003417198E+02  0.96160013509E+01  0.21769631061E+02  0.00000000000E+00 0. -1.
</event>
<event>
 7    1  0.1333056E-013  0.7246161E+02  0.7816164E-02  0.1226708E+00
        -11   -1    0    0    0    0  0.00000000000E+00  0.00000000000E+00  0.45593999997E+02  0.45594000000E+02  0.51100000000E-03 0.  1.
         11   -1    0    0    0    0 -0.00000000000E+00 -0.00000000000E+00 -0.45593999997E+02  0.45594000000E+02  0.51100000000E-03 0. -1.
    9900012    2    1    2    0    0 -0.60699608991E+01 -0.14002410482E+02  0.10851989462E+02  0.72461612204E+02  0.70000054595E+02 0.  0.
         12    1    1    2    0    0  0.60699608991E+01  0.14002410482E+02 -0.10851989462E+02  0.18726387796E+02  0.00000000000E+00 0. -1.
         11    1    3    3    0    0  0.20786827541E+02 -0.24065854492E+02 -0.68029713176E+01  0.32519808896E+02  0.51100000000E-03 0. -1.
        -11    1    3    3    0    0 -0.39404610253E+01  0.66684677666E+01  0.14662806981E+02  0.16582931112E+02  0.51100000000E-03 0.  1.
         12    1    3    3    0    0 -0.22916327415E+02  0.33949762436E+01  0.29921537988E+01  0.23358872195E+02  0.00000000000E+00 0. -1.
</event>
<event>
 7    1  0.1333056E-013  0.7246159E+02  0.7816164E-02  0.1226708E+00
        -11   -1    0    0    0    0  0.00000000000E+00  0.00000000000E+00  0.45593999997E+02  0.45594000000E+02  0.51100000000E-03 0.  1.
         11   -1    0    0    0    0 -0.00000000000E+00 -0.00000000000E+00 -0.45593999997E+02  0.45594000000E+02  0.51100000000E-03 0. -1.
    9900012    2    1    2    0    0  0.92796328641E+01  0.38357797759E+01 -0.15806756805E+02  0.72461592088E+02  0.70000028391E+02 0.  0.
         12    1    1    2    0    0 -0.92796328641E+01 -0.38357797759E+01  0.15806756805E+02  0.18726407912E+02  0.00000000000E+00 0. -1.
         11    1    3    3    0    0  0.63418448101E+01  0.30512308986E+02 -0.20093543764E+02  0.37080594609E+02  0.51100000000E-03 0. -1.
        -11    1    3    3    0    0 -0.74378799855E+01 -0.12097897884E+02  0.90802207784E+01  0.16856203652E+02  0.51100000000E-03 0.  1.
         12    1    3    3    0    0  0.10375668039E+02 -0.14578631326E+02 -0.47934338191E+01  0.18524793828E+02  0.00000000000E+00 0. -1.
</event>
<event>
 7    1  0.1333056E-013  0.7246154E+02  0.7816164E-02  0.1226708E+00
        -11   -1    0    0    0    0  0.00000000000E+00  0.00000000000E+00  0.45593999997E+02  0.45594000000E+02  0.51100000000E-03 0. -1.
         11   -1    0    0    0    0 -0.00000000000E+00 -0.00000000000E+00 -0.45593999997E+02  0.45594000000E+02  0.51100000000E-03 0.  1.
    9900012    2    1    2    0    0  0.11504147473E+02  0.95404481343E+01  0.11283382293E+02  0.72461540760E+02  0.69999961527E+02 0.  0.
         12    1    1    2    0    0 -0.11504147473E+02 -0.95404481343E+01 -0.11283382293E+02  0.18726459240E+02  0.00000000000E+00 0. -1.
         11    1    3    3    0    0 -0.16978401576E+02 -0.89496300220E+01  0.48484562579E+00  0.19198882081E+02  0.51100000000E-03 0. -1.
        -11    1    3    3    0    0  0.25955169149E+02  0.14841432168E+02 -0.10360587371E+02  0.31643019534E+02  0.51100000000E-03 0.  1.
        -12    1    3    3    0    0  0.25273799006E+01  0.36486459883E+01  0.21159124038E+02  0.21619639145E+02  0.00000000000E+00 0.  1.
</event>
<event>
 7    1  0.1333056E-013  0.7246169E+02  0.7816164E-02  0.1226708E+00
        -11   -1    0    0    0    0  0.00000000000E+00  0.00000000000E+00  0.45593999997E+02  0.45594000000E+02  0.51100000000E-03 0.  1.
         11   -1    0    0    0    0 -0.00000000000E+00 -0.00000000000E+00 -0.45593999997E+02  0.45594000000E+02  0.51100000000E-03 0. -1.
    9900012    2    1    2    0    0 -0.13125708630E+02  0.13291247251E+02 -0.13165395047E+01  0.72461688115E+02  0.70000153484E+02 0.  0.
         12    1    1    2    0    0  0.13125708630E+02 -0.13291247251E+02  0.13165395047E+01  0.18726311885E+02  0.00000000000E+00 0. -1.
         11    1    3    3    0    0 -0.55184274680E+01 -0.21562657951E+02  0.11134909101E+02  0.24887496069E+02  0.51100000000E-03 0.  1.
        -11    1    3    3    0    0  0.10709939545E+02  0.17685251873E+02 -0.38123475881E+01  0.21023913367E+02  0.51100000000E-03 0. -1.
         12    1    3    3    0    0 -0.18317220707E+02  0.17168653329E+02 -0.86391010179E+01  0.26550278679E+02  0.00000000000E+00 0. -1.
</event>
<event>
 7    1  0.1333056E-013  0.7246163E+02  0.7816164E-02  0.1226708E+00
        -11   -1    0    0    0    0  0.00000000000E+00  0.00000000000E+00  0.45593999997E+02  0.45594000000E+02  0.51100000000E-03 0.  1.
         11   -1    0    0    0    0 -0.00000000000E+00 -0.00000000000E+00 -0.45593999997E+02  0.45594000000E+02  0.51100000000E-03 0. -1.
    9900012    2    1    2    0    0  0.17781057900E+02 -0.58113865546E+01  0.85942087523E+00  0.72461632547E+02  0.70000081096E+02 0.  0.
         12    1    1    2    0    0 -0.17781057900E+02  0.58113865546E+01 -0.85942087523E+00  0.18726367453E+02  0.00000000000E+00 0. -1.
         11    1    3    3    0    0  0.31422552033E+02 -0.11119875470E+02 -0.21800410414E+02  0.39828209868E+02  0.51100000000E-03 0. -1.
        -11    1    3    3    0    0 -0.18022493570E+01  0.30879612899E+01  0.19974598359E+02  0.20292072036E+02  0.51100000000E-03 0.  1.
         12    1    3    3    0    0 -0.11839244776E+02  0.22205276255E+01  0.26852329306E+01  0.12341350643E+02  0.00000000000E+00 0. -1.
</event>
<event>
 7    1  0.1333056E-013  0.7246181E+02  0.7816164E-02  0.1226707E+00
        -11   -1    0    0    0    0  0.00000000000E+00  0.00000000000E+00  0.45593999997E+02  0.45594000000E+02  0.51100000000E-03 0. -1.
         11   -1    0    0    0    0 -0.00000000000E+00 -0.00000000000E+00 -0.45593999997E+02  0.45594000000E+02  0.51100000000E-03 0.  1.
    9900012    2    1    2    0    0  0.16990763872E+02  0.77931596327E+01 -0.11183937413E+01  0.72461809822E+02  0.70000312029E+02 0.  0.
         12    1    1    2    0    0 -0.16990763872E+02 -0.77931596327E+01  0.11183937413E+01  0.18726190178E+02  0.00000000000E+00 0. -1.
         11    1    3    3    0    0 -0.53200530661E+01 -0.23797370761E+02  0.10075244006E+02  0.26384244575E+02  0.51100000000E-03 0. -1.
        -11    1    3    3    0    0  0.72722636833E+00  0.20162429073E+02 -0.35380915862E+01  0.20483420043E+02  0.51100000000E-03 0.  1.
         12    1    3    3    0    0  0.21583590570E+02  0.11428101320E+02 -0.76555461608E+01  0.25594145204E+02  0.00000000000E+00 0. -1.
</event>
<event>
 7    1  0.1333056E-013  0.7246161E+02  0.7816164E-02  0.1226708E+00
        -11   -1    0    0    0    0  0.00000000000E+00  0.00000000000E+00  0.45593999997E+02  0.45594000000E+02  0.51100000000E-03 0.  1.
         11   -1    0    0    0    0 -0.00000000000E+00 -0.00000000000E+00 -0.45593999997E+02  0.45594000000E+02  0.51100000000E-03 0. -1.
    9900012    2    1    2    0    0  0.34842873100E+01  0.17111209136E+02  0.67634143928E+01  0.72461614593E+02  0.70000057707E+02 0.  0.
         12    1    1    2    0    0 -0.34842873100E+01 -0.17111209136E+02 -0.67634143928E+01  0.18726385407E+02  0.00000000000E+00 0. -1.
         11    1    3    3    0    0 -0.23137216737E+02  0.24857006314E+01 -0.69835861870E+00  0.23280833554E+02  0.51100000000E-03 0. -1.
        -11    1    3    3    0    0  0.25946768543E+02 -0.70148978036E+01  0.55525227557E+01  0.27445839361E+02  0.51100000000E-03 0.  1.
         12    1    3    3    0    0  0.67473550345E+00  0.21640406309E+02  0.19092502558E+01  0.21734941678E+02  0.00000000000E+00 0. -1.
</event>
<event>
 7    1  0.1333056E-013  0.7246147E+02  0.7816164E-02  0.1226708E+00
        -11   -1    0    0    0    0  0.00000000000E+00  0.00000000000E+00  0.45593999997E+02  0.45594000000E+02  0.51100000000E-03 0.  1.
         11   -1    0    0    0    0 -0.00000000000E+00 -0.00000000000E+00 -0.45593999997E+02  0.45594000000E+02  0.51100000000E-03 0. -1.
    9900012    2    1    2    0    0 -0.14242008663E+02 -0.38752572276E+01  0.11525217529E+02  0.72461466193E+02  0.69999864388E+02 0.  0.
         12    1    1    2    0    0  0.14242008663E+02  0.38752572276E+01 -0.11525217529E+02  0.18726533807E+02  0.00000000000E+00 0. -1.
         11    1    3    3    0    0 -0.13513131215E+02  0.13052220852E+02  0.23760888428E+02  0.30291005324E+02  0.51100000000E-03 0. -1.
        -11    1    3    3    0    0  0.17392592547E+02 -0.62357331225E+01 -0.10006343855E+02  0.21012224078E+02  0.51100000000E-03 0.  1.
        -12    1    3    3    0    0 -0.18121469995E+02 -0.10691744957E+02 -0.22293270436E+01  0.21158236791E+02  0.00000000000E+00 0.  1.
</event>
<event>
 7    1  0.1333056E-013  0.7246158E+02  0.7816164E-02  0.1226708E+00
        -11   -1    0    0    0    0  0.00000000000E+00  0.00000000000E+00  0.45593999997E+02  0.45594000000E+02  0.51100000000E-03 0.  1.
         11   -1    0    0    0    0 -0.00000000000E+00 -0.00000000000E+00 -0.45593999997E+02  0.45594000000E+02  0.51100000000E-03 0. -1.
    9900012    2    1    2    0    0  0.15681053519E+01  0.12843126844E+02  0.13537871772E+02  0.72461579262E+02  0.70000011683E+02 0.  0.
         12    1    1    2    0    0 -0.15681053519E+01 -0.12843126844E+02 -0.13537871772E+02  0.18726420738E+02  0.00000000000E+00 0. -1.
         11    1    3    3    0    0 -0.30193762193E+02 -0.23105525300E+01  0.16105873226E+02  0.34298703780E+02  0.51100000000E-03 0. -1.
        -11    1    3    3    0    0  0.17483340892E+02  0.84503373086E+01  0.58539090035E+01  0.20281608917E+02  0.51100000000E-03 0.  1.
         12    1    3    3    0    0  0.14278526653E+02  0.67033420653E+01 -0.84219104578E+01  0.17881266565E+02  0.00000000000E+00 0. -1.
</event>
<event>
 7    1  0.1333056E-013  0.7246154E+02  0.7816164E-02  0.1226708E+00
        -11   -1    0    0    0    0  0.00000000000E+00  0.00000000000E+00  0.45593999997E+02  0.45594000000E+02  0.51100000000E-03 0.  1.
         11   -1    0    0    0    0 -0.00000000000E+00 -0.00000000000E+00 -0.45593999997E+02  0.45594000000E+02  0.51100000000E-03 0. -1.
    9900012    2    1    2    0    0  0.28463760966E+01 -0.17415755049E+02 -0.62665837160E+01  0.72461536045E+02  0.69999955384E+02 0.  0.
         12    1    1    2    0    0 -0.28463760966E+01  0.17415755049E+02  0.62665837160E+01  0.18726463955E+02  0.00000000000E+00 0. -1.
         11    1    3    3    0    0  0.12674248869E+02  0.16723345602E+02  0.78899452933E+01  0.22417807866E+02  0.51100000000E-03 0. -1.
        -11    1    3    3    0    0  0.74259950589E+01 -0.25407329666E+02 -0.15473931762E+02  0.30661382354E+02  0.51100000000E-03 0.  1.
         12    1    3    3    0    0 -0.17253867832E+02 -0.87317709845E+01  0.13174027528E+01  0.19382345825E+02  0.00000000000E+00 0. -1.
</event>
<event>
 7    1  0.1333056E-013  0.7246157E+02  0.7816164E-02  0.1226708E+00
        -11   -1    0    0    0    0  0.00000000000E+00  0.00000000000E+00  0.45593999997E+02  0.45594000000E+02  0.51100000000E-03 0.  1.
         11   -1    0    0    0    0 -0.00000000000E+00 -0.00000000000E+00 -0.45593999997E+02  0.45594000000E+02  0.51100000000E-03 0. -1.
    9900012    2    1    2    0    0  0.17164495565E+02  0.64192872824E+01 -0.38538208450E+01  0.72461572356E+02  0.70000002685E+02 0.  0.
         12    1    1    2    0    0 -0.17164495565E+02 -0.64192872824E+01  0.38538208450E+01  0.18726427644E+02  0.00000000000E+00 0. -1.
         11    1    3    3    0    0  0.12327685486E+02 -0.14914946636E+02 -0.23469856635E+02  0.30418113573E+02  0.51100000000E-03 0. -1.
        -11    1    3    3    0    0 -0.12210621349E+02  0.54343519520E+01  0.10564482701E+02  0.17036424210E+02  0.51100000000E-03 0.  1.
        -12    1    3    3    0    0  0.17047431427E+02  0.15899881966E+02  0.90515530890E+01  0.25007034573E+02  0.00000000000E+00 0.  1.
</event>
<event>
 7    1  0.1333056E-013  0.7246153E+02  0.7816164E-02  0.1226708E+00
        -11   -1    0    0    0    0  0.00000000000E+00  0.00000000000E+00  0.45593999997E+02  0.45594000000E+02  0.51100000000E-03 0.  1.
         11   -1    0    0    0    0 -0.00000000000E+00 -0.00000000000E+00 -0.45593999997E+02  0.45594000000E+02  0.51100000000E-03 0. -1.
    9900012    2    1    2    0    0 -0.65800396281E+01 -0.16471692496E+02  0.60055831284E+01  0.72461531996E+02  0.69999950110E+02 0.  0.
         12    1    1    2    0    0  0.65800396281E+01  0.16471692496E+02 -0.60055831284E+01  0.18726468004E+02  0.00000000000E+00 0. -1.
         11    1    3    3    0    0 -0.20877111937E+02 -0.76484319287E+01 -0.12120367432E+02  0.25323025505E+02  0.51100000000E-03 0. -1.
        -11    1    3    3    0    0  0.27472783252E+02 -0.99401180192E+01  0.74682291595E+01  0.30155168925E+02  0.51100000000E-03 0.  1.
         12    1    3    3    0    0 -0.13175710943E+02  0.11168574523E+01  0.10657721401E+02  0.16983337566E+02  0.00000000000E+00 0. -1.
</event>
<event>
 7    1  0.1333056E-013  0.7246153E+02  0.7816164E-02  0.1226708E+00
        -11   -1    0    0    0    0  0.00000000000E+00  0.00000000000E+00  0.45593999997E+02  0.45594000000E+02  0.51100000000E-03 0.  1.
         11   -1    0    0    0    0 -0.00000000000E+00 -0.00000000000E+00 -0.45593999997E+02  0.45594000000E+02  0.51100000000E-03 0. -1.
    9900012    2    1    2    0    0  0.94210875270E+01  0.10830843253E+02 -0.12025661122E+02  0.72461532603E+02  0.69999950900E+02 0.  0.
         12    1    1    2    0    0 -0.94210875270E+01 -0.10830843253E+02  0.12025661122E+02  0.18726467397E+02  0.00000000000E+00 0. -1.
         11    1    3    3    0    0 -0.31995266095E+01 -0.28164712865E+00 -0.60391523706E+01  0.68401503818E+01  0.51100000000E-03 0. -1.
        -11    1    3    3    0    0  0.35895443202E+02  0.89586905452E+01 -0.15853134200E+02  0.40250004263E+02  0.51100000000E-03 0.  1.
        -12    1    3    3    0    0 -0.23274829065E+02  0.21537998362E+01  0.98666254492E+01  0.25371377958E+02  0.00000000000E+00 0.  1.
</event>
<event>
 7    1  0.1333056E-013  0.7246160E+02  0.7816164E-02  0.1226708E+00
        -11   -1    0    0    0    0  0.00000000000E+00  0.00000000000E+00  0.45593999997E+02  0.45594000000E+02  0.51100000000E-03 0.  1.
         11   -1    0    0    0    0 -0.00000000000E+00 -0.00000000000E+00 -0.45593999997E+02  0.45594000000E+02  0.51100000000E-03 0. -1.
    9900012    2    1    2    0    0  0.25208530240E+01 -0.44137902967E+01  0.18023369966E+02  0.72461598592E+02  0.70000036863E+02 0.  0.
         12    1    1    2    0    0 -0.25208530240E+01  0.44137902967E+01 -0.18023369966E+02  0.18726401408E+02  0.00000000000E+00 0. -1.
         11    1    3    3    0    0 -0.10658690900E+02  0.11071703429E+02 -0.15857023758E+02  0.22082470678E+02  0.51100000000E-03 0. -1.
        -11    1    3    3    0    0 -0.20161655009E+01 -0.48002950174E+01  0.31174966173E+02  0.31606744086E+02  0.51100000000E-03 0.  1.
         12    1    3    3    0    0  0.15195709425E+02 -0.10685198708E+02  0.27054275509E+01  0.18772383828E+02  0.00000000000E+00 0. -1.
</event>
<event>
 7    1  0.1333056E-013  0.7246151E+02  0.7816164E-02  0.1226708E+00
        -11   -1    0    0    0    0  0.00000000000E+00  0.00000000000E+00  0.45593999997E+02  0.45594000000E+02  0.51100000000E-03 0.  1.
         11   -1    0    0    0    0 -0.00000000000E+00 -0.00000000000E+00 -0.45593999997E+02  0.45594000000E+02  0.51100000000E-03 0. -1.
    9900012    2    1    2    0    0  0.16351868280E+02  0.77973463215E+01 -0.47433229600E+01  0.72461512914E+02  0.69999925251E+02 0.  0.
         12    1    1    2    0    0 -0.16351868280E+02 -0.77973463215E+01  0.47433229600E+01  0.18726487086E+02  0.00000000000E+00 0. -1.
         11    1    3    3    0    0 -0.22887881580E+02  0.12873073534E+01 -0.17108352536E+01  0.22987806354E+02  0.51100000000E-03 0. -1.
        -11    1    3    3    0    0  0.41583553577E+02  0.21553352216E+01 -0.80702809653E+01  0.42414229135E+02  0.51100000000E-03 0.  1.
        -12    1    3    3    0    0 -0.23438037171E+01  0.43547037465E+01  0.50377932589E+01  0.70594774243E+01  0.00000000000E+00 0.  1.
</event>
<event>
 7    1  0.1333056E-013  0.7246124E+02  0.7816164E-02  0.1226709E+00
        -11   -1    0    0    0    0  0.00000000000E+00  0.00000000000E+00  0.45593999997E+02  0.45594000000E+02  0.51100000000E-03 0.  1.
         11   -1    0    0    0    0 -0.00000000000E+00 -0.00000000000E+00 -0.45593999997E+02  0.45594000000E+02  0.51100000000E-03 0. -1.
    9900012    2    1    2    0    0  0.54066976447E+01  0.15547947953E+02  0.89286318141E+01  0.72461240242E+02  0.69999570044E+02 0.  0.
         12    1    1    2    0    0 -0.54066976447E+01 -0.15547947953E+02 -0.89286318141E+01  0.18726759758E+02  0.00000000000E+00 0. -1.
         11    1    3    3    0    0 -0.11732149165E+02  0.26894311732E+02  0.10812143280E+02  0.31270589539E+02  0.51100000000E-03 0. -1.
        -11    1    3    3    0    0  0.25379867557E+02 -0.12253364269E+02  0.70000328783E+01  0.29039336660E+02  0.51100000000E-03 0.  1.
         12    1    3    3    0    0 -0.82410207468E+01  0.90700049024E+00 -0.88835443443E+01  0.12151314042E+02  0.00000000000E+00 0. -1.
</event>
<event>
 7    1  0.1333056E-013  0.7246158E+02  0.7816164E-02  0.1226708E+00
        -11   -1    0    0    0    0  0.00000000000E+00  0.00000000000E+00  0.45593999997E+02  0.45594000000E+02  0.51100000000E-03 0. -1.
         11   -1    0    0    0    0 -0.00000000000E+00 -0.00000000000E+00 -0.45593999997E+02  0.45594000000E+02  0.51100000000E-03 0.  1.
    9900012    2    1    2    0    0  0.15202394180E+02 -0.10881177607E+02  0.10797663952E+01  0.72461582554E+02  0.70000015970E+02 0.  0.
         12    1    1    2    0    0 -0.15202394180E+02  0.10881177607E+02 -0.10797663952E+01  0.18726417446E+02  0.00000000000E+00 0. -1.
         11    1    3    3    0    0  0.34130603828E+00  0.19602599803E+02  0.18320880574E+02  0.26833432023E+02  0.51100000000E-03 0. -1.
        -11    1    3    3    0    0 -0.61628524007E-01 -0.20272698954E+02  0.52394530079E+00  0.20279562123E+02  0.51100000000E-03 0.  1.
         12    1    3    3    0    0  0.14922716665E+02 -0.10211078456E+02 -0.17765059480E+02  0.25348588407E+02  0.00000000000E+00 0. -1.
</event>
<event>
 7    1  0.1333056E-013  0.7246158E+02  0.7816164E-02  0.1226708E+00
        -11   -1    0    0    0    0  0.00000000000E+00  0.00000000000E+00  0.45593999997E+02  0.45594000000E+02  0.51100000000E-03 0. -1.
         11   -1    0    0    0    0 -0.00000000000E+00 -0.00000000000E+00 -0.45593999997E+02  0.45594000000E+02  0.51100000000E-03 0.  1.
    9900012    2    1    2    0    0 -0.76042129673E+01 -0.30666664659E+01 -0.16835978478E+02  0.72461583649E+02  0.70000017396E+02 0.  0.
         12    1    1    2    0    0  0.76042129673E+01  0.30666664659E+01  0.16835978478E+02  0.18726416351E+02  0.00000000000E+00 0. -1.
         11    1    3    3    0    0  0.21257346305E+02 -0.15590468023E+01 -0.19644488598E+02  0.28986399076E+02  0.51100000000E-03 0.  1.
        -11    1    3    3    0    0 -0.25864873771E+02 -0.13259856428E+02 -0.43537482363E+01  0.29389974680E+02  0.51100000000E-03 0. -1.
         12    1    3    3    0    0 -0.29966855008E+01  0.11752236765E+02  0.71622583564E+01  0.14085209893E+02  0.00000000000E+00 0. -1.
</event>
<event>
 7    1  0.1333056E-013  0.7246159E+02  0.7816164E-02  0.1226708E+00
        -11   -1    0    0    0    0  0.00000000000E+00  0.00000000000E+00  0.45593999997E+02  0.45594000000E+02  0.51100000000E-03 0.  1.
         11   -1    0    0    0    0 -0.00000000000E+00 -0.00000000000E+00 -0.45593999997E+02  0.45594000000E+02  0.51100000000E-03 0. -1.
    9900012    2    1    2    0    0 -0.18341261520E+02  0.38931896431E+00  0.37583277909E+01  0.72461588940E+02  0.70000024289E+02 0.  0.
         12    1    1    2    0    0  0.18341261520E+02 -0.38931896431E+00 -0.37583277909E+01  0.18726411060E+02  0.00000000000E+00 0. -1.
         11    1    3    3    0    0 -0.82638892764E+01 -0.65691162243E+01 -0.99086626321E+01  0.14478492648E+02  0.51100000000E-03 0. -1.
        -11    1    3    3    0    0  0.12911259836E+02  0.34858543182E+01  0.27747555916E+02  0.30802251061E+02  0.51100000000E-03 0.  1.
        -12    1    3    3    0    0 -0.22988632081E+02  0.34725808705E+01 -0.14080565493E+02  0.27180845230E+02  0.00000000000E+00 0.  1.
</event>
<event>
 7    1  0.1333056E-013  0.7246152E+02  0.7816164E-02  0.1226708E+00
        -11   -1    0    0    0    0  0.00000000000E+00  0.00000000000E+00  0.45593999997E+02  0.45594000000E+02  0.51100000000E-03 0.  1.
         11   -1    0    0    0    0 -0.00000000000E+00 -0.00000000000E+00 -0.45593999997E+02  0.45594000000E+02  0.51100000000E-03 0. -1.
    9900012    2    1    2    0    0  0.18297291488E+01 -0.11707754555E+02  0.14500406210E+02  0.72461515927E+02  0.69999929176E+02 0.  0.
         12    1    1    2    0    0 -0.18297291488E+01  0.11707754555E+02 -0.14500406210E+02  0.18726484073E+02  0.00000000000E+00 0. -1.
         11    1    3    3    0    0 -0.10629789383E+01 -0.21112845378E+02  0.22877169367E+02  0.31148788784E+02  0.51100000000E-03 0. -1.
        -11    1    3    3    0    0 -0.11105715884E+02  0.19789312384E+02 -0.21085237751E+01  0.22790341874E+02  0.51100000000E-03 0.  1.
         12    1    3    3    0    0  0.13998423971E+02 -0.10384221561E+02 -0.62682393820E+01  0.18522385269E+02  0.00000000000E+00 0. -1.
</event>
<event>
 7    1  0.1333056E-013  0.7246160E+02  0.7816164E-02  0.1226708E+00
        -11   -1    0    0    0    0  0.00000000000E+00  0.00000000000E+00  0.45593999997E+02  0.45594000000E+02  0.51100000000E-03 0.  1.
         11   -1    0    0    0    0 -0.00000000000E+00 -0.00000000000E+00 -0.45593999997E+02  0.45594000000E+02  0.51100000000E-03 0. -1.
    9900012    2    1    2    0    0 -0.12434243922E+02 -0.72710185217E+01  0.11966624917E+02  0.72461595001E+02  0.70000032186E+02 0.  0.
         12    1    1    2    0    0  0.12434243922E+02  0.72710185217E+01 -0.11966624917E+02  0.18726404999E+02  0.00000000000E+00 0. -1.
         11    1    3    3    0    0 -0.19311164019E+02 -0.34049804134E+01 -0.10783586473E+02  0.22378576471E+02  0.51100000000E-03 0. -1.
        -11    1    3    3    0    0  0.21560237531E+02 -0.14575565630E+02  0.16727707194E+02  0.30937148286E+02  0.51100000000E-03 0.  1.
        -12    1    3    3    0    0 -0.14683317434E+02  0.10709527522E+02  0.60225041970E+01  0.19145870245E+02  0.00000000000E+00 0.  1.
</event>
<event>
 7    1  0.1808945E-013  0.7246153E+02  0.7816164E-02  0.1226708E+00
        -11   -1    0    0    0    0  0.00000000000E+00  0.00000000000E+00  0.45593999997E+02  0.45594000000E+02  0.51100000000E-03 0. -1.
         11   -1    0    0    0    0 -0.00000000000E+00 -0.00000000000E+00 -0.45593999997E+02  0.45594000000E+02  0.51100000000E-03 0.  1.
    9900012    2    1    2    0    0 -0.51243038044E+01  0.11779698870E+01 -0.17973164623E+02  0.72461528119E+02  0.69999945059E+02 0.  0.
         12    1    1    2    0    0  0.51243038044E+01 -0.11779698870E+01  0.17973164623E+02  0.18726471881E+02  0.00000000000E+00 0. -1.
         11    1    3    3    0    0 -0.10104042903E+00  0.12123595577E+02  0.41374968861E+01  0.12810568279E+02  0.51100000000E-03 0. -1.
        -11    1    3    3    0    0 -0.19214399749E+02 -0.92250973185E+01 -0.34620161290E+02  0.40655272060E+02  0.51100000000E-03 0.  1.
        -12    1    3    3    0    0  0.14191136374E+02 -0.17205283717E+01  0.12509499781E+02  0.18995687780E+02  0.00000000000E+00 0.  1.
</event>
<event>
 7    1  0.1333056E-013  0.7246159E+02  0.7816164E-02  0.1226708E+00
        -11   -1    0    0    0    0  0.00000000000E+00  0.00000000000E+00  0.45593999997E+02  0.45594000000E+02  0.51100000000E-03 0. -1.
         11   -1    0    0    0    0 -0.00000000000E+00 -0.00000000000E+00 -0.45593999997E+02  0.45594000000E+02  0.51100000000E-03 0.  1.
    9900012    2    1    2    0    0  0.13109050314E+02 -0.35921202182E+01 -0.12881294515E+02  0.72461594147E+02  0.70000031072E+02 0.  0.
         12    1    1    2    0    0 -0.13109050314E+02  0.35921202182E+01  0.12881294515E+02  0.18726405853E+02  0.00000000000E+00 0. -1.
         11    1    3    3    0    0  0.41566254108E+00 -0.19378437640E+02 -0.11110702516E+01  0.19414713444E+02  0.51100000000E-03 0.  1.
        -11    1    3    3    0    0  0.27927058433E+02  0.19266999920E+02 -0.14990110454E+02  0.37092334657E+02  0.51100000000E-03 0. -1.
         12    1    3    3    0    0 -0.15233670661E+02 -0.34806824979E+01  0.32198861904E+01  0.15954546046E+02  0.00000000000E+00 0. -1.
</event>
<event>
 7    1  0.1333056E-013  0.7246178E+02  0.7816164E-02  0.1226707E+00
        -11   -1    0    0    0    0  0.00000000000E+00  0.00000000000E+00  0.45593999997E+02  0.45594000000E+02  0.51100000000E-03 0.  1.
         11   -1    0    0    0    0 -0.00000000000E+00 -0.00000000000E+00 -0.45593999997E+02  0.45594000000E+02  0.51100000000E-03 0. -1.
    9900012    2    1    2    0    0  0.14086445369E+02  0.35341574143E+00 -0.12333639155E+02  0.72461775056E+02  0.70000266740E+02 0.  0.
         12    1    1    2    0    0 -0.14086445369E+02 -0.35341574143E+00  0.12333639155E+02  0.18726224944E+02  0.00000000000E+00 0. -1.
         11    1    3    3    0    0  0.17618313542E+01 -0.10490438257E+02 -0.10357177168E+02  0.14846698747E+02  0.51100000000E-03 0. -1.
        -11    1    3    3    0    0  0.17416501844E+01 -0.87599312215E+01  0.22685741907E+02  0.24380578880E+02  0.51100000000E-03 0.  1.
        -12    1    3    3    0    0  0.10582963831E+02  0.19603785220E+02 -0.24662203895E+02  0.33234497429E+02  0.00000000000E+00 0.  1.
</event>
<event>
 7    1  0.1333056E-013  0.7246172E+02  0.7816164E-02  0.1226708E+00
        -11   -1    0    0    0    0  0.00000000000E+00  0.00000000000E+00  0.45593999997E+02  0.45594000000E+02  0.51100000000E-03 0. -1.
         11   -1    0    0    0    0 -0.00000000000E+00 -0.00000000000E+00 -0.45593999997E+02  0.45594000000E+02  0.51100000000E-03 0.  1.
    9900012    2    1    2    0    0 -0.22204671397E+01  0.45545551053E+01 -0.18027734904E+02  0.72461717073E+02  0.70000191206E+02 0.  0.
         12    1    1    2    0    0  0.22204671397E+01 -0.45545551053E+01  0.18027734904E+02  0.18726282927E+02  0.00000000000E+00 0. -1.
         11    1    3    3    0    0 -0.95405407725E+01  0.11699531848E+02  0.11041394173E+02  0.18703297817E+02  0.51100000000E-03 0. -1.
        -11    1    3    3    0    0  0.24800955055E+02 -0.57702403597E+01 -0.25152452598E+02  0.35791464309E+02  0.51100000000E-03 0.  1.
         12    1    3    3    0    0 -0.17480881422E+02 -0.13747363827E+01 -0.39166764784E+01  0.17966954947E+02  0.00000000000E+00 0. -1.
</event>
<event>
 7    1  0.1333056E-013  0.7246160E+02  0.7816164E-02  0.1226708E+00
        -11   -1    0    0    0    0  0.00000000000E+00  0.00000000000E+00  0.45593999997E+02  0.45594000000E+02  0.51100000000E-03 0. -1.
         11   -1    0    0    0    0 -0.00000000000E+00 -0.00000000000E+00 -0.45593999997E+02  0.45594000000E+02  0.51100000000E-03 0.  1.
    9900012    2    1    2    0    0 -0.23666070280E+01  0.22945782474E+01 -0.18433992874E+02  0.72461601215E+02  0.70000040280E+02 0.  0.
         12    1    1    2    0    0  0.23666070280E+01 -0.22945782474E+01  0.18433992874E+02  0.18726398785E+02  0.00000000000E+00 0. -1.
         11    1    3    3    0    0 -0.58290408578E+01  0.35487061728E+01  0.10076646076E+01  0.68982911685E+01  0.51100000000E-03 0. -1.
        -11    1    3    3    0    0  0.24381304121E+02  0.10688974952E+02 -0.29253631677E+02  0.39553471943E+02  0.51100000000E-03 0.  1.
        -12    1    3    3    0    0 -0.20918870291E+02 -0.11943102877E+02  0.98119741953E+01  0.26009838104E+02  0.00000000000E+00 0.  1.
</event>
<event>
 7    1  0.1333056E-013  0.7246111E+02  0.7816164E-02  0.1226709E+00
        -11   -1    0    0    0    0  0.00000000000E+00  0.00000000000E+00  0.45593999997E+02  0.45594000000E+02  0.51100000000E-03 0. -1.
         11   -1    0    0    0    0 -0.00000000000E+00 -0.00000000000E+00 -0.45593999997E+02  0.45594000000E+02  0.51100000000E-03 0.  1.
    9900012    2    1    2    0    0  0.61255686893E+00  0.99418851276E+01 -0.15858123801E+02  0.72461110341E+02  0.69999400823E+02 0.  0.
         12    1    1    2    0    0 -0.61255686893E+00 -0.99418851276E+01  0.15858123801E+02  0.18726889659E+02  0.00000000000E+00 0. -1.
         11    1    3    3    0    0  0.53301284286E+01  0.47948838859E+00  0.57104601624E+01  0.78262081309E+01  0.51100000000E-03 0. -1.
        -11    1    3    3    0    0 -0.32144569566E+02  0.87509778425E+01 -0.14287801094E+02  0.36249058279E+02  0.51100000000E-03 0.  1.
        -12    1    3    3    0    0  0.27426998006E+02  0.71141889650E+00 -0.72807828693E+01  0.28385843931E+02  0.00000000000E+00 0.  1.
</event>
<event>
 7    1  0.1333056E-013  0.7246129E+02  0.7816164E-02  0.1226709E+00
        -11   -1    0    0    0    0  0.00000000000E+00  0.00000000000E+00  0.45593999997E+02  0.45594000000E+02  0.51100000000E-03 0.  1.
         11   -1    0    0    0    0 -0.00000000000E+00 -0.00000000000E+00 -0.45593999997E+02  0.45594000000E+02  0.51100000000E-03 0. -1.
    9900012    2    1    2    0    0 -0.15452594349E+02 -0.66801983767E+01 -0.82025531397E+01  0.72461291788E+02  0.69999637192E+02 0.  0.
         12    1    1    2    0    0  0.15452594349E+02  0.66801983767E+01  0.82025531397E+01  0.18726708212E+02  0.00000000000E+00 0. -1.
         11    1    3    3    0    0  0.13657717293E+02 -0.20878048276E+02  0.83689917028E+01  0.26314751830E+02  0.51100000000E-03 0. -1.
        -11    1    3    3    0    0 -0.12630540255E+02  0.15100617355E+02  0.36736158873E+01  0.20026348783E+02  0.51100000000E-03 0.  1.
         12    1    3    3    0    0 -0.16479771387E+02 -0.90276745569E+00 -0.20245160730E+02  0.26120191175E+02  0.00000000000E+00 0. -1.
</event>
<event>
 7    1  0.1333056E-013  0.7246158E+02  0.7816164E-02  0.1226708E+00
        -11   -1    0    0    0    0  0.00000000000E+00  0.00000000000E+00  0.45593999997E+02  0.45594000000E+02  0.51100000000E-03 0. -1.
         11   -1    0    0    0    0 -0.00000000000E+00 -0.00000000000E+00 -0.45593999997E+02  0.45594000000E+02  0.51100000000E-03 0.  1.
    9900012    2    1    2    0    0 -0.10928114169E+02 -0.89721669018E+01 -0.12278253388E+02  0.72461575769E+02  0.70000007132E+02 0.  0.
         12    1    1    2    0    0  0.10928114169E+02  0.89721669018E+01  0.12278253388E+02  0.18726424231E+02  0.00000000000E+00 0. -1.
         11    1    3    3    0    0 -0.12235660563E+02 -0.38258379786E+01 -0.81301737126E+01  0.15180518782E+02  0.51100000000E-03 0. -1.
        -11    1    3    3    0    0  0.74433233792E+01 -0.24151024745E+02  0.15186879122E+02  0.29484171294E+02  0.51100000000E-03 0.  1.
        -12    1    3    3    0    0 -0.61357769853E+01  0.19004695822E+02 -0.19334958798E+02  0.27796885693E+02  0.00000000000E+00 0.  1.
</event>
<event>
 7    1  0.1333056E-013  0.7246155E+02  0.7816164E-02  0.1226708E+00
        -11   -1    0    0    0    0  0.00000000000E+00  0.00000000000E+00  0.45593999997E+02  0.45594000000E+02  0.51100000000E-03 0. -1.
         11   -1    0    0    0    0 -0.00000000000E+00 -0.00000000000E+00 -0.45593999997E+02  0.45594000000E+02  0.51100000000E-03 0.  1.
    9900012    2    1    2    0    0 -0.26564521103E+01 -0.13024229977E+02 -0.13190620621E+02  0.72461554084E+02  0.69999978882E+02 0.  0.
         12    1    1    2    0    0  0.26564521103E+01  0.13024229977E+02  0.13190620621E+02  0.18726445916E+02  0.00000000000E+00 0. -1.
         11    1    3    3    0    0  0.86561753715E+01  0.81678452116E+01 -0.11684874179E+02  0.16678709551E+02  0.51100000000E-03 0. -1.
        -11    1    3    3    0    0 -0.20460729729E+02 -0.34170398439E+02  0.55024679425E-01  0.39827887447E+02  0.51100000000E-03 0.  1.
        -12    1    3    3    0    0  0.91481022472E+01  0.12978323250E+02 -0.15607711216E+01  0.15954957086E+02  0.00000000000E+00 0.  1.
</event>
<event>
 7    1  0.1333056E-013  0.7246155E+02  0.7816164E-02  0.1226708E+00
        -11   -1    0    0    0    0  0.00000000000E+00  0.00000000000E+00  0.45593999997E+02  0.45594000000E+02  0.51100000000E-03 0.  1.
         11   -1    0    0    0    0 -0.00000000000E+00 -0.00000000000E+00 -0.45593999997E+02  0.45594000000E+02  0.51100000000E-03 0. -1.
    9900012    2    1    2    0    0  0.13909348453E+02 -0.12433759956E+02 -0.16160829670E+01  0.72461545846E+02  0.69999968151E+02 0.  0.
         12    1    1    2    0    0 -0.13909348453E+02  0.12433759956E+02  0.16160829670E+01  0.18726454154E+02  0.00000000000E+00 0. -1.
         11    1    3    3    0    0 -0.20997629739E+02 -0.14432808251E+02 -0.16104731283E+02  0.30142474660E+02  0.51100000000E-03 0. -1.
        -11    1    3    3    0    0  0.20321332637E+02  0.18047440432E+01  0.18120566943E+02  0.27286784490E+02  0.51100000000E-03 0.  1.
        -12    1    3    3    0    0  0.14585645555E+02  0.19430425191E+00 -0.36319186261E+01  0.15032286696E+02  0.00000000000E+00 0.  1.
</event>
<event>
 7    1  0.1333056E-013  0.7246172E+02  0.7816164E-02  0.1226708E+00
        -11   -1    0    0    0    0  0.00000000000E+00  0.00000000000E+00  0.45593999997E+02  0.45594000000E+02  0.51100000000E-03 0.  1.
         11   -1    0    0    0    0 -0.00000000000E+00 -0.00000000000E+00 -0.45593999997E+02  0.45594000000E+02  0.51100000000E-03 0. -1.
    9900012    2    1    2    0    0 -0.69215157321E+01  0.80146977982E+01  0.15444443071E+02  0.72461719467E+02  0.70000194324E+02 0.  0.
         12    1    1    2    0    0  0.69215157321E+01 -0.80146977982E+01 -0.15444443071E+02  0.18726280533E+02  0.00000000000E+00 0. -1.
         11    1    3    3    0    0  0.18202974604E+02  0.14490458515E+02 -0.18193389831E+01  0.23337344900E+02  0.51100000000E-03 0. -1.
        -11    1    3    3    0    0 -0.26940907984E+02  0.83545682358E+01  0.19108572117E+02  0.34069764631E+02  0.51100000000E-03 0.  1.
         12    1    3    3    0    0  0.18164176479E+01 -0.14830328953E+02 -0.18447900629E+01  0.15054609935E+02  0.00000000000E+00 0. -1.
</event>
<event>
 7    1  0.1333056E-013  0.7246154E+02  0.7816164E-02  0.1226708E+00
        -11   -1    0    0    0    0  0.00000000000E+00  0.00000000000E+00  0.45593999997E+02  0.45594000000E+02  0.51100000000E-03 0.  1.
         11   -1    0    0    0    0 -0.00000000000E+00 -0.00000000000E+00 -0.45593999997E+02  0.45594000000E+02  0.51100000000E-03 0. -1.
    9900012    2    1    2    0    0  0.64445201147E+01  0.64300270265E+01  0.16364694929E+02  0.72461539384E+02  0.69999959734E+02 0.  0.
         12    1    1    2    0    0 -0.64445201147E+01 -0.64300270265E+01 -0.16364694929E+02  0.18726460616E+02  0.00000000000E+00 0. -1.
         11    1    3    3    0    0  0.14976681173E+02 -0.67890079731E+01 -0.17009194832E+02  0.23658070870E+02  0.51100000000E-03 0. -1.
        -11    1    3    3    0    0  0.29483927758E+01 -0.85007411253E+01  0.17136950202E+02  0.19355378636E+02  0.51100000000E-03 0.  1.
         12    1    3    3    0    0 -0.11480553835E+02  0.21719776125E+02  0.16236939559E+02  0.29448089878E+02  0.00000000000E+00 0. -1.
</event>
<event>
 7    1  0.1333056E-013  0.7246161E+02  0.7816164E-02  0.1226708E+00
        -11   -1    0    0    0    0  0.00000000000E+00  0.00000000000E+00  0.45593999997E+02  0.45594000000E+02  0.51100000000E-03 0. -1.
         11   -1    0    0    0    0 -0.00000000000E+00 -0.00000000000E+00 -0.45593999997E+02  0.45594000000E+02  0.51100000000E-03 0.  1.
    9900012    2    1    2    0    0 -0.11663564021E+02 -0.10192478159E+02 -0.10523902045E+02  0.72461605501E+02  0.70000045863E+02 0.  0.
         12    1    1    2    0    0  0.11663564021E+02  0.10192478159E+02  0.10523902045E+02  0.18726394499E+02  0.00000000000E+00 0. -1.
         11    1    3    3    0    0  0.78228062304E+01 -0.70187903963E+01 -0.12796095217E+01  0.10587592584E+02  0.51100000000E-03 0. -1.
        -11    1    3    3    0    0 -0.25749504045E+02  0.22512702384E+02 -0.92620370174E+01  0.35435068184E+02  0.51100000000E-03 0.  1.
        -12    1    3    3    0    0  0.62631337944E+01 -0.25686390147E+02  0.17744493941E-01  0.26438944733E+02  0.00000000000E+00 0.  1.
</event>
<event>
 7    1  0.1333056E-013  0.7246158E+02  0.7816164E-02  0.1226708E+00
        -11   -1    0    0    0    0  0.00000000000E+00  0.00000000000E+00  0.45593999997E+02  0.45594000000E+02  0.51100000000E-03 0.  1.
         11   -1    0    0    0    0 -0.00000000000E+00 -0.00000000000E+00 -0.45593999997E+02  0.45594000000E+02  0.51100000000E-03 0. -1.
    9900012    2    1    2    0    0 -0.11966133813E+02  0.12069085822E+02  0.78630582437E+01  0.72461578133E+02  0.70000010211E+02 0.  0.
         12    1    1    2    0    0  0.11966133813E+02 -0.12069085822E+02 -0.78630582437E+01  0.18726421867E+02  0.00000000000E+00 0. -1.
         11    1    3    3    0    0  0.19279279502E+02  0.21995656369E+02  0.60419098994E+01  0.29866439237E+02  0.51100000000E-03 0. -1.
        -11    1    3    3    0    0 -0.12204670126E+02 -0.14870410872E+02  0.95273554898E+01  0.21467500909E+02  0.51100000000E-03 0.  1.
         12    1    3    3    0    0 -0.19040743189E+02  0.49438403244E+01 -0.77062071455E+01  0.21127637987E+02  0.00000000000E+00 0. -1.
</event>
<event>
 7    1  0.1405025E-013  0.7246161E+02  0.7816164E-02  0.1226708E+00
        -11   -1    0    0    0    0  0.00000000000E+00  0.00000000000E+00  0.45593999997E+02  0.45594000000E+02  0.51100000000E-03 0.  1.
         11   -1    0    0    0    0 -0.00000000000E+00 -0.00000000000E+00 -0.45593999997E+02  0.45594000000E+02  0.51100000000E-03 0. -1.
    9900012    2    1    2    0    0 -0.18444524100E+02  0.22362095571E+01  0.23401697740E+01  0.72461614950E+02  0.70000058172E+02 0.  0.
         12    1    1    2    0    0  0.18444524100E+02 -0.22362095571E+01 -0.23401697740E+01  0.18726385050E+02  0.00000000000E+00 0. -1.
         11    1    3    3    0    0 -0.60406524744E+01 -0.27508283468E+01 -0.18778407386E+02  0.19916955669E+02  0.51100000000E-03 0. -1.
        -11    1    3    3    0    0 -0.22018338221E+02  0.19853904725E+02  0.17648478454E+02  0.34502949771E+02  0.51100000000E-03 0.  1.
        -12    1    3    3    0    0  0.96144665957E+01 -0.14866866821E+02  0.34700987058E+01  0.18041709510E+02  0.00000000000E+00 0.  1.
</event>
<event>
 7    1  0.1333056E-013  0.7246152E+02  0.7816164E-02  0.1226708E+00
        -11   -1    0    0    0    0  0.00000000000E+00  0.00000000000E+00  0.45593999997E+02  0.45594000000E+02  0.51100000000E-03 0. -1.
         11   -1    0    0    0    0 -0.00000000000E+00 -0.00000000000E+00 -0.45593999997E+02  0.45594000000E+02  0.51100000000E-03 0.  1.
    9900012    2    1    2    0    0  0.29984744163E+01 -0.16309032958E+02 -0.87008925439E+01  0.72461523131E+02  0.69999938561E+02 0.  0.
         12    1    1    2    0    0 -0.29984744163E+01  0.16309032958E+02  0.87008925439E+01  0.18726476869E+02  0.00000000000E+00 0. -1.
         11    1    3    3    0    0  0.77748817117E+01  0.16608884926E+02  0.82433237804E+01  0.20106124224E+02  0.51100000000E-03 0.  1.
        -11    1    3    3    0    0 -0.10201791155E+01 -0.38567484207E+02 -0.53886522399E+01  0.38955476852E+02  0.51100000000E-03 0. -1.
        -12    1    3    3    0    0 -0.37562281799E+01  0.56495663230E+01 -0.11555564084E+02  0.13399922055E+02  0.00000000000E+00 0.  1.
</event>
<event>
 7    1  0.1333056E-013  0.7246162E+02  0.7816164E-02  0.1226708E+00
        -11   -1    0    0    0    0  0.00000000000E+00  0.00000000000E+00  0.45593999997E+02  0.45594000000E+02  0.51100000000E-03 0. -1.
         11   -1    0    0    0    0 -0.00000000000E+00 -0.00000000000E+00 -0.45593999997E+02  0.45594000000E+02  0.51100000000E-03 0.  1.
    9900012    2    1    2    0    0  0.74915815348E+01 -0.86801831872E+01 -0.14805669714E+02  0.72461622087E+02  0.70000067470E+02 0.  0.
         12    1    1    2    0    0 -0.74915815348E+01  0.86801831872E+01  0.14805669714E+02  0.18726377913E+02  0.00000000000E+00 0. -1.
         11    1    3    3    0    0 -0.67004376510E+01  0.95456972424E+01  0.19102474917E+02  0.22381258874E+02  0.51100000000E-03 0. -1.
        -11    1    3    3    0    0 -0.50011912490E+01 -0.15233365009E+02 -0.22251437867E+02  0.27426151951E+02  0.51100000000E-03 0.  1.
         12    1    3    3    0    0  0.19193210435E+02 -0.29925154205E+01 -0.11656706764E+02  0.22654211262E+02  0.00000000000E+00 0. -1.
</event>
<event>
 7    1  0.1333056E-013  0.7246158E+02  0.7816164E-02  0.1226708E+00
        -11   -1    0    0    0    0  0.00000000000E+00  0.00000000000E+00  0.45593999997E+02  0.45594000000E+02  0.51100000000E-03 0. -1.
         11   -1    0    0    0    0 -0.00000000000E+00 -0.00000000000E+00 -0.45593999997E+02  0.45594000000E+02  0.51100000000E-03 0.  1.
    9900012    2    1    2    0    0 -0.48315111103E+01  0.29933281664E+01 -0.17843073135E+02  0.72461580908E+02  0.70000013826E+02 0.  0.
         12    1    1    2    0    0  0.48315111103E+01 -0.29933281664E+01  0.17843073135E+02  0.18726419092E+02  0.00000000000E+00 0. -1.
         11    1    3    3    0    0 -0.24685930830E+02  0.14576057772E+02  0.83269511305E+01  0.29852885230E+02  0.51100000000E-03 0. -1.
        -11    1    3    3    0    0  0.13917643490E+02  0.15774977812E+01 -0.15825497867E+01  0.14095877541E+02  0.51100000000E-03 0.  1.
         12    1    3    3    0    0  0.59367762299E+01 -0.13160227387E+02 -0.24587474479E+02  0.28512818137E+02  0.00000000000E+00 0. -1.
</event>
<event>
 7    1  0.1333056E-013  0.7246151E+02  0.7816164E-02  0.1226708E+00
        -11   -1    0    0    0    0  0.00000000000E+00  0.00000000000E+00  0.45593999997E+02  0.45594000000E+02  0.51100000000E-03 0.  1.
         11   -1    0    0    0    0 -0.00000000000E+00 -0.00000000000E+00 -0.45593999997E+02  0.45594000000E+02  0.51100000000E-03 0. -1.
    9900012    2    1    2    0    0  0.14552113928E+02 -0.10456880640E+02  0.54379279334E+01  0.72461509867E+02  0.69999921282E+02 0.  0.
         12    1    1    2    0    0 -0.14552113928E+02  0.10456880640E+02 -0.54379279334E+01  0.18726490133E+02  0.00000000000E+00 0. -1.
         11    1    3    3    0    0  0.51607470199E+01 -0.14484095557E+02 -0.10678862811E+02  0.18720588803E+02  0.51100000000E-03 0. -1.
        -11    1    3    3    0    0 -0.12025120535E+01  0.26327079302E+02  0.10829307602E+02  0.28492719127E+02  0.51100000000E-03 0.  1.
        -12    1    3    3    0    0  0.10593878962E+02 -0.22299864386E+02  0.52874831429E+01  0.25248201937E+02  0.00000000000E+00 0.  1.
</event>
<event>
 8    1  0.1333056E-013  0.7246155E+02  0.7816164E-02  0.1226708E+00
        -11   -1    0    0    0    0  0.00000000000E+00  0.00000000000E+00  0.45593999997E+02  0.45594000000E+02  0.51100000000E-03 0.  1.
         11   -1    0    0    0    0 -0.00000000000E+00 -0.00000000000E+00 -0.45593999997E+02  0.45594000000E+02  0.51100000000E-03 0. -1.
    9900012    2    1    2    0    0 -0.20142081907E+01 -0.50011545933E+01  0.17933523669E+02  0.72461552043E+02  0.69999976224E+02 0.  0.
        -24    2    3    3    0    0  0.66134331434E+01  0.10397302773E+02  0.10553995676E+02  0.53330265680E+02  0.50802450826E+02 0.  0.
         12    1    1    2    0    0  0.20142081907E+01  0.50011545933E+01 -0.17933523669E+02  0.18726447957E+02  0.00000000000E+00 0. -1.
         11    1    4    4    0    0  0.26405156388E+01  0.18054891057E+02 -0.16704957969E+02  0.24738775939E+02  0.51100000000E-03 0. -1.
        -11    1    3    3    0    0 -0.86276413340E+01 -0.15398457366E+02  0.73795279934E+01  0.19131286363E+02  0.51100000000E-03 0.  1.
        -12    1    4    4    0    0  0.39729175046E+01 -0.76575882850E+01  0.27258953645E+02  0.28591489741E+02  0.00000000000E+00 0.  1.
</event>
<event>
 7    1  0.1333056E-013  0.7246158E+02  0.7816164E-02  0.1226708E+00
        -11   -1    0    0    0    0  0.00000000000E+00  0.00000000000E+00  0.45593999997E+02  0.45594000000E+02  0.51100000000E-03 0. -1.
         11   -1    0    0    0    0 -0.00000000000E+00 -0.00000000000E+00 -0.45593999997E+02  0.45594000000E+02  0.51100000000E-03 0.  1.
    9900012    2    1    2    0    0  0.21226561484E+01  0.15862295567E+02 -0.97242333842E+01  0.72461580035E+02  0.70000012689E+02 0.  0.
         12    1    1    2    0    0 -0.21226561484E+01 -0.15862295567E+02  0.97242333842E+01  0.18726419965E+02  0.00000000000E+00 0. -1.
         11    1    3    3    0    0 -0.18136903567E+02 -0.13354763427E+02 -0.19345625777E+02  0.29690911306E+02  0.51100000000E-03 0.  1.
        -11    1    3    3    0    0  0.24821870816E+02  0.25998320459E+02  0.95285679487E+01  0.37186443026E+02  0.51100000000E-03 0. -1.
         12    1    3    3    0    0 -0.45623111002E+01  0.32187385349E+01  0.92824444570E-01  0.55842257036E+01  0.00000000000E+00 0. -1.
</event>
<event>
 7    1  0.1333056E-013  0.7246168E+02  0.7816164E-02  0.1226708E+00
        -11   -1    0    0    0    0  0.00000000000E+00  0.00000000000E+00  0.45593999997E+02  0.45594000000E+02  0.51100000000E-03 0.  1.
         11   -1    0    0    0    0 -0.00000000000E+00 -0.00000000000E+00 -0.45593999997E+02  0.45594000000E+02  0.51100000000E-03 0. -1.
    9900012    2    1    2    0    0 -0.15042876980E+02 -0.71368982908E+01  0.85704011936E+01  0.72461675169E+02  0.70000136619E+02 0.  0.
         12    1    1    2    0    0  0.15042876980E+02  0.71368982908E+01 -0.85704011936E+01  0.18726324831E+02  0.00000000000E+00 0. -1.
         11    1    3    3    0    0 -0.91130621911E+01  0.22644381369E+02 -0.84595293835E+01  0.25833690169E+02  0.51100000000E-03 0. -1.
        -11    1    3    3    0    0 -0.93551464830E+01 -0.11264401244E+02  0.22654726340E+02  0.26974842482E+02  0.51100000000E-03 0.  1.
        -12    1    3    3    0    0  0.34253316939E+01 -0.18516878416E+02 -0.56247957628E+01  0.19653142519E+02  0.00000000000E+00 0.  1.
</event>
<event>
 7    1  0.1333056E-013  0.7246143E+02  0.7816164E-02  0.1226708E+00
        -11   -1    0    0    0    0  0.00000000000E+00  0.00000000000E+00  0.45593999997E+02  0.45594000000E+02  0.51100000000E-03 0. -1.
         11   -1    0    0    0    0 -0.00000000000E+00 -0.00000000000E+00 -0.45593999997E+02  0.45594000000E+02  0.51100000000E-03 0.  1.
    9900012    2    1    2    0    0 -0.13101416295E+02 -0.10799023589E+02  0.79005410714E+01  0.72461426137E+02  0.69999812209E+02 0.  0.
         12    1    1    2    0    0  0.13101416295E+02  0.10799023589E+02 -0.79005410714E+01  0.18726573863E+02  0.00000000000E+00 0. -1.
         11    1    3    3    0    0 -0.17112573247E+02  0.11744210018E+01  0.54216195120E+01  0.17989257523E+02  0.51100000000E-03 0. -1.
        -11    1    3    3    0    0  0.23898399725E+02 -0.11877852368E+02  0.15346170130E+02  0.30785090940E+02  0.51100000000E-03 0.  1.
        -12    1    3    3    0    0 -0.19887242773E+02 -0.95592222964E-01 -0.12867248570E+02  0.23687077675E+02  0.00000000000E+00 0.  1.
</event>
<event>
 7    1  0.1333056E-013  0.7246155E+02  0.7816164E-02  0.1226708E+00
        -11   -1    0    0    0    0  0.00000000000E+00  0.00000000000E+00  0.45593999997E+02  0.45594000000E+02  0.51100000000E-03 0. -1.
         11   -1    0    0    0    0 -0.00000000000E+00 -0.00000000000E+00 -0.45593999997E+02  0.45594000000E+02  0.51100000000E-03 0.  1.
    9900012    2    1    2    0    0  0.10216685023E+01  0.65132183893E+01 -0.17527528206E+02  0.72461546376E+02  0.69999968842E+02 0.  0.
         12    1    1    2    0    0 -0.10216685023E+01 -0.65132183893E+01  0.17527528206E+02  0.18726453624E+02  0.00000000000E+00 0. -1.
         11    1    3    3    0    0 -0.29862202907E+01  0.47278508112E+01  0.77908776995E+01  0.95899875134E+01  0.51100000000E-03 0. -1.
        -11    1    3    3    0    0  0.27458679472E+02 -0.79955388279E+01 -0.24785235962E+01  0.28706285009E+02  0.51100000000E-03 0.  1.
        -12    1    3    3    0    0 -0.23450790679E+02  0.97809064060E+01 -0.22839882309E+02  0.34165273854E+02  0.00000000000E+00 0.  1.
</event>
<event>
 7    1  0.1333056E-013  0.7246137E+02  0.7816164E-02  0.1226709E+00
        -11   -1    0    0    0    0  0.00000000000E+00  0.00000000000E+00  0.45593999997E+02  0.45594000000E+02  0.51100000000E-03 0. -1.
         11   -1    0    0    0    0 -0.00000000000E+00 -0.00000000000E+00 -0.45593999997E+02  0.45594000000E+02  0.51100000000E-03 0.  1.
    9900012    2    1    2    0    0  0.18204130489E+02  0.43071463526E+01 -0.86309171840E+00  0.72461366457E+02  0.69999734463E+02 0.  0.
         12    1    1    2    0    0 -0.18204130489E+02 -0.43071463526E+01  0.86309171840E+00  0.18726633543E+02  0.00000000000E+00 0. -1.
         11    1    3    3    0    0 -0.98921484087E+01 -0.94075117671E+01  0.17966740728E+02  0.22564566259E+02  0.51100000000E-03 0. -1.
        -11    1    3    3    0    0 -0.45214660709E+01  0.77290872618E+01 -0.13660747687E+02  0.16333966847E+02  0.51100000000E-03 0.  1.
         12    1    3    3    0    0  0.32617744968E+02  0.59855708579E+01 -0.51690847597E+01  0.33562833351E+02  0.00000000000E+00 0. -1.
</event>
<event>
 7    1  0.1333056E-013  0.7246158E+02  0.7816164E-02  0.1226708E+00
        -11   -1    0    0    0    0  0.00000000000E+00  0.00000000000E+00  0.45593999997E+02  0.45594000000E+02  0.51100000000E-03 0.  1.
         11   -1    0    0    0    0 -0.00000000000E+00 -0.00000000000E+00 -0.45593999997E+02  0.45594000000E+02  0.51100000000E-03 0. -1.
    9900012    2    1    2    0    0 -0.12171947686E+02 -0.14093181322E+02 -0.19760158658E+01  0.72461582592E+02  0.70000016019E+02 0.  0.
         12    1    1    2    0    0  0.12171947686E+02  0.14093181322E+02  0.19760158658E+01  0.18726417408E+02  0.00000000000E+00 0. -1.
         11    1    3    3    0    0 -0.31615573006E+02  0.23626917207E+01 -0.35442493798E+01  0.31901229954E+02  0.51100000000E-03 0.  1.
        -11    1    3    3    0    0  0.21172590760E+02  0.10760926429E+01  0.66614481767E+01  0.22221869115E+02  0.51100000000E-03 0. -1.
         12    1    3    3    0    0 -0.17289654400E+01 -0.17531965686E+02 -0.50932146627E+01  0.18338483523E+02  0.00000000000E+00 0. -1.
</event>
<event>
 7    1  0.1333056E-013  0.7246156E+02  0.7816164E-02  0.1226708E+00
        -11   -1    0    0    0    0  0.00000000000E+00  0.00000000000E+00  0.45593999997E+02  0.45594000000E+02  0.51100000000E-03 0. -1.
         11   -1    0    0    0    0 -0.00000000000E+00 -0.00000000000E+00 -0.45593999997E+02  0.45594000000E+02  0.51100000000E-03 0.  1.
    9900012    2    1    2    0    0 -0.69574489108E+01  0.14056172555E+02  0.10232171392E+02  0.72461563776E+02  0.69999991509E+02 0.  0.
         12    1    1    2    0    0  0.69574489108E+01 -0.14056172555E+02 -0.10232171392E+02  0.18726436224E+02  0.00000000000E+00 0. -1.
         11    1    3    3    0    0 -0.20499301150E+02 -0.14720330431E+02  0.67909313971E+01  0.26134770424E+02  0.51100000000E-03 0. -1.
        -11    1    3    3    0    0 -0.72493744867E+00  0.30265401337E+02  0.79320679956E+01  0.31295970273E+02  0.51100000000E-03 0.  1.
         12    1    3    3    0    0  0.14266789688E+02 -0.14888983505E+01 -0.44908280011E+01  0.15030823079E+02  0.00000000000E+00 0. -1.
</event>
<event>
 7    1  0.1340450E-013  0.7246153E+02  0.7816164E-02  0.1226708E+00
        -11   -1    0    0    0    0  0.00000000000E+00  0.00000000000E+00  0.45593999997E+02  0.45594000000E+02  0.51100000000E-03 0.  1.
         11   -1    0    0    0    0 -0.00000000000E+00 -0.00000000000E+00 -0.45593999997E+02  0.45594000000E+02  0.51100000000E-03 0. -1.
    9900012    2    1    2    0    0 -0.11438061390E+02 -0.36341687713E+01 -0.14375132350E+02  0.72461525129E+02  0.69999941164E+02 0.  0.
         12    1    1    2    0    0  0.11438061390E+02  0.36341687713E+01  0.14375132350E+02  0.18726474871E+02  0.00000000000E+00 0. -1.
         11    1    3    3    0    0 -0.26397142591E+02  0.45971112012E+01 -0.31733199406E+01  0.26981707286E+02  0.51100000000E-03 0. -1.
        -11    1    3    3    0    0  0.11837860429E+02 -0.23914866975E+02 -0.12438348822E+02  0.29440929395E+02  0.51100000000E-03 0.  1.
        -12    1    3    3    0    0  0.31212207717E+01  0.15683587002E+02  0.12365364123E+01  0.16038888448E+02  0.00000000000E+00 0.  1.
</event>
<event>
 7    1  0.1333056E-013  0.7246152E+02  0.7816164E-02  0.1226708E+00
        -11   -1    0    0    0    0  0.00000000000E+00  0.00000000000E+00  0.45593999997E+02  0.45594000000E+02  0.51100000000E-03 0.  1.
         11   -1    0    0    0    0 -0.00000000000E+00 -0.00000000000E+00 -0.45593999997E+02  0.45594000000E+02  0.51100000000E-03 0. -1.
    9900012    2    1    2    0    0 -0.17064502593E+02  0.76842139615E+01 -0.66078755518E+00  0.72461520535E+02  0.69999935180E+02 0.  0.
         12    1    1    2    0    0  0.17064502593E+02 -0.76842139615E+01  0.66078755518E+00  0.18726479465E+02  0.00000000000E+00 0. -1.
         11    1    3    3    0    0  0.19143783510E+01 -0.11775371665E+02  0.17246087308E+02  0.20970258702E+02  0.51100000000E-03 0. -1.
        -11    1    3    3    0    0 -0.30774622515E+02  0.81171420559E+01 -0.10362314655E+02  0.33471524485E+02  0.51100000000E-03 0.  1.
         12    1    3    3    0    0  0.11795741571E+02  0.11342443571E+02 -0.75445602085E+01  0.18019737349E+02  0.00000000000E+00 0. -1.
</event>
<event>
 7    1  0.1333056E-013  0.7246161E+02  0.7816164E-02  0.1226708E+00
        -11   -1    0    0    0    0  0.00000000000E+00  0.00000000000E+00  0.45593999997E+02  0.45594000000E+02  0.51100000000E-03 0.  1.
         11   -1    0    0    0    0 -0.00000000000E+00 -0.00000000000E+00 -0.45593999997E+02  0.45594000000E+02  0.51100000000E-03 0. -1.
    9900012    2    1    2    0    0 -0.51398486779E+01 -0.40029208466E+01  0.17556656298E+02  0.72461612198E+02  0.70000054588E+02 0.  0.
         12    1    1    2    0    0  0.51398486779E+01  0.40029208466E+01 -0.17556656298E+02  0.18726387802E+02  0.00000000000E+00 0. -1.
         11    1    3    3    0    0  0.17531006645E+02  0.74656575699E+01  0.32586920275E+02  0.37748902105E+02  0.51100000000E-03 0.  1.
        -11    1    3    3    0    0 -0.10868218788E+02 -0.11198031929E+02 -0.16623065918E+02  0.22800009199E+02  0.51100000000E-03 0. -1.
        -12    1    3    3    0    0 -0.11802636534E+02 -0.27054648728E+00  0.15928019410E+01  0.11912700894E+02  0.00000000000E+00 0.  1.
</event>
<event>
 7    1  0.1333056E-013  0.7246156E+02  0.7816164E-02  0.1226708E+00
        -11   -1    0    0    0    0  0.00000000000E+00  0.00000000000E+00  0.45593999997E+02  0.45594000000E+02  0.51100000000E-03 0.  1.
         11   -1    0    0    0    0 -0.00000000000E+00 -0.00000000000E+00 -0.45593999997E+02  0.45594000000E+02  0.51100000000E-03 0. -1.
    9900012    2    1    2    0    0 -0.60496257024E+01  0.94739866972E+01  0.14977482753E+02  0.72461564549E+02  0.69999992516E+02 0.  0.
         12    1    1    2    0    0  0.60496257024E+01 -0.94739866972E+01 -0.14977482753E+02  0.18726435451E+02  0.00000000000E+00 0. -1.
         11    1    3    3    0    0 -0.73352402764E+01 -0.13944034861E+02  0.83815666152E+01  0.17846358656E+02  0.51100000000E-03 0. -1.
        -11    1    3    3    0    0  0.20589778321E+02  0.49882351362E+01 -0.97467810923E+01  0.23319974335E+02  0.51100000000E-03 0.  1.
        -12    1    3    3    0    0 -0.19304163747E+02  0.18429786421E+02  0.16342697230E+02  0.31295231558E+02  0.00000000000E+00 0.  1.
</event>
<event>
 7    1  0.1333056E-013  0.7246152E+02  0.7816164E-02  0.1226708E+00
        -11   -1    0    0    0    0  0.00000000000E+00  0.00000000000E+00  0.45593999997E+02  0.45594000000E+02  0.51100000000E-03 0. -1.
         11   -1    0    0    0    0 -0.00000000000E+00 -0.00000000000E+00 -0.45593999997E+02  0.45594000000E+02  0.51100000000E-03 0.  1.
    9900012    2    1    2    0    0  0.60225327260E+01  0.17353792032E+02 -0.36408819713E+01  0.72461520890E+02  0.69999935642E+02 0.  0.
         12    1    1    2    0    0 -0.60225327260E+01 -0.17353792032E+02  0.36408819713E+01  0.18726479110E+02  0.00000000000E+00 0. -1.
         11    1    3    3    0    0  0.26324295874E+01  0.22191975998E+02  0.12722711216E+02  0.25715381879E+02  0.51100000000E-03 0. -1.
        -11    1    3    3    0    0  0.87282966464E+01  0.16225519937E+01 -0.29698092484E+02  0.30996653606E+02  0.51100000000E-03 0.  1.
         12    1    3    3    0    0 -0.53381935079E+01 -0.64607359598E+01  0.13334499296E+02  0.15749485406E+02  0.00000000000E+00 0. -1.
</event>
<event>
 7    1  0.1333056E-013  0.7246158E+02  0.7816164E-02  0.1226708E+00
        -11   -1    0    0    0    0  0.00000000000E+00  0.00000000000E+00  0.45593999997E+02  0.45594000000E+02  0.51100000000E-03 0. -1.
         11   -1    0    0    0    0 -0.00000000000E+00 -0.00000000000E+00 -0.45593999997E+02  0.45594000000E+02  0.51100000000E-03 0.  1.
    9900012    2    1    2    0    0  0.53515205024E+01 -0.16533115477E+02 -0.69782525115E+01  0.72461583173E+02  0.70000016776E+02 0.  0.
         12    1    1    2    0    0 -0.53515205024E+01  0.16533115477E+02  0.69782525115E+01  0.18726416827E+02  0.00000000000E+00 0. -1.
         11    1    3    3    0    0 -0.13983167249E+02 -0.10404625343E+02 -0.20143624526E+01  0.17545451011E+02  0.51100000000E-03 0.  1.
        -11    1    3    3    0    0  0.25318097179E+02  0.96155520567E+01 -0.18924820281E+02  0.33039577918E+02  0.51100000000E-03 0. -1.
        -12    1    3    3    0    0 -0.59834094281E+01 -0.15744042191E+02  0.13960930222E+02  0.21876554243E+02  0.00000000000E+00 0.  1.
</event>
<event>
 7    1  0.1333056E-013  0.7246157E+02  0.7816164E-02  0.1226708E+00
        -11   -1    0    0    0    0  0.00000000000E+00  0.00000000000E+00  0.45593999997E+02  0.45594000000E+02  0.51100000000E-03 0.  1.
         11   -1    0    0    0    0 -0.00000000000E+00 -0.00000000000E+00 -0.45593999997E+02  0.45594000000E+02  0.51100000000E-03 0. -1.
    9900012    2    1    2    0    0  0.70984362402E+00 -0.18059797660E+02 -0.49009101208E+01  0.72461572431E+02  0.70000002783E+02 0.  0.
         12    1    1    2    0    0 -0.70984362402E+00  0.18059797660E+02  0.49009101208E+01  0.18726427569E+02  0.00000000000E+00 0. -1.
         11    1    3    3    0    0  0.33762963997E+01 -0.14380749491E+02 -0.20142544308E+02  0.24978539284E+02  0.51100000000E-03 0. -1.
        -11    1    3    3    0    0 -0.68566728441E+01  0.78578565435E+01  0.27939569381E+02  0.29822464844E+02  0.51100000000E-03 0.  1.
        -12    1    3    3    0    0  0.41902200684E+01 -0.11536904713E+02 -0.12697935194E+02  0.17660568303E+02  0.00000000000E+00 0.  1.
</event>
<event>
 7    1  0.1333056E-013  0.7246161E+02  0.7816164E-02  0.1226708E+00
        -11   -1    0    0    0    0  0.00000000000E+00  0.00000000000E+00  0.45593999997E+02  0.45594000000E+02  0.51100000000E-03 0. -1.
         11   -1    0    0    0    0 -0.00000000000E+00 -0.00000000000E+00 -0.45593999997E+02  0.45594000000E+02  0.51100000000E-03 0.  1.
    9900012    2    1    2    0    0 -0.28857216751E+00  0.18611841240E+02 -0.20479131500E+01  0.72461605352E+02  0.70000045670E+02 0.  0.
         12    1    1    2    0    0  0.28857216751E+00 -0.18611841240E+02  0.20479131500E+01  0.18726394648E+02  0.00000000000E+00 0. -1.
         11    1    3    3    0    0  0.33501995727E+01 -0.23035601137E+01 -0.12525842925E+02  0.13169167309E+02  0.51100000000E-03 0. -1.
        -11    1    3    3    0    0 -0.11938148762E+02 -0.12748842945E+02  0.16586092924E+02  0.24086321243E+02  0.51100000000E-03 0.  1.
        -12    1    3    3    0    0  0.82993770216E+01  0.33664244298E+02 -0.61081631487E+01  0.35206116800E+02  0.00000000000E+00 0.  1.
</event>
<event>
 7    1  0.1333056E-013  0.7246148E+02  0.7816164E-02  0.1226708E+00
        -11   -1    0    0    0    0  0.00000000000E+00  0.00000000000E+00  0.45593999997E+02  0.45594000000E+02  0.51100000000E-03 0. -1.
         11   -1    0    0    0    0 -0.00000000000E+00 -0.00000000000E+00 -0.45593999997E+02  0.45594000000E+02  0.51100000000E-03 0.  1.
    9900012    2    1    2    0    0 -0.48003511561E+01  0.15980305668E+02 -0.85011229899E+01  0.72461477831E+02  0.69999879549E+02 0.  0.
         12    1    1    2    0    0  0.48003511561E+01 -0.15980305668E+02  0.85011229899E+01  0.18726522169E+02  0.00000000000E+00 0. -1.
         11    1    3    3    0    0 -0.19643546390E+02  0.83304467442E+01  0.15805591682E+02  0.26553379943E+02  0.51100000000E-03 0. -1.
        -11    1    3    3    0    0  0.22720363711E+02  0.15656533930E+02 -0.18883297790E+02  0.33435324397E+02  0.51100000000E-03 0.  1.
        -12    1    3    3    0    0 -0.78771684773E+01 -0.80066750063E+01 -0.54234168822E+01  0.12472773491E+02  0.00000000000E+00 0.  1.
</event>
<event>
 7    1  0.1333056E-013  0.7246156E+02  0.7816164E-02  0.1226708E+00
        -11   -1    0    0    0    0  0.00000000000E+00  0.00000000000E+00  0.45593999997E+02  0.45594000000E+02  0.51100000000E-03 0. -1.
         11   -1    0    0    0    0 -0.00000000000E+00 -0.00000000000E+00 -0.45593999997E+02  0.45594000000E+02  0.51100000000E-03 0.  1.
    9900012    2    1    2    0    0 -0.63831685087E+01 -0.14560035907E+02 -0.98964612455E+01  0.72461563313E+02  0.69999990905E+02 0.  0.
         12    1    1    2    0    0  0.63831685087E+01  0.14560035907E+02  0.98964612455E+01  0.18726436687E+02  0.00000000000E+00 0. -1.
         11    1    3    3    0    0 -0.31798256237E+02 -0.37663076063E+01 -0.91002879214E+01  0.33288577819E+02  0.51100000000E-03 0. -1.
        -11    1    3    3    0    0  0.26530017958E+02  0.16725637076E+01 -0.16028412120E+01  0.26630967358E+02  0.51100000000E-03 0.  1.
        -12    1    3    3    0    0 -0.11149302296E+01 -0.12466292008E+02  0.80666788790E+00  0.12542018136E+02  0.00000000000E+00 0.  1.
</event>
<event>
 7    1  0.1333056E-013  0.7246146E+02  0.7816164E-02  0.1226708E+00
        -11   -1    0    0    0    0  0.00000000000E+00  0.00000000000E+00  0.45593999997E+02  0.45594000000E+02  0.51100000000E-03 0.  1.
         11   -1    0    0    0    0 -0.00000000000E+00 -0.00000000000E+00 -0.45593999997E+02  0.45594000000E+02  0.51100000000E-03 0. -1.
    9900012    2    1    2    0    0 -0.44800436669E+01 -0.46728379518E+01  0.17572052152E+02  0.72461462077E+02  0.69999859026E+02 0.  0.
         12    1    1    2    0    0  0.44800436669E+01  0.46728379518E+01 -0.17572052152E+02  0.18726537923E+02  0.00000000000E+00 0. -1.
         11    1    3    3    0    0  0.14772913821E+02 -0.12004146507E+02  0.17648610061E+02  0.25957888078E+02  0.51100000000E-03 0. -1.
        -11    1    3    3    0    0 -0.27513275942E+02  0.18062302343E+02  0.91638705188E+00  0.32925170987E+02  0.51100000000E-03 0.  1.
        -12    1    3    3    0    0  0.82603184547E+01 -0.10730993789E+02 -0.99294496135E+00  0.13578403012E+02  0.00000000000E+00 0.  1.
</event>
<event>
 7    1  0.1333056E-013  0.7246156E+02  0.7816164E-02  0.1226708E+00
        -11   -1    0    0    0    0  0.00000000000E+00  0.00000000000E+00  0.45593999997E+02  0.45594000000E+02  0.51100000000E-03 0.  1.
         11   -1    0    0    0    0 -0.00000000000E+00 -0.00000000000E+00 -0.45593999997E+02  0.45594000000E+02  0.51100000000E-03 0. -1.
    9900012    2    1    2    0    0  0.18329016503E+02  0.38176563017E+01 -0.38991532259E+00  0.72461564686E+02  0.69999992695E+02 0.  0.
         12    1    1    2    0    0 -0.18329016503E+02 -0.38176563017E+01  0.38991532259E+00  0.18726435314E+02  0.00000000000E+00 0. -1.
         11    1    3    3    0    0 -0.12351184341E+02 -0.50562959367E+01  0.15912283785E+02  0.20768212699E+02  0.51100000000E-03 0. -1.
        -11    1    3    3    0    0  0.10628369156E+02  0.78381784213E+00 -0.25922279825E+02  0.28027507790E+02  0.51100000000E-03 0.  1.
        -12    1    3    3    0    0  0.20051831687E+02  0.80901343962E+01  0.96200807174E+01  0.23665844197E+02  0.00000000000E+00 0.  1.
</event>
<event>
 7    1  0.1333056E-013  0.7246164E+02  0.7816164E-02  0.1226708E+00
        -11   -1    0    0    0    0  0.00000000000E+00  0.00000000000E+00  0.45593999997E+02  0.45594000000E+02  0.51100000000E-03 0.  1.
         11   -1    0    0    0    0 -0.00000000000E+00 -0.00000000000E+00 -0.45593999997E+02  0.45594000000E+02  0.51100000000E-03 0. -1.
    9900012    2    1    2    0    0  0.31577472442E+01  0.16934830419E+02  0.73427884902E+01  0.72461644460E+02  0.70000096615E+02 0.  0.
         12    1    1    2    0    0 -0.31577472442E+01 -0.16934830419E+02 -0.73427884902E+01  0.18726355540E+02  0.00000000000E+00 0. -1.
         11    1    3    3    0    0  0.71185108315E+00  0.66128899960E+01 -0.92278668405E+01  0.11374997703E+02  0.51100000000E-03 0. -1.
        -11    1    3    3    0    0  0.14191414624E+02  0.20696120384E+02  0.30931521132E+02  0.39830699815E+02  0.51100000000E-03 0.  1.
        -12    1    3    3    0    0 -0.11745518463E+02 -0.10374179960E+02 -0.14360865801E+02  0.21255946942E+02  0.00000000000E+00 0.  1.
</event>
<event>
 7    1  0.1333056E-013  0.7246166E+02  0.7816164E-02  0.1226708E+00
        -11   -1    0    0    0    0  0.00000000000E+00  0.00000000000E+00  0.45593999997E+02  0.45594000000E+02  0.51100000000E-03 0.  1.
         11   -1    0    0    0    0 -0.00000000000E+00 -0.00000000000E+00 -0.45593999997E+02  0.45594000000E+02  0.51100000000E-03 0. -1.
    9900012    2    1    2    0    0  0.67279273140E+01  0.93265371039E+01  0.14779261631E+02  0.72461658268E+02  0.70000114602E+02 0.  0.
         12    1    1    2    0    0 -0.67279273140E+01 -0.93265371039E+01 -0.14779261631E+02  0.18726341732E+02  0.00000000000E+00 0. -1.
         11    1    3    3    0    0  0.25786750653E+02  0.17179846443E+02 -0.78000173032E+01  0.31952212807E+02  0.51100000000E-03 0. -1.
        -11    1    3    3    0    0  0.45797618899E+01 -0.24432348825E+01  0.13758713257E+02  0.14705298582E+02  0.51100000000E-03 0.  1.
         12    1    3    3    0    0 -0.23638585229E+02 -0.54100744564E+01  0.88205656781E+01  0.25804146879E+02  0.00000000000E+00 0. -1.
</event>
<event>
 7    1  0.1333056E-013  0.7246160E+02  0.7816164E-02  0.1226708E+00
        -11   -1    0    0    0    0  0.00000000000E+00  0.00000000000E+00  0.45593999997E+02  0.45594000000E+02  0.51100000000E-03 0. -1.
         11   -1    0    0    0    0 -0.00000000000E+00 -0.00000000000E+00 -0.45593999997E+02  0.45594000000E+02  0.51100000000E-03 0.  1.
    9900012    2    1    2    0    0 -0.15450664463E+02  0.81033368506E+01 -0.68037454619E+01  0.72461600112E+02  0.70000038843E+02 0.  0.
         12    1    1    2    0    0  0.15450664463E+02 -0.81033368506E+01  0.68037454619E+01  0.18726399888E+02  0.00000000000E+00 0. -1.
         11    1    3    3    0    0 -0.27359199583E+02 -0.57929657340E+01  0.22240781279E+01  0.28054068824E+02  0.51100000000E-03 0. -1.
        -11    1    3    3    0    0  0.16605181808E+02 -0.84767441913E+01 -0.10682055629E+02  0.21487055817E+02  0.51100000000E-03 0.  1.
         12    1    3    3    0    0 -0.46966466884E+01  0.22373046776E+02  0.16542320389E+01  0.22920475470E+02  0.00000000000E+00 0. -1.
</event>
<event>
 7    1  0.1333056E-013  0.7246154E+02  0.7816164E-02  0.1226708E+00
        -11   -1    0    0    0    0  0.00000000000E+00  0.00000000000E+00  0.45593999997E+02  0.45594000000E+02  0.51100000000E-03 0. -1.
         11   -1    0    0    0    0 -0.00000000000E+00 -0.00000000000E+00 -0.45593999997E+02  0.45594000000E+02  0.51100000000E-03 0.  1.
    9900012    2    1    2    0    0 -0.13283500007E+01  0.17165077841E+02 -0.73672206839E+01  0.72461538732E+02  0.69999958884E+02 0.  0.
         12    1    1    2    0    0  0.13283500007E+01 -0.17165077841E+02  0.73672206839E+01  0.18726461268E+02  0.00000000000E+00 0. -1.
         11    1    3    3    0    0  0.25074143176E+02  0.39410343810E+01 -0.20112595966E+02  0.32384578502E+02  0.51100000000E-03 0.  1.
        -11    1    3    3    0    0 -0.66580346153E+01  0.11833040650E+02 -0.39955760741E+01  0.14153264796E+02  0.51100000000E-03 0. -1.
         12    1    3    3    0    0 -0.19744458561E+02  0.13910028104E+01  0.16740951356E+02  0.25923695435E+02  0.00000000000E+00 0. -1.
</event>
<event>
 7    1  0.1333056E-013  0.7246158E+02  0.7816164E-02  0.1226708E+00
        -11   -1    0    0    0    0  0.00000000000E+00  0.00000000000E+00  0.45593999997E+02  0.45594000000E+02  0.51100000000E-03 0. -1.
         11   -1    0    0    0    0 -0.00000000000E+00 -0.00000000000E+00 -0.45593999997E+02  0.45594000000E+02  0.51100000000E-03 0.  1.
    9900012    2    1    2    0    0  0.17355967178E+02 -0.44899165077E+01 -0.54120223057E+01  0.72461576627E+02  0.70000008249E+02 0.  0.
         12    1    1    2    0    0 -0.17355967178E+02  0.44899165077E+01  0.54120223057E+01  0.18726423373E+02  0.00000000000E+00 0. -1.
         11    1    3    3    0    0  0.33689840341E+02  0.10712051134E+02 -0.45129591128E+01  0.35638745515E+02  0.51100000000E-03 0. -1.
        -11    1    3    3    0    0 -0.64001029996E+01 -0.15084217840E+02 -0.13178617423E+02  0.21027860179E+02  0.51100000000E-03 0.  1.
         12    1    3    3    0    0 -0.99337701636E+01 -0.11774980183E+00  0.12279554230E+02  0.15794970933E+02  0.00000000000E+00 0. -1.
</event>
<event>
 8    1  0.1333056E-013  0.7246159E+02  0.7816164E-02  0.1226708E+00
        -11   -1    0    0    0    0  0.00000000000E+00  0.00000000000E+00  0.45593999997E+02  0.45594000000E+02  0.51100000000E-03 0. -1.
         11   -1    0    0    0    0 -0.00000000000E+00 -0.00000000000E+00 -0.45593999997E+02  0.45594000000E+02  0.51100000000E-03 0.  1.
    9900012    2    1    2    0    0 -0.16039341147E+01  0.10138295181E+02 -0.15662723475E+02  0.72461587090E+02  0.70000021879E+02 0.  0.
        -24    2    3    3    0    0 -0.16011989094E+01  0.24239920274E+02 -0.85962336964E+01  0.56688473390E+02  0.50493070898E+02 0.  0.
         12    1    1    2    0    0  0.16039341147E+01 -0.10138295181E+02  0.15662723475E+02  0.18726412910E+02  0.00000000000E+00 0. -1.
         11    1    4    4    0    0  0.18144260904E+02  0.29376825288E+02 -0.10772883384E+02  0.36169974902E+02  0.51100000000E-03 0. -1.
        -11    1    3    3    0    0 -0.27352053092E-02 -0.14101625092E+02 -0.70664897787E+01  0.15773113700E+02  0.51100000000E-03 0.  1.
        -12    1    4    4    0    0 -0.19745459813E+02 -0.51369050142E+01  0.21766496879E+01  0.20518498488E+02  0.00000000000E+00 0.  1.
</event>
<event>
 7    1  0.1333056E-013  0.7246157E+02  0.7816164E-02  0.1226708E+00
        -11   -1    0    0    0    0  0.00000000000E+00  0.00000000000E+00  0.45593999997E+02  0.45594000000E+02  0.51100000000E-03 0.  1.
         11   -1    0    0    0    0 -0.00000000000E+00 -0.00000000000E+00 -0.45593999997E+02  0.45594000000E+02  0.51100000000E-03 0. -1.
    9900012    2    1    2    0    0 -0.41779049700E+00  0.24974606505E+01  0.18554443750E+02  0.72461568373E+02  0.69999997497E+02 0.  0.
         12    1    1    2    0    0  0.41779049700E+00 -0.24974606505E+01 -0.18554443750E+02  0.18726431627E+02  0.00000000000E+00 0. -1.
         11    1    3    3    0    0 -0.28661557459E+02  0.10909959474E+02  0.90115783361E+01  0.31964365097E+02  0.51100000000E-03 0. -1.
        -11    1    3    3    0    0  0.11778247666E+02 -0.16202034000E+02  0.97571785957E+01  0.22280833877E+02  0.51100000000E-03 0.  1.
         12    1    3    3    0    0  0.16465519296E+02  0.77895351764E+01 -0.21431318147E+00  0.18216369399E+02  0.00000000000E+00 0. -1.
</event>
<event>
 7    1  0.1333056E-013  0.7246158E+02  0.7816164E-02  0.1226708E+00
        -11   -1    0    0    0    0  0.00000000000E+00  0.00000000000E+00  0.45593999997E+02  0.45594000000E+02  0.51100000000E-03 0.  1.
         11   -1    0    0    0    0 -0.00000000000E+00 -0.00000000000E+00 -0.45593999997E+02  0.45594000000E+02  0.51100000000E-03 0. -1.
    9900012    2    1    2    0    0  0.10504542682E+02  0.23819838861E+01  0.15318601716E+02  0.72461579554E+02  0.70000012062E+02 0.  0.
         12    1    1    2    0    0 -0.10504542682E+02 -0.23819838861E+01 -0.15318601716E+02  0.18726420446E+02  0.00000000000E+00 0. -1.
         11    1    3    3    0    0  0.69281208394E+01  0.14945070530E+01 -0.59490833984E+01  0.92533239022E+01  0.51100000000E-03 0. -1.
        -11    1    3    3    0    0  0.64309694257E+01 -0.27520193370E+02  0.20012898646E+02  0.34629965686E+02  0.51100000000E-03 0.  1.
        -12    1    3    3    0    0 -0.28545475826E+01  0.28407670203E+02  0.12547864683E+01  0.28578289966E+02  0.00000000000E+00 0.  1.
</event>
<event>
 7    1  0.1333056E-013  0.7246157E+02  0.7816164E-02  0.1226708E+00
        -11   -1    0    0    0    0  0.00000000000E+00  0.00000000000E+00  0.45593999997E+02  0.45594000000E+02  0.51100000000E-03 0.  1.
         11   -1    0    0    0    0 -0.00000000000E+00 -0.00000000000E+00 -0.45593999997E+02  0.45594000000E+02  0.51100000000E-03 0. -1.
    9900012    2    1    2    0    0  0.43591830344E+01 -0.11551622295E+02  0.14079657578E+02  0.72461569164E+02  0.69999998527E+02 0.  0.
         12    1    1    2    0    0 -0.43591830344E+01  0.11551622295E+02 -0.14079657578E+02  0.18726430836E+02  0.00000000000E+00 0. -1.
         11    1    3    3    0    0  0.11281969202E+02  0.22331604295E+02  0.44288548032E-01  0.25019699063E+02  0.51100000000E-03 0. -1.
        -11    1    3    3    0    0 -0.55471109453E+01 -0.24901238926E+02  0.23238313573E+02  0.34508859121E+02  0.51100000000E-03 0.  1.
        -12    1    3    3    0    0 -0.13756752219E+01 -0.89819876643E+01 -0.92029445434E+01  0.12933010979E+02  0.00000000000E+00 0.  1.
</event>
<event>
 7    1  0.1333056E-013  0.7246159E+02  0.7816164E-02  0.1226708E+00
        -11   -1    0    0    0    0  0.00000000000E+00  0.00000000000E+00  0.45593999997E+02  0.45594000000E+02  0.51100000000E-03 0.  1.
         11   -1    0    0    0    0 -0.00000000000E+00 -0.00000000000E+00 -0.45593999997E+02  0.45594000000E+02  0.51100000000E-03 0. -1.
    9900012    2    1    2    0    0 -0.10345669840E+02  0.84090148526E+01  0.13150431308E+02  0.72461594611E+02  0.70000031676E+02 0.  0.
         12    1    1    2    0    0  0.10345669840E+02 -0.84090148526E+01 -0.13150431308E+02  0.18726405389E+02  0.00000000000E+00 0. -1.
         11    1    3    3    0    0  0.29381524835E+01  0.15912137333E+02 -0.24410434946E+02  0.29286484751E+02  0.51100000000E-03 0. -1.
        -11    1    3    3    0    0 -0.89536763202E+01 -0.86200966475E+01  0.12175153115E+02  0.17398526935E+02  0.51100000000E-03 0.  1.
         12    1    3    3    0    0 -0.43301460028E+01  0.11169741671E+01  0.25385713139E+02  0.25776582925E+02  0.00000000000E+00 0. -1.
</event>
<event>
 7    1  0.1333056E-013  0.7246156E+02  0.7816164E-02  0.1226708E+00
        -11   -1    0    0    0    0  0.00000000000E+00  0.00000000000E+00  0.45593999997E+02  0.45594000000E+02  0.51100000000E-03 0.  1.
         11   -1    0    0    0    0 -0.00000000000E+00 -0.00000000000E+00 -0.45593999997E+02  0.45594000000E+02  0.51100000000E-03 0. -1.
    9900012    2    1    2    0    0 -0.66684577411E+01 -0.16658805329E+02  0.53568125831E+01  0.72461559743E+02  0.69999986255E+02 0.  0.
         12    1    1    2    0    0  0.66684577411E+01  0.16658805329E+02 -0.53568125831E+01  0.18726440257E+02  0.00000000000E+00 0. -1.
         11    1    3    3    0    0  0.22754048557E+02  0.47311245524E+01 -0.10871065174E+02  0.25657558799E+02  0.51100000000E-03 0. -1.
        -11    1    3    3    0    0 -0.13223744362E+02 -0.19610597188E+02  0.18917676490E+02  0.30287314524E+02  0.51100000000E-03 0.  1.
        -12    1    3    3    0    0 -0.16198761935E+02 -0.17793326936E+01 -0.26897987330E+01  0.16516686420E+02  0.00000000000E+00 0.  1.
</event>
<event>
 7    1  0.1333056E-013  0.7246153E+02  0.7816164E-02  0.1226708E+00
        -11   -1    0    0    0    0  0.00000000000E+00  0.00000000000E+00  0.45593999997E+02  0.45594000000E+02  0.51100000000E-03 0.  1.
         11   -1    0    0    0    0 -0.00000000000E+00 -0.00000000000E+00 -0.45593999997E+02  0.45594000000E+02  0.51100000000E-03 0. -1.
    9900012    2    1    2    0    0 -0.11371906475E+02  0.50566419149E+01  0.13992522231E+02  0.72461533096E+02  0.69999951543E+02 0.  0.
         12    1    1    2    0    0  0.11371906475E+02 -0.50566419149E+01 -0.13992522231E+02  0.18726466904E+02  0.00000000000E+00 0. -1.
         11    1    3    3    0    0 -0.46522412558E+01 -0.55937087504E+01 -0.22673134311E+02  0.23811844658E+02  0.51100000000E-03 0. -1.
        -11    1    3    3    0    0 -0.35480893633E+01  0.18109993575E+02  0.36076393887E+02  0.40522425909E+02  0.51100000000E-03 0.  1.
         12    1    3    3    0    0 -0.31715758557E+01 -0.74596429093E+01  0.58926265394E+00  0.81272625291E+01  0.00000000000E+00 0. -1.
</event>
<event>
 7    1  0.1333056E-013  0.7246157E+02  0.7816164E-02  0.1226708E+00
        -11   -1    0    0    0    0  0.00000000000E+00  0.00000000000E+00  0.45593999997E+02  0.45594000000E+02  0.51100000000E-03 0. -1.
         11   -1    0    0    0    0 -0.00000000000E+00 -0.00000000000E+00 -0.45593999997E+02  0.45594000000E+02  0.51100000000E-03 0.  1.
    9900012    2    1    2    0    0  0.16120268627E+02 -0.91339966807E+01  0.27177693720E+01  0.72461568778E+02  0.69999998025E+02 0.  0.
         12    1    1    2    0    0 -0.16120268627E+02  0.91339966807E+01 -0.27177693720E+01  0.18726431222E+02  0.00000000000E+00 0. -1.
         11    1    3    3    0    0 -0.43621576384E+01  0.15895751027E+01 -0.20097646056E+02  0.20626937376E+02  0.51100000000E-03 0.  1.
        -11    1    3    3    0    0  0.14559970411E+02 -0.25143893088E+02  0.75593805804E+01  0.30022530423E+02  0.51100000000E-03 0. -1.
         12    1    3    3    0    0  0.59224558544E+01  0.14420321304E+02  0.15256034847E+02  0.21812100979E+02  0.00000000000E+00 0. -1.
</event>
<event>
 7    1  0.1333056E-013  0.7246160E+02  0.7816164E-02  0.1226708E+00
        -11   -1    0    0    0    0  0.00000000000E+00  0.00000000000E+00  0.45593999997E+02  0.45594000000E+02  0.51100000000E-03 0.  1.
         11   -1    0    0    0    0 -0.00000000000E+00 -0.00000000000E+00 -0.45593999997E+02  0.45594000000E+02  0.51100000000E-03 0. -1.
    9900012    2    1    2    0    0 -0.56650402525E+01 -0.16695793597E+02  0.63115632161E+01  0.72461600583E+02  0.70000039457E+02 0.  0.
         12    1    1    2    0    0  0.56650402525E+01  0.16695793597E+02 -0.63115632161E+01  0.18726399417E+02  0.00000000000E+00 0. -1.
         11    1    3    3    0    0 -0.10066340012E+02 -0.21675549150E+02 -0.56082158580E+01  0.24548171369E+02  0.51100000000E-03 0. -1.
        -11    1    3    3    0    0  0.13275140804E+02  0.21729194116E+02  0.13629322162E+02  0.28881579997E+02  0.51100000000E-03 0.  1.
        -12    1    3    3    0    0 -0.88738410451E+01 -0.16749438562E+02 -0.17095430880E+01  0.19031849217E+02  0.00000000000E+00 0.  1.
</event>
<event>
 7    1  0.1478830E-013  0.7246158E+02  0.7816164E-02  0.1226708E+00
        -11   -1    0    0    0    0  0.00000000000E+00  0.00000000000E+00  0.45593999997E+02  0.45594000000E+02  0.51100000000E-03 0. -1.
         11   -1    0    0    0    0 -0.00000000000E+00 -0.00000000000E+00 -0.45593999997E+02  0.45594000000E+02  0.51100000000E-03 0.  1.
    9900012    2    1    2    0    0 -0.33110761299E+01 -0.13524398153E+01 -0.18381690363E+02  0.72461578580E+02  0.70000010794E+02 0.  0.
         12    1    1    2    0    0  0.33110761299E+01  0.13524398153E+01  0.18381690363E+02  0.18726421420E+02  0.00000000000E+00 0. -1.
         11    1    3    3    0    0 -0.10982387237E+02  0.39757146938E+01  0.18377285846E+02  0.21774842642E+02  0.51100000000E-03 0. -1.
        -11    1    3    3    0    0  0.25596342351E+01  0.12413265819E+02 -0.26945699928E+02  0.29777703749E+02  0.51100000000E-03 0.  1.
         12    1    3    3    0    0  0.51116768720E+01 -0.17741420328E+02 -0.98132762815E+01  0.20909032189E+02  0.00000000000E+00 0. -1.
</event>
<event>
 7    1  0.1333056E-013  0.7246158E+02  0.7816164E-02  0.1226708E+00
        -11   -1    0    0    0    0  0.00000000000E+00  0.00000000000E+00  0.45593999997E+02  0.45594000000E+02  0.51100000000E-03 0.  1.
         11   -1    0    0    0    0 -0.00000000000E+00 -0.00000000000E+00 -0.45593999997E+02  0.45594000000E+02  0.51100000000E-03 0. -1.
    9900012    2    1    2    0    0  0.65509271759E+01 -0.10236239365E+01  0.17513323217E+02  0.72461576344E+02  0.70000007881E+02 0.  0.
         12    1    1    2    0    0 -0.65509271759E+01  0.10236239365E+01 -0.17513323217E+02  0.18726423656E+02  0.00000000000E+00 0. -1.
         11    1    3    3    0    0 -0.20652789960E+02 -0.91189752433E+01 -0.37560535360E+01  0.22886707519E+02  0.51100000000E-03 0. -1.
        -11    1    3    3    0    0  0.19091788920E+02  0.21078704577E+02  0.86237009916E+01  0.29718284100E+02  0.51100000000E-03 0.  1.
         12    1    3    3    0    0  0.81119282156E+01 -0.12983353270E+02  0.12645675761E+02  0.19856584725E+02  0.00000000000E+00 0. -1.
</event>
<event>
 7    1  0.1333056E-013  0.7246157E+02  0.7816164E-02  0.1226708E+00
        -11   -1    0    0    0    0  0.00000000000E+00  0.00000000000E+00  0.45593999997E+02  0.45594000000E+02  0.51100000000E-03 0. -1.
         11   -1    0    0    0    0 -0.00000000000E+00 -0.00000000000E+00 -0.45593999997E+02  0.45594000000E+02  0.51100000000E-03 0.  1.
    9900012    2    1    2    0    0  0.43342046774E+01 -0.15746492544E+02 -0.91619788766E+01  0.72461569092E+02  0.69999998433E+02 0.  0.
         12    1    1    2    0    0 -0.43342046774E+01  0.15746492544E+02  0.91619788766E+01  0.18726430908E+02  0.00000000000E+00 0. -1.
         11    1    3    3    0    0  0.14500746523E+02 -0.32528679244E+02  0.15217555265E+02  0.38729324956E+02  0.51100000000E-03 0. -1.
        -11    1    3    3    0    0 -0.81417282434E+01  0.52468709897E+01 -0.17887489189E+02  0.20341574760E+02  0.51100000000E-03 0.  1.
         12    1    3    3    0    0 -0.20248136021E+01  0.11535315710E+02 -0.64920449527E+01  0.13390669375E+02  0.00000000000E+00 0. -1.
</event>
<event>
 7    1  0.1333056E-013  0.7246157E+02  0.7816164E-02  0.1226708E+00
        -11   -1    0    0    0    0  0.00000000000E+00  0.00000000000E+00  0.45593999997E+02  0.45594000000E+02  0.51100000000E-03 0. -1.
         11   -1    0    0    0    0 -0.00000000000E+00 -0.00000000000E+00 -0.45593999997E+02  0.45594000000E+02  0.51100000000E-03 0.  1.
    9900012    2    1    2    0    0  0.40766531278E+01 -0.85459224986E+01 -0.16156338626E+02  0.72461570285E+02  0.69999999988E+02 0.  0.
         12    1    1    2    0    0 -0.40766531278E+01  0.85459224986E+01  0.16156338626E+02  0.18726429715E+02  0.00000000000E+00 0. -1.
         11    1    3    3    0    0 -0.38071184152E+01 -0.19033533499E+02  0.60806947766E+01  0.20340707886E+02  0.51100000000E-03 0. -1.
        -11    1    3    3    0    0  0.16907803560E+02  0.18525204114E+02 -0.28944725115E+02  0.38299531602E+02  0.51100000000E-03 0.  1.
        -12    1    3    3    0    0 -0.90240320168E+01 -0.80375931137E+01  0.67076917125E+01  0.13821330797E+02  0.00000000000E+00 0.  1.
</event>
<event>
 7    1  0.1333056E-013  0.7246159E+02  0.7816164E-02  0.1226708E+00
        -11   -1    0    0    0    0  0.00000000000E+00  0.00000000000E+00  0.45593999997E+02  0.45594000000E+02  0.51100000000E-03 0.  1.
         11   -1    0    0    0    0 -0.00000000000E+00 -0.00000000000E+00 -0.45593999997E+02  0.45594000000E+02  0.51100000000E-03 0. -1.
    9900012    2    1    2    0    0 -0.96519515503E+01 -0.12829858227E+02  0.96391468759E+01  0.72461585945E+02  0.70000020388E+02 0.  0.
         12    1    1    2    0    0  0.96519515503E+01  0.12829858227E+02 -0.96391468759E+01  0.18726414055E+02  0.00000000000E+00 0. -1.
         11    1    3    3    0    0  0.43201743569E+01 -0.42828163616E+00 -0.22947316792E+02  0.23354371750E+02  0.51100000000E-03 0. -1.
        -11    1    3    3    0    0 -0.18109660198E+02  0.42104928759E+01  0.22683754358E+02  0.29329861145E+02  0.51100000000E-03 0.  1.
         12    1    3    3    0    0  0.41375342906E+01 -0.16612069467E+02  0.99027093104E+01  0.19777353050E+02  0.00000000000E+00 0. -1.
</event>
<event>
 8    1  0.1333056E-013  0.7246155E+02  0.7816164E-02  0.1226708E+00
        -11   -1    0    0    0    0  0.00000000000E+00  0.00000000000E+00  0.45593999997E+02  0.45594000000E+02  0.51100000000E-03 0. -1.
         11   -1    0    0    0    0 -0.00000000000E+00 -0.00000000000E+00 -0.45593999997E+02  0.45594000000E+02  0.51100000000E-03 0.  1.
    9900012    2    1    2    0    0  0.14542235243E+02  0.82147093227E+01 -0.84688736273E+01  0.72461551441E+02  0.69999975440E+02 0.  0.
         24    2    3    3    0    0  0.71937198131E+01 -0.39581820501E+01 -0.16912192959E+02  0.55924635011E+02  0.52669969817E+02 0.  0.
         12    1    1    2    0    0 -0.14542235243E+02 -0.82147093227E+01  0.84688736273E+01  0.18726448559E+02  0.00000000000E+00 0. -1.
         11    1    3    3    0    0  0.73485154300E+01  0.12172891373E+02  0.84433193318E+01  0.16536916430E+02  0.51100000000E-03 0.  1.
        -11    1    4    4    0    0  0.20682839738E+02  0.12546848069E+02 -0.23386424671E+02  0.33647111544E+02  0.51100000000E-03 0. -1.
         12    1    4    4    0    0 -0.13489119925E+02 -0.16505030119E+02  0.64742317124E+01  0.22277523467E+02  0.00000000000E+00 0. -1.
</event>
<event>
 7    1  0.1333056E-013  0.7246149E+02  0.7816164E-02  0.1226708E+00
        -11   -1    0    0    0    0  0.00000000000E+00  0.00000000000E+00  0.45593999997E+02  0.45594000000E+02  0.51100000000E-03 0.  1.
         11   -1    0    0    0    0 -0.00000000000E+00 -0.00000000000E+00 -0.45593999997E+02  0.45594000000E+02  0.51100000000E-03 0. -1.
    9900012    2    1    2    0    0 -0.12771293446E+02  0.27986680429E+01  0.13406846271E+02  0.72461494560E+02  0.69999901341E+02 0.  0.
         12    1    1    2    0    0  0.12771293446E+02 -0.27986680429E+01 -0.13406846271E+02  0.18726505440E+02  0.00000000000E+00 0. -1.
         11    1    3    3    0    0  0.22395916843E+02  0.70314659262E+01  0.12455188065E+02  0.26573488937E+02  0.51100000000E-03 0.  1.
        -11    1    3    3    0    0 -0.15800884565E+02 -0.14687059032E+02 -0.66981029887E+01  0.22588542227E+02  0.51100000000E-03 0. -1.
        -12    1    3    3    0    0 -0.19366325723E+02  0.10454261148E+02  0.76497611939E+01  0.23299463395E+02  0.00000000000E+00 0.  1.
</event>
<event>
 7    1  0.1333056E-013  0.7246157E+02  0.7816164E-02  0.1226708E+00
        -11   -1    0    0    0    0  0.00000000000E+00  0.00000000000E+00  0.45593999997E+02  0.45594000000E+02  0.51100000000E-03 0. -1.
         11   -1    0    0    0    0 -0.00000000000E+00 -0.00000000000E+00 -0.45593999997E+02  0.45594000000E+02  0.51100000000E-03 0.  1.
    9900012    2    1    2    0    0  0.97161714773E+01 -0.12526783881E+02 -0.99676968858E+01  0.72461567243E+02  0.69999996025E+02 0.  0.
         12    1    1    2    0    0 -0.97161714773E+01  0.12526783881E+02  0.99676968858E+01  0.18726432757E+02  0.00000000000E+00 0. -1.
         11    1    3    3    0    0  0.41565569596E+01  0.17317484802E+02 -0.66319210949E+01  0.19004068598E+02  0.51100000000E-03 0. -1.
        -11    1    3    3    0    0  0.48845594174E+01 -0.23901438372E+02 -0.22619030296E+02  0.33267975723E+02  0.51100000000E-03 0.  1.
        -12    1    3    3    0    0  0.67505510027E+00 -0.59428303114E+01  0.19283254505E+02  0.20189522922E+02  0.00000000000E+00 0.  1.
</event>
<event>
 7    1  0.1333056E-013  0.7246157E+02  0.7816164E-02  0.1226708E+00
        -11   -1    0    0    0    0  0.00000000000E+00  0.00000000000E+00  0.45593999997E+02  0.45594000000E+02  0.51100000000E-03 0. -1.
         11   -1    0    0    0    0 -0.00000000000E+00 -0.00000000000E+00 -0.45593999997E+02  0.45594000000E+02  0.51100000000E-03 0.  1.
    9900012    2    1    2    0    0  0.13806247312E+02 -0.10342253815E+01 -0.12609409229E+02  0.72461567129E+02  0.69999995876E+02 0.  0.
         12    1    1    2    0    0 -0.13806247312E+02  0.10342253815E+01  0.12609409229E+02  0.18726432871E+02  0.00000000000E+00 0. -1.
         11    1    3    3    0    0  0.28088063093E+01  0.11603640765E+02 -0.76888202588E+00  0.11963488276E+02  0.51100000000E-03 0. -1.
        -11    1    3    3    0    0  0.30688417303E+02 -0.13655598867E+02 -0.20074000974E+02  0.39130804392E+02  0.51100000000E-03 0.  1.
        -12    1    3    3    0    0 -0.19690976300E+02  0.10177327198E+01  0.82334737714E+01  0.21367274461E+02  0.00000000000E+00 0.  1.
</event>
<event>
 7    1  0.1333056E-013  0.7246161E+02  0.7816164E-02  0.1226708E+00
        -11   -1    0    0    0    0  0.00000000000E+00  0.00000000000E+00  0.45593999997E+02  0.45594000000E+02  0.51100000000E-03 0.  1.
         11   -1    0    0    0    0 -0.00000000000E+00 -0.00000000000E+00 -0.45593999997E+02  0.45594000000E+02  0.51100000000E-03 0. -1.
    9900012    2    1    2    0    0  0.44626503040E+01  0.18051979471E+02 -0.22109569630E+01  0.72461613770E+02  0.70000056635E+02 0.  0.
         12    1    1    2    0    0 -0.44626503040E+01 -0.18051979471E+02  0.22109569630E+01  0.18726386230E+02  0.00000000000E+00 0. -1.
         11    1    3    3    0    0  0.26260632543E+02  0.89829946327E+01  0.15215511864E+02  0.31651647914E+02  0.51100000000E-03 0. -1.
        -11    1    3    3    0    0 -0.24901534648E+02  0.15790541803E+02 -0.13497325523E+02  0.32428466427E+02  0.51100000000E-03 0.  1.
        -12    1    3    3    0    0  0.31035524088E+01 -0.67215569648E+01 -0.39291433038E+01  0.83814994295E+01  0.00000000000E+00 0.  1.
</event>
<event>
 7    1  0.1333056E-013  0.7246158E+02  0.7816164E-02  0.1226708E+00
        -11   -1    0    0    0    0  0.00000000000E+00  0.00000000000E+00  0.45593999997E+02  0.45594000000E+02  0.51100000000E-03 0. -1.
         11   -1    0    0    0    0 -0.00000000000E+00 -0.00000000000E+00 -0.45593999997E+02  0.45594000000E+02  0.51100000000E-03 0.  1.
    9900012    2    1    2    0    0 -0.16624102415E+02 -0.26688158271E+00 -0.86166513994E+01  0.72461583145E+02  0.70000016740E+02 0.  0.
         12    1    1    2    0    0  0.16624102415E+02  0.26688158271E+00  0.86166513994E+01  0.18726416855E+02  0.00000000000E+00 0. -1.
         11    1    3    3    0    0 -0.27861257788E+02  0.49172152231E+01  0.19548477140E+02  0.34388539513E+02  0.51100000000E-03 0. -1.
        -11    1    3    3    0    0  0.32099642307E+01 -0.68028461666E+01  0.11734310244E+01  0.76131154568E+01  0.51100000000E-03 0.  1.
         12    1    3    3    0    0  0.80271911421E+01  0.16187493607E+01 -0.29338559564E+02  0.30459928175E+02  0.00000000000E+00 0. -1.
</event>
<event>
 7    1  0.1333056E-013  0.7246131E+02  0.7816164E-02  0.1226709E+00
        -11   -1    0    0    0    0  0.00000000000E+00  0.00000000000E+00  0.45593999997E+02  0.45594000000E+02  0.51100000000E-03 0. -1.
         11   -1    0    0    0    0 -0.00000000000E+00 -0.00000000000E+00 -0.45593999997E+02  0.45594000000E+02  0.51100000000E-03 0.  1.
    9900012    2    1    2    0    0  0.11407459462E+02  0.14718278759E+02 -0.19826457593E+01  0.72461314623E+02  0.69999666940E+02 0.  0.
         12    1    1    2    0    0 -0.11407459462E+02 -0.14718278759E+02  0.19826457593E+01  0.18726685377E+02  0.00000000000E+00 0. -1.
         11    1    3    3    0    0  0.26208431282E+02  0.11507941983E+01  0.12429743529E+02  0.29029376880E+02  0.51100000000E-03 0. -1.
        -11    1    3    3    0    0 -0.33375776043E+01  0.24313608097E+02 -0.47831039142E+01  0.25003380697E+02  0.51100000000E-03 0.  1.
        -12    1    3    3    0    0 -0.11463394216E+02 -0.10746123536E+02 -0.96292853742E+01  0.18428557047E+02  0.00000000000E+00 0.  1.
</event>
<event>
 7    1  0.1333056E-013  0.7246153E+02  0.7816164E-02  0.1226708E+00
        -11   -1    0    0    0    0  0.00000000000E+00  0.00000000000E+00  0.45593999997E+02  0.45594000000E+02  0.51100000000E-03 0.  1.
         11   -1    0    0    0    0 -0.00000000000E+00 -0.00000000000E+00 -0.45593999997E+02  0.45594000000E+02  0.51100000000E-03 0. -1.
    9900012    2    1    2    0    0  0.10325609446E+02  0.15620048748E+02  0.27635550280E+00  0.72461534618E+02  0.69999953525E+02 0.  0.
         12    1    1    2    0    0 -0.10325609446E+02 -0.15620048748E+02 -0.27635550280E+00  0.18726465382E+02  0.00000000000E+00 0. -1.
         11    1    3    3    0    0  0.18230866958E-01 -0.37922672612E+01 -0.12986482017E+02  0.13528870566E+02  0.51100000000E-03 0. -1.
        -11    1    3    3    0    0  0.19584278362E+02 -0.16991160633E+01  0.25995351630E+02  0.32591245159E+02  0.51100000000E-03 0.  1.
        -12    1    3    3    0    0 -0.92768997821E+01  0.21111432073E+02 -0.12732514110E+02  0.26341418893E+02  0.00000000000E+00 0.  1.
</event>
<event>
 7    1  0.1333056E-013  0.7246158E+02  0.7816164E-02  0.1226708E+00
        -11   -1    0    0    0    0  0.00000000000E+00  0.00000000000E+00  0.45593999997E+02  0.45594000000E+02  0.51100000000E-03 0.  1.
         11   -1    0    0    0    0 -0.00000000000E+00 -0.00000000000E+00 -0.45593999997E+02  0.45594000000E+02  0.51100000000E-03 0. -1.
    9900012    2    1    2    0    0  0.74973821051E+01 -0.13261888591E+02  0.10889921831E+02  0.72461579495E+02  0.70000011985E+02 0.  0.
         12    1    1    2    0    0 -0.74973821051E+01  0.13261888591E+02 -0.10889921831E+02  0.18726420505E+02  0.00000000000E+00 0. -1.
         11    1    3    3    0    0 -0.22611974901E+01  0.23547762074E+02  0.15316007471E+02  0.28181380340E+02  0.51100000000E-03 0. -1.
        -11    1    3    3    0    0  0.15906106914E+02 -0.17106300760E+02 -0.12003127664E+01  0.23389538556E+02  0.51100000000E-03 0.  1.
        -12    1    3    3    0    0 -0.61475273186E+01 -0.19703349905E+02 -0.32257728732E+01  0.20890660599E+02  0.00000000000E+00 0.  1.
</event>
<event>
 7    1  0.1333056E-013  0.7246158E+02  0.7816164E-02  0.1226708E+00
        -11   -1    0    0    0    0  0.00000000000E+00  0.00000000000E+00  0.45593999997E+02  0.45594000000E+02  0.51100000000E-03 0. -1.
         11   -1    0    0    0    0 -0.00000000000E+00 -0.00000000000E+00 -0.45593999997E+02  0.45594000000E+02  0.51100000000E-03 0.  1.
    9900012    2    1    2    0    0  0.47554356836E+01  0.17775427759E+02  0.34783344000E+01  0.72461579873E+02  0.70000012478E+02 0.  0.
         12    1    1    2    0    0 -0.47554356836E+01 -0.17775427759E+02 -0.34783344000E+01  0.18726420127E+02  0.00000000000E+00 0. -1.
         11    1    3    3    0    0  0.23204916487E+02  0.40099104709E+01  0.69190012049E+01  0.24544247984E+02  0.51100000000E-03 0. -1.
        -11    1    3    3    0    0 -0.20005791874E+02 -0.10873161054E+02 -0.44862952725E+01  0.23207416602E+02  0.51100000000E-03 0.  1.
         12    1    3    3    0    0  0.15563110707E+01  0.24638678342E+02  0.10456284676E+01  0.24709915287E+02  0.00000000000E+00 0. -1.
</event>
<event>
 7    1  0.1333056E-013  0.7246157E+02  0.7816164E-02  0.1226708E+00
        -11   -1    0    0    0    0  0.00000000000E+00  0.00000000000E+00  0.45593999997E+02  0.45594000000E+02  0.51100000000E-03 0.  1.
         11   -1    0    0    0    0 -0.00000000000E+00 -0.00000000000E+00 -0.45593999997E+02  0.45594000000E+02  0.51100000000E-03 0. -1.
    9900012    2    1    2    0    0 -0.85733375994E+01 -0.15463464407E+02 -0.61691539189E+01  0.72461566567E+02  0.69999995144E+02 0.  0.
         12    1    1    2    0    0  0.85733375994E+01  0.15463464407E+02  0.61691539189E+01  0.18726433433E+02  0.00000000000E+00 0. -1.
         11    1    3    3    0    0  0.10598489664E+02  0.12493406094E+02 -0.58875906012E+00  0.16393895708E+02  0.51100000000E-03 0. -1.
        -11    1    3    3    0    0 -0.77953833635E+01 -0.16178192195E+01 -0.21730890852E+02  0.23143399887E+02  0.51100000000E-03 0.  1.
        -12    1    3    3    0    0 -0.11376443900E+02 -0.26339051281E+02  0.16150495994E+02  0.32924270972E+02  0.00000000000E+00 0.  1.
</event>
<event>
 7    1  0.1333056E-013  0.7246163E+02  0.7816164E-02  0.1226708E+00
        -11   -1    0    0    0    0  0.00000000000E+00  0.00000000000E+00  0.45593999997E+02  0.45594000000E+02  0.51100000000E-03 0. -1.
         11   -1    0    0    0    0 -0.00000000000E+00 -0.00000000000E+00 -0.45593999997E+02  0.45594000000E+02  0.51100000000E-03 0.  1.
    9900012    2    1    2    0    0 -0.97514768948E+01  0.14442406413E+02 -0.68558435831E+01  0.72461628331E+02  0.70000075604E+02 0.  0.
         12    1    1    2    0    0  0.97514768948E+01 -0.14442406413E+02  0.68558435831E+01  0.18726371669E+02  0.00000000000E+00 0. -1.
         11    1    3    3    0    0 -0.18405736611E+02  0.12128711486E+02 -0.65639776195E+01  0.22999186614E+02  0.51100000000E-03 0. -1.
        -11    1    3    3    0    0  0.14682915560E+02  0.16786351717E+02  0.15539431977E+02  0.27181676912E+02  0.51100000000E-03 0.  1.
         12    1    3    3    0    0 -0.60286558439E+01 -0.14472656789E+02 -0.15831297940E+02  0.22280764805E+02  0.00000000000E+00 0. -1.
</event>
<event>
 7    1  0.1333056E-013  0.7246158E+02  0.7816164E-02  0.1226708E+00
        -11   -1    0    0    0    0  0.00000000000E+00  0.00000000000E+00  0.45593999997E+02  0.45594000000E+02  0.51100000000E-03 0. -1.
         11   -1    0    0    0    0 -0.00000000000E+00 -0.00000000000E+00 -0.45593999997E+02  0.45594000000E+02  0.51100000000E-03 0.  1.
    9900012    2    1    2    0    0 -0.40206299307E+01  0.11691605247E+02 -0.14064842205E+02  0.72461577904E+02  0.70000009912E+02 0.  0.
         12    1    1    2    0    0  0.40206299307E+01 -0.11691605247E+02  0.14064842205E+02  0.18726422096E+02  0.00000000000E+00 0. -1.
         11    1    3    3    0    0  0.28157592724E+02 -0.40833261309E+01 -0.52106499621E+01  0.28925325471E+02  0.51100000000E-03 0. -1.
        -11    1    3    3    0    0 -0.15994458453E+02  0.17655486142E+02  0.20814670327E+01  0.23913832762E+02  0.51100000000E-03 0.  1.
         12    1    3    3    0    0 -0.16183764202E+02 -0.18805547636E+01 -0.10935659275E+02  0.19622419671E+02  0.00000000000E+00 0. -1.
</event>
<event>
 7    1  0.1333056E-013  0.7246211E+02  0.7816164E-02  0.1226707E+00
        -11   -1    0    0    0    0  0.00000000000E+00  0.00000000000E+00  0.45593999997E+02  0.45594000000E+02  0.51100000000E-03 0. -1.
         11   -1    0    0    0    0 -0.00000000000E+00 -0.00000000000E+00 -0.45593999997E+02  0.45594000000E+02  0.51100000000E-03 0.  1.
    9900012    2    1    2    0    0  0.72242780823E+01 -0.10110936107E+01 -0.17246638965E+02  0.72462107239E+02  0.70000699466E+02 0.  0.
         12    1    1    2    0    0 -0.72242780823E+01  0.10110936107E+01  0.17246638965E+02  0.18725892761E+02  0.00000000000E+00 0. -1.
         11    1    3    3    0    0 -0.16132636555E+02 -0.17909803703E+02  0.12232442878E+02  0.27030643535E+02  0.51100000000E-03 0. -1.
        -11    1    3    3    0    0  0.11213648003E+02 -0.60802148413E+00 -0.33546193674E+01  0.11720454898E+02  0.51100000000E-03 0.  1.
         12    1    3    3    0    0  0.12143266634E+02  0.17506731576E+02 -0.26124462476E+02  0.33711008806E+02  0.00000000000E+00 0. -1.
</event>
<event>
 7    1  0.1333056E-013  0.7246157E+02  0.7816164E-02  0.1226708E+00
        -11   -1    0    0    0    0  0.00000000000E+00  0.00000000000E+00  0.45593999997E+02  0.45594000000E+02  0.51100000000E-03 0.  1.
         11   -1    0    0    0    0 -0.00000000000E+00 -0.00000000000E+00 -0.45593999997E+02  0.45594000000E+02  0.51100000000E-03 0. -1.
    9900012    2    1    2    0    0 -0.83499220519E+01  0.79897612342E+01  0.14735044069E+02  0.72461574645E+02  0.70000005668E+02 0.  0.
         12    1    1    2    0    0  0.83499220519E+01 -0.79897612342E+01 -0.14735044069E+02  0.18726425355E+02  0.00000000000E+00 0. -1.
         11    1    3    3    0    0 -0.17758831245E+02  0.25731112510E+02 -0.83982508532E+01  0.32372779551E+02  0.51100000000E-03 0. -1.
        -11    1    3    3    0    0  0.12816293563E+01 -0.18588046194E+02  0.36842426926E+01  0.18992937624E+02  0.51100000000E-03 0.  1.
         12    1    3    3    0    0  0.81272798363E+01  0.84669491791E+00  0.19449052229E+02  0.21095857471E+02  0.00000000000E+00 0. -1.
</event>
<event>
 7    1  0.1333056E-013  0.7246163E+02  0.7816164E-02  0.1226708E+00
        -11   -1    0    0    0    0  0.00000000000E+00  0.00000000000E+00  0.45593999997E+02  0.45594000000E+02  0.51100000000E-03 0.  1.
         11   -1    0    0    0    0 -0.00000000000E+00 -0.00000000000E+00 -0.45593999997E+02  0.45594000000E+02  0.51100000000E-03 0. -1.
    9900012    2    1    2    0    0 -0.13554795315E+02  0.89344782606E+01  0.93337821746E+01  0.72461631759E+02  0.70000080069E+02 0.  0.
         12    1    1    2    0    0  0.13554795315E+02 -0.89344782606E+01 -0.93337821746E+01  0.18726368241E+02  0.00000000000E+00 0. -1.
         11    1    3    3    0    0  0.12876419991E+02 -0.12375647627E+02 -0.16317702302E+02  0.24191450032E+02  0.51100000000E-03 0. -1.
        -11    1    3    3    0    0 -0.20413537296E+02  0.15318054258E+02  0.50903725478E+01  0.26024357516E+02  0.51100000000E-03 0.  1.
        -12    1    3    3    0    0 -0.60176780096E+01  0.59920716294E+01  0.20561111929E+02  0.22245824210E+02  0.00000000000E+00 0.  1.
</event>
<event>
 7    1  0.1333056E-013  0.7246158E+02  0.7816164E-02  0.1226708E+00
        -11   -1    0    0    0    0  0.00000000000E+00  0.00000000000E+00  0.45593999997E+02  0.45594000000E+02  0.51100000000E-03 0. -1.
         11   -1    0    0    0    0 -0.00000000000E+00 -0.00000000000E+00 -0.45593999997E+02  0.45594000000E+02  0.51100000000E-03 0.  1.
    9900012    2    1    2    0    0 -0.79369892182E+01 -0.14512353991E+02 -0.87792154286E+01  0.72461579099E+02  0.70000011470E+02 0.  0.
         12    1    1    2    0    0  0.79369892182E+01  0.14512353991E+02  0.87792154286E+01  0.18726420901E+02  0.00000000000E+00 0. -1.
         11    1    3    3    0    0 -0.25978797654E+02 -0.22264877707E+02  0.40082553926E+01  0.34448350009E+02  0.51100000000E-03 0. -1.
        -11    1    3    3    0    0  0.19752643288E+02  0.76315173709E+01 -0.20881427121E+02  0.29739552336E+02  0.51100000000E-03 0.  1.
         12    1    3    3    0    0 -0.17108348530E+01  0.12100634446E+00  0.80939563003E+01  0.82736767534E+01  0.00000000000E+00 0. -1.
</event>
<event>
 7    1  0.1333056E-013  0.7246160E+02  0.7816164E-02  0.1226708E+00
        -11   -1    0    0    0    0  0.00000000000E+00  0.00000000000E+00  0.45593999997E+02  0.45594000000E+02  0.51100000000E-03 0.  1.
         11   -1    0    0    0    0 -0.00000000000E+00 -0.00000000000E+00 -0.45593999997E+02  0.45594000000E+02  0.51100000000E-03 0. -1.
    9900012    2    1    2    0    0 -0.21574747067E+01  0.54054198098E+01  0.17799009640E+02  0.72461601399E+02  0.70000040519E+02 0.  0.
         12    1    1    2    0    0  0.21574747067E+01 -0.54054198098E+01 -0.17799009640E+02  0.18726398601E+02  0.00000000000E+00 0. -1.
         11    1    3    3    0    0 -0.12549569470E+02  0.87283272198E+01 -0.25077127759E+01  0.15490771884E+02  0.51100000000E-03 0. -1.
        -11    1    3    3    0    0  0.18694744829E+02 -0.22298165234E+02  0.21568600228E+02  0.36220245348E+02  0.51100000000E-03 0.  1.
        -12    1    3    3    0    0 -0.83026500651E+01  0.18975257825E+02 -0.12618778129E+01  0.20750584166E+02  0.00000000000E+00 0.  1.
</event>
<event>
 7    1  0.1333056E-013  0.7246162E+02  0.7816164E-02  0.1226708E+00
        -11   -1    0    0    0    0  0.00000000000E+00  0.00000000000E+00  0.45593999997E+02  0.45594000000E+02  0.51100000000E-03 0. -1.
         11   -1    0    0    0    0 -0.00000000000E+00 -0.00000000000E+00 -0.45593999997E+02  0.45594000000E+02  0.51100000000E-03 0.  1.
    9900012    2    1    2    0    0 -0.11849103111E+02 -0.92595803395E+01 -0.11159572147E+02  0.72461624935E+02  0.70000071179E+02 0.  0.
         12    1    1    2    0    0  0.11849103111E+02  0.92595803395E+01  0.11159572147E+02  0.18726375065E+02  0.00000000000E+00 0. -1.
         11    1    3    3    0    0 -0.19687646834E+02 -0.14363084525E+02 -0.19080151296E+02  0.30950828885E+02  0.51100000000E-03 0. -1.
        -11    1    3    3    0    0 -0.27285067695E+01  0.18251396237E+02 -0.62464930634E+01  0.19482733116E+02  0.51100000000E-03 0.  1.
         12    1    3    3    0    0  0.10567050493E+02 -0.13147892052E+02  0.14167072213E+02  0.22028062934E+02  0.00000000000E+00 0. -1.
</event>
<event>
 7    1  0.1333056E-013  0.7246156E+02  0.7816164E-02  0.1226708E+00
        -11   -1    0    0    0    0  0.00000000000E+00  0.00000000000E+00  0.45593999997E+02  0.45594000000E+02  0.51100000000E-03 0.  1.
         11   -1    0    0    0    0 -0.00000000000E+00 -0.00000000000E+00 -0.45593999997E+02  0.45594000000E+02  0.51100000000E-03 0. -1.
    9900012    2    1    2    0    0  0.10373770773E+02 -0.67043132491E+01  0.14075390078E+02  0.72461560348E+02  0.69999987043E+02 0.  0.
         12    1    1    2    0    0 -0.10373770773E+02  0.67043132491E+01 -0.14075390078E+02  0.18726439652E+02  0.00000000000E+00 0. -1.
         11    1    3    3    0    0 -0.10745625962E+02 -0.24023704741E+02 -0.55298063723E+01  0.26892110843E+02  0.51100000000E-03 0. -1.
        -11    1    3    3    0    0  0.20877243356E+02 -0.14512371950E+01  0.16259061868E+02  0.26501367372E+02  0.51100000000E-03 0.  1.
         12    1    3    3    0    0  0.24215338012E+00  0.18770628687E+02  0.33461345827E+01  0.19068082133E+02  0.00000000000E+00 0. -1.
</event>
<event>
 7    1  0.1333056E-013  0.7246161E+02  0.7816164E-02  0.1226708E+00
        -11   -1    0    0    0    0  0.00000000000E+00  0.00000000000E+00  0.45593999997E+02  0.45594000000E+02  0.51100000000E-03 0.  1.
         11   -1    0    0    0    0 -0.00000000000E+00 -0.00000000000E+00 -0.45593999997E+02  0.45594000000E+02  0.51100000000E-03 0. -1.
    9900012    2    1    2    0    0  0.75500976955E+01  0.13757958724E+02  0.10217251535E+02  0.72461611336E+02  0.70000053465E+02 0.  0.
         12    1    1    2    0    0 -0.75500976955E+01 -0.13757958724E+02 -0.10217251535E+02  0.18726388664E+02  0.00000000000E+00 0. -1.
         11    1    3    3    0    0 -0.93269540691E+01  0.20582528286E+02 -0.13706211811E+02  0.26429014082E+02  0.51100000000E-03 0. -1.
        -11    1    3    3    0    0  0.20135554026E+02  0.83416600247E+01  0.20963145674E+02  0.30240325803E+02  0.51100000000E-03 0.  1.
         12    1    3    3    0    0 -0.32585022614E+01 -0.15166229587E+02  0.29603176732E+01  0.15792271451E+02  0.00000000000E+00 0. -1.
</event>
<event>
 7    1  0.1333056E-013  0.7246155E+02  0.7816164E-02  0.1226708E+00
        -11   -1    0    0    0    0  0.00000000000E+00  0.00000000000E+00  0.45593999997E+02  0.45594000000E+02  0.51100000000E-03 0.  1.
         11   -1    0    0    0    0 -0.00000000000E+00 -0.00000000000E+00 -0.45593999997E+02  0.45594000000E+02  0.51100000000E-03 0. -1.
    9900012    2    1    2    0    0  0.41525874812E+01 -0.13170047847E+02  0.12648549975E+02  0.72461549200E+02  0.69999972521E+02 0.  0.
         12    1    1    2    0    0 -0.41525874812E+01  0.13170047847E+02 -0.12648549975E+02  0.18726450800E+02  0.00000000000E+00 0. -1.
         11    1    3    3    0    0  0.85486496209E+01  0.45730485519E+01 -0.22335140708E+02  0.24348525502E+02  0.51100000000E-03 0. -1.
        -11    1    3    3    0    0 -0.12486049281E+02 -0.20413895374E+02  0.29483187157E+02  0.37972185560E+02  0.51100000000E-03 0.  1.
         12    1    3    3    0    0  0.80899871410E+01  0.26707989754E+01  0.55005035260E+01  0.10140838138E+02  0.00000000000E+00 0. -1.
</event>
<event>
 7    1  0.1333056E-013  0.7246157E+02  0.7816164E-02  0.1226708E+00
        -11   -1    0    0    0    0  0.00000000000E+00  0.00000000000E+00  0.45593999997E+02  0.45594000000E+02  0.51100000000E-03 0. -1.
         11   -1    0    0    0    0 -0.00000000000E+00 -0.00000000000E+00 -0.45593999997E+02  0.45594000000E+02  0.51100000000E-03 0.  1.
    9900012    2    1    2    0    0  0.38150295027E+01 -0.14264110605E+02  0.11517802083E+02  0.72461573050E+02  0.70000003590E+02 0.  0.
         12    1    1    2    0    0 -0.38150295027E+01  0.14264110605E+02 -0.11517802083E+02  0.18726426950E+02  0.00000000000E+00 0. -1.
         11    1    3    3    0    0  0.12405642244E+02 -0.11713778984E+01 -0.13996559866E+02  0.18739684470E+02  0.51100000000E-03 0.  1.
        -11    1    3    3    0    0 -0.10181924102E+02 -0.20506520602E+02  0.34848107285E+02  0.41696277379E+02  0.51100000000E-03 0. -1.
         12    1    3    3    0    0  0.15913113604E+01  0.74137878947E+01 -0.93337453361E+01  0.12025611202E+02  0.00000000000E+00 0. -1.
</event>
<event>
 7    1  0.1333056E-013  0.7246160E+02  0.7816164E-02  0.1226708E+00
        -11   -1    0    0    0    0  0.00000000000E+00  0.00000000000E+00  0.45593999997E+02  0.45594000000E+02  0.51100000000E-03 0. -1.
         11   -1    0    0    0    0 -0.00000000000E+00 -0.00000000000E+00 -0.45593999997E+02  0.45594000000E+02  0.51100000000E-03 0.  1.
    9900012    2    1    2    0    0 -0.22113331178E+01 -0.14777759566E+02 -0.11287422974E+02  0.72461599135E+02  0.70000037570E+02 0.  0.
         12    1    1    2    0    0  0.22113331178E+01  0.14777759566E+02  0.11287422974E+02  0.18726400865E+02  0.00000000000E+00 0. -1.
         11    1    3    3    0    0  0.10250852290E+02  0.14787344306E+02  0.76456530709E+01  0.19549975331E+02  0.51100000000E-03 0. -1.
        -11    1    3    3    0    0  0.96528598615E+01 -0.24965983265E+02 -0.11486667077E+02  0.29127676610E+02  0.51100000000E-03 0.  1.
         12    1    3    3    0    0 -0.22115045269E+02 -0.45991206076E+01 -0.74464089675E+01  0.23783947194E+02  0.00000000000E+00 0. -1.
</event>
<event>
 7    1  0.1333056E-013  0.7246158E+02  0.7816164E-02  0.1226708E+00
        -11   -1    0    0    0    0  0.00000000000E+00  0.00000000000E+00  0.45593999997E+02  0.45594000000E+02  0.51100000000E-03 0. -1.
         11   -1    0    0    0    0 -0.00000000000E+00 -0.00000000000E+00 -0.45593999997E+02  0.45594000000E+02  0.51100000000E-03 0.  1.
    9900012    2    1    2    0    0 -0.44086612155E+01 -0.13190359517E+02 -0.12540206235E+02  0.72461584157E+02  0.70000018059E+02 0.  0.
         12    1    1    2    0    0  0.44086612155E+01  0.13190359517E+02  0.12540206235E+02  0.18726415843E+02  0.00000000000E+00 0. -1.
         11    1    3    3    0    0 -0.17680277149E+02  0.10916249533E+02  0.13266329892E+02  0.24652630955E+02  0.51100000000E-03 0. -1.
        -11    1    3    3    0    0  0.70028954547E+01 -0.90963139692E+01 -0.29037612648E+02  0.31224452296E+02  0.51100000000E-03 0.  1.
        -12    1    3    3    0    0  0.62687204792E+01 -0.15010295080E+02  0.32310765214E+01  0.16584500907E+02  0.00000000000E+00 0.  1.
</event>
<event>
 7    1  0.1333056E-013  0.7246157E+02  0.7816164E-02  0.1226708E+00
        -11   -1    0    0    0    0  0.00000000000E+00  0.00000000000E+00  0.45593999997E+02  0.45594000000E+02  0.51100000000E-03 0.  1.
         11   -1    0    0    0    0 -0.00000000000E+00 -0.00000000000E+00 -0.45593999997E+02  0.45594000000E+02  0.51100000000E-03 0. -1.
    9900012    2    1    2    0    0  0.15186142276E+02 -0.73868637016E+01  0.80928775336E+01  0.72461565760E+02  0.69999994093E+02 0.  0.
         12    1    1    2    0    0 -0.15186142276E+02  0.73868637016E+01 -0.80928775336E+01  0.18726434240E+02  0.00000000000E+00 0. -1.
         11    1    3    3    0    0 -0.12723893905E+02  0.17973826238E+02  0.16751775074E+02  0.27669077941E+02  0.51100000000E-03 0. -1.
        -11    1    3    3    0    0  0.11475023142E+02 -0.11959481885E+02 -0.15314568835E+02  0.22566377245E+02  0.51100000000E-03 0.  1.
         12    1    3    3    0    0  0.16435013038E+02 -0.13401208054E+02  0.66556712955E+01  0.22226110574E+02  0.00000000000E+00 0. -1.
</event>
<event>
 7    1  0.1333056E-013  0.7246112E+02  0.7816164E-02  0.1226709E+00
        -11   -1    0    0    0    0  0.00000000000E+00  0.00000000000E+00  0.45593999997E+02  0.45594000000E+02  0.51100000000E-03 0. -1.
         11   -1    0    0    0    0 -0.00000000000E+00 -0.00000000000E+00 -0.45593999997E+02  0.45594000000E+02  0.51100000000E-03 0.  1.
    9900012    2    1    2    0    0  0.70911106484E+01 -0.49185276558E+01 -0.16619872601E+02  0.72461122796E+02  0.69999417048E+02 0.  0.
         12    1    1    2    0    0 -0.70911106484E+01  0.49185276558E+01  0.16619872601E+02  0.18726877204E+02  0.00000000000E+00 0. -1.
         11    1    3    3    0    0 -0.67056754948E+01 -0.70903938308E+01 -0.36034979309E+01  0.10403122902E+02  0.51100000000E-03 0. -1.
        -11    1    3    3    0    0 -0.93809206816E+00  0.26756178608E+02  0.62882470628E+01  0.27501184734E+02  0.51100000000E-03 0.  1.
        -12    1    3    3    0    0  0.14734878211E+02 -0.24584312433E+02 -0.19304621733E+02  0.34556815159E+02  0.00000000000E+00 0.  1.
</event>
<event>
 7    1  0.1333056E-013  0.7246161E+02  0.7816164E-02  0.1226708E+00
        -11   -1    0    0    0    0  0.00000000000E+00  0.00000000000E+00  0.45593999997E+02  0.45594000000E+02  0.51100000000E-03 0. -1.
         11   -1    0    0    0    0 -0.00000000000E+00 -0.00000000000E+00 -0.45593999997E+02  0.45594000000E+02  0.51100000000E-03 0.  1.
    9900012    2    1    2    0    0 -0.72727584469E+01  0.32724186245E+01 -0.16943316671E+02  0.72461609027E+02  0.70000050456E+02 0.  0.
         12    1    1    2    0    0  0.72727584469E+01 -0.32724186245E+01  0.16943316671E+02  0.18726390973E+02  0.00000000000E+00 0. -1.
         11    1    3    3    0    0  0.16010927852E+02  0.62334228340E+01 -0.16641846563E+02  0.23919791559E+02  0.51100000000E-03 0.  1.
        -11    1    3    3    0    0 -0.16202042105E+02  0.88629641002E+01  0.17894577704E+02  0.25715252526E+02  0.51100000000E-03 0. -1.
        -12    1    3    3    0    0 -0.70816441941E+01 -0.11823968310E+02 -0.18196047812E+02  0.22826564942E+02  0.00000000000E+00 0.  1.
</event>
<event>
 7    1  0.1333056E-013  0.7246154E+02  0.7816164E-02  0.1226708E+00
        -11   -1    0    0    0    0  0.00000000000E+00  0.00000000000E+00  0.45593999997E+02  0.45594000000E+02  0.51100000000E-03 0. -1.
         11   -1    0    0    0    0 -0.00000000000E+00 -0.00000000000E+00 -0.45593999997E+02  0.45594000000E+02  0.51100000000E-03 0.  1.
    9900012    2    1    2    0    0  0.12512791315E+02 -0.10887510130E+02  0.86932439494E+01  0.72461539745E+02  0.69999960203E+02 0.  0.
         12    1    1    2    0    0 -0.12512791315E+02  0.10887510130E+02 -0.86932439494E+01  0.18726460255E+02  0.00000000000E+00 0. -1.
         11    1    3    3    0    0 -0.46402488662E+01 -0.65504938943E+01 -0.40384661822E+01  0.89861053391E+01  0.51100000000E-03 0. -1.
        -11    1    3    3    0    0  0.35506597013E+02 -0.12014108817E+02  0.19763061878E+02  0.42374943742E+02  0.51100000000E-03 0.  1.
        -12    1    3    3    0    0 -0.18353556831E+02  0.76770925813E+01 -0.70313517461E+01  0.21100490663E+02  0.00000000000E+00 0.  1.
</event>
<event>
 7    1  0.1333056E-013  0.7246157E+02  0.7816164E-02  0.1226708E+00
        -11   -1    0    0    0    0  0.00000000000E+00  0.00000000000E+00  0.45593999997E+02  0.45594000000E+02  0.51100000000E-03 0.  1.
         11   -1    0    0    0    0 -0.00000000000E+00 -0.00000000000E+00 -0.45593999997E+02  0.45594000000E+02  0.51100000000E-03 0. -1.
    9900012    2    1    2    0    0 -0.13018687247E+02  0.53470105171E+01  0.12353234877E+02  0.72461570788E+02  0.70000000643E+02 0.  0.
         12    1    1    2    0    0  0.13018687247E+02 -0.53470105171E+01 -0.12353234877E+02  0.18726429212E+02  0.00000000000E+00 0. -1.
         11    1    3    3    0    0 -0.29865083816E+02 -0.25307237798E+01 -0.10840813850E+02  0.31872418160E+02  0.51100000000E-03 0. -1.
        -11    1    3    3    0    0  0.14865788554E+02 -0.37076724302E+01  0.85287782188E+00  0.15344898339E+02  0.51100000000E-03 0.  1.
         12    1    3    3    0    0  0.19806080148E+01  0.11585406727E+02  0.22341170906E+02  0.25244254288E+02  0.00000000000E+00 0. -1.
</event>
<event>
 7    1  0.1333056E-013  0.7246185E+02  0.7816164E-02  0.1226707E+00
        -11   -1    0    0    0    0  0.00000000000E+00  0.00000000000E+00  0.45593999997E+02  0.45594000000E+02  0.51100000000E-03 0. -1.
         11   -1    0    0    0    0 -0.00000000000E+00 -0.00000000000E+00 -0.45593999997E+02  0.45594000000E+02  0.51100000000E-03 0.  1.
    9900012    2    1    2    0    0  0.22706933119E+00 -0.65223863461E+01 -0.17552078743E+02  0.72461853778E+02  0.70000369289E+02 0.  0.
         12    1    1    2    0    0 -0.22706933119E+00  0.65223863461E+01  0.17552078743E+02  0.18726146222E+02  0.00000000000E+00 0. -1.
         11    1    3    3    0    0  0.17458477301E+02 -0.75283155639E+01 -0.37782675144E+02  0.42296625234E+02  0.51100000000E-03 0.  1.
        -11    1    3    3    0    0 -0.16522144611E+02  0.44718930122E+01  0.11171147501E+02  0.20439511403E+02  0.51100000000E-03 0. -1.
        -12    1    3    3    0    0 -0.70926335840E+00 -0.34659637944E+01  0.90594488999E+01  0.97257171409E+01  0.00000000000E+00 0.  1.
</event>
<event>
 7    1  0.1333056E-013  0.7246156E+02  0.7816164E-02  0.1226708E+00
        -11   -1    0    0    0    0  0.00000000000E+00  0.00000000000E+00  0.45593999997E+02  0.45594000000E+02  0.51100000000E-03 0.  1.
         11   -1    0    0    0    0 -0.00000000000E+00 -0.00000000000E+00 -0.45593999997E+02  0.45594000000E+02  0.51100000000E-03 0. -1.
    9900012    2    1    2    0    0 -0.14817107149E+02 -0.17071261116E+01  0.11323364896E+02  0.72461560499E+02  0.69999987240E+02 0.  0.
         12    1    1    2    0    0  0.14817107149E+02  0.17071261116E+01 -0.11323364896E+02  0.18726439501E+02  0.00000000000E+00 0. -1.
         11    1    3    3    0    0 -0.22785194778E+02  0.75392734653E+01 -0.12768642142E+02  0.27185363118E+02  0.51100000000E-03 0. -1.
        -11    1    3    3    0    0 -0.67979088609E+01 -0.18471435829E+02  0.70338471795E+01  0.20901686843E+02  0.51100000000E-03 0.  1.
         12    1    3    3    0    0  0.14765996490E+02  0.92250362523E+01  0.17058159859E+02  0.24374510538E+02  0.00000000000E+00 0. -1.
</event>
<event>
 7    1  0.1333056E-013  0.7246206E+02  0.7816164E-02  0.1226707E+00
        -11   -1    0    0    0    0  0.00000000000E+00  0.00000000000E+00  0.45593999997E+02  0.45594000000E+02  0.51100000000E-03 0.  1.
         11   -1    0    0    0    0 -0.00000000000E+00 -0.00000000000E+00 -0.45593999997E+02  0.45594000000E+02  0.51100000000E-03 0. -1.
    9900012    2    1    2    0    0 -0.18354897139E+02  0.35606305999E+01 -0.10394715441E+01  0.72462059694E+02  0.70000637531E+02 0.  0.
         12    1    1    2    0    0  0.18354897139E+02 -0.35606305999E+01  0.10394715441E+01  0.18725940306E+02  0.00000000000E+00 0. -1.
         11    1    3    3    0    0 -0.21849030388E+02  0.10951018534E+02  0.21688004346E+01  0.24535864187E+02  0.51100000000E-03 0. -1.
        -11    1    3    3    0    0  0.24204702845E+02  0.10166544816E+01  0.37538414190E+01  0.24515149435E+02  0.51100000000E-03 0.  1.
        -12    1    3    3    0    0 -0.20710569596E+02 -0.84070424159E+01 -0.69621133976E+01  0.23411046071E+02  0.00000000000E+00 0.  1.
</event>
<event>
 7    1  0.1333056E-013  0.7246155E+02  0.7816164E-02  0.1226708E+00
        -11   -1    0    0    0    0  0.00000000000E+00  0.00000000000E+00  0.45593999997E+02  0.45594000000E+02  0.51100000000E-03 0.  1.
         11   -1    0    0    0    0 -0.00000000000E+00 -0.00000000000E+00 -0.45593999997E+02  0.45594000000E+02  0.51100000000E-03 0. -1.
    9900012    2    1    2    0    0  0.14881369835E+02  0.65321513371E+01  0.93035267400E+01  0.72461554020E+02  0.69999978799E+02 0.  0.
         12    1    1    2    0    0 -0.14881369835E+02 -0.65321513371E+01 -0.93035267400E+01  0.18726445980E+02  0.00000000000E+00 0. -1.
         11    1    3    3    0    0 -0.24472877582E+02 -0.86399507281E+01  0.29478234050E+01  0.26120110046E+02  0.51100000000E-03 0. -1.
        -11    1    3    3    0    0  0.23194083333E+02  0.16356199618E+02  0.93134111009E+01  0.29870225881E+02  0.51100000000E-03 0.  1.
         12    1    3    3    0    0  0.16160164084E+02 -0.11840975524E+01 -0.29577077658E+01  0.16471218093E+02  0.00000000000E+00 0. -1.
</event>
<event>
 7    1  0.1333056E-013  0.7246160E+02  0.7816164E-02  0.1226708E+00
        -11   -1    0    0    0    0  0.00000000000E+00  0.00000000000E+00  0.45593999997E+02  0.45594000000E+02  0.51100000000E-03 0.  1.
         11   -1    0    0    0    0 -0.00000000000E+00 -0.00000000000E+00 -0.45593999997E+02  0.45594000000E+02  0.51100000000E-03 0. -1.
    9900012    2    1    2    0    0 -0.18012272619E+02  0.19900566308E+00  0.51182511744E+01  0.72461599832E+02  0.70000038479E+02 0.  0.
         12    1    1    2    0    0  0.18012272619E+02 -0.19900566308E+00 -0.51182511744E+01  0.18726400168E+02  0.00000000000E+00 0. -1.
         11    1    3    3    0    0 -0.17520356014E+02 -0.32161849998E+02  0.83452951695E+00  0.36633917480E+02  0.51100000000E-03 0. -1.
        -11    1    3    3    0    0 -0.27542300134E+01  0.78652853240E+01  0.72549110794E+01  0.11049082823E+02  0.51100000000E-03 0.  1.
         12    1    3    3    0    0  0.22623134082E+01  0.24495570337E+02 -0.29711894219E+01  0.24778599530E+02  0.00000000000E+00 0. -1.
</event>
<event>
 7    1  0.1333056E-013  0.7246156E+02  0.7816164E-02  0.1226708E+00
        -11   -1    0    0    0    0  0.00000000000E+00  0.00000000000E+00  0.45593999997E+02  0.45594000000E+02  0.51100000000E-03 0.  1.
         11   -1    0    0    0    0 -0.00000000000E+00 -0.00000000000E+00 -0.45593999997E+02  0.45594000000E+02  0.51100000000E-03 0. -1.
    9900012    2    1    2    0    0  0.12659444429E+02 -0.45187309538E+01  0.13038372679E+02  0.72461558138E+02  0.69999984164E+02 0.  0.
         12    1    1    2    0    0 -0.12659444429E+02  0.45187309538E+01 -0.13038372679E+02  0.18726441862E+02  0.00000000000E+00 0. -1.
         11    1    3    3    0    0 -0.13266163102E+02  0.40602356631E+01  0.10946951923E+02  0.17672361296E+02  0.51100000000E-03 0.  1.
        -11    1    3    3    0    0  0.19024503317E+02 -0.25825288801E+02  0.11361431783E+02  0.34028802513E+02  0.51100000000E-03 0. -1.
        -12    1    3    3    0    0  0.69011042150E+01  0.17246322184E+02 -0.92700110266E+01  0.20760394329E+02  0.00000000000E+00 0.  1.
</event>
<event>
 7    1  0.2084454E-013  0.7246143E+02  0.7816164E-02  0.1226708E+00
        -11   -1    0    0    0    0  0.00000000000E+00  0.00000000000E+00  0.45593999997E+02  0.45594000000E+02  0.51100000000E-03 0. -1.
         11   -1    0    0    0    0 -0.00000000000E+00 -0.00000000000E+00 -0.45593999997E+02  0.45594000000E+02  0.51100000000E-03 0.  1.
    9900012    2    1    2    0    0 -0.14303796576E+01 -0.97779774884E+01 -0.15906900480E+02  0.72461432973E+02  0.69999821113E+02 0.  0.
         12    1    1    2    0    0  0.14303796576E+01  0.97779774884E+01  0.15906900480E+02  0.18726567027E+02  0.00000000000E+00 0. -1.
         11    1    3    3    0    0 -0.44117333656E+01 -0.20987359646E+02  0.15392315109E+02  0.26398030625E+02  0.51100000000E-03 0. -1.
        -11    1    3    3    0    0  0.81372513825E+01 -0.66673787655E+01 -0.23766990313E+02  0.25991125956E+02  0.51100000000E-03 0.  1.
        -12    1    3    3    0    0 -0.51558976745E+01  0.17876760923E+02 -0.75322252762E+01  0.20072276392E+02  0.00000000000E+00 0.  1.
</event>
<event>
 7    1  0.1333056E-013  0.7246146E+02  0.7816164E-02  0.1226708E+00
        -11   -1    0    0    0    0  0.00000000000E+00  0.00000000000E+00  0.45593999997E+02  0.45594000000E+02  0.51100000000E-03 0.  1.
         11   -1    0    0    0    0 -0.00000000000E+00 -0.00000000000E+00 -0.45593999997E+02  0.45594000000E+02  0.51100000000E-03 0. -1.
    9900012    2    1    2    0    0 -0.17412502344E+02  0.48466118896E+01 -0.48988054625E+01  0.72461463223E+02  0.69999860520E+02 0.  0.
         12    1    1    2    0    0  0.17412502344E+02 -0.48466118896E+01  0.48988054625E+01  0.18726536777E+02  0.00000000000E+00 0. -1.
         11    1    3    3    0    0  0.96377732551E+01  0.52458977226E+00  0.21462160452E+02  0.23532662393E+02  0.51100000000E-03 0. -1.
        -11    1    3    3    0    0 -0.15103782812E+02 -0.12494529058E+02 -0.75311646759E+01  0.20998951242E+02  0.51100000000E-03 0.  1.
         12    1    3    3    0    0 -0.11946492787E+02  0.16816551176E+02 -0.18829801239E+02  0.27929849589E+02  0.00000000000E+00 0. -1.
</event>
<event>
 7    1  0.1333056E-013  0.7246150E+02  0.7816164E-02  0.1226708E+00
        -11   -1    0    0    0    0  0.00000000000E+00  0.00000000000E+00  0.45593999997E+02  0.45594000000E+02  0.51100000000E-03 0. -1.
         11   -1    0    0    0    0 -0.00000000000E+00 -0.00000000000E+00 -0.45593999997E+02  0.45594000000E+02  0.51100000000E-03 0.  1.
    9900012    2    1    2    0    0  0.12567114203E+01  0.76618242131E+01 -0.17041090897E+02  0.72461503990E+02  0.69999913626E+02 0.  0.
         12    1    1    2    0    0 -0.12567114203E+01 -0.76618242131E+01  0.17041090897E+02  0.18726496010E+02  0.00000000000E+00 0. -1.
         11    1    3    3    0    0 -0.31688393783E+02  0.91673506537E+00 -0.22196515401E+01  0.31779263002E+02  0.51100000000E-03 0. -1.
        -11    1    3    3    0    0  0.24770475024E+02 -0.29820925086E+01 -0.76688235872E+01  0.26101344106E+02  0.51100000000E-03 0.  1.
        -12    1    3    3    0    0  0.81746301793E+01  0.97271816562E+01 -0.71526157694E+01  0.14580896882E+02  0.00000000000E+00 0.  1.
</event>
<event>
 7    1  0.1333056E-013  0.7246153E+02  0.7816164E-02  0.1226708E+00
        -11   -1    0    0    0    0  0.00000000000E+00  0.00000000000E+00  0.45593999997E+02  0.45594000000E+02  0.51100000000E-03 0.  1.
         11   -1    0    0    0    0 -0.00000000000E+00 -0.00000000000E+00 -0.45593999997E+02  0.45594000000E+02  0.51100000000E-03 0. -1.
    9900012    2    1    2    0    0  0.10259754391E+02 -0.15039411980E+02  0.43856714487E+01  0.72461532449E+02  0.69999950700E+02 0.  0.
         12    1    1    2    0    0 -0.10259754391E+02  0.15039411980E+02 -0.43856714487E+01  0.18726467551E+02  0.00000000000E+00 0. -1.
         11    1    3    3    0    0 -0.27192908741E+01 -0.21540112179E+02 -0.10058574567E+02  0.23927931338E+02  0.51100000000E-03 0. -1.
        -11    1    3    3    0    0  0.85536196707E+01  0.23127909565E+02  0.18534694557E+02  0.30848006627E+02  0.51100000000E-03 0.  1.
        -12    1    3    3    0    0  0.44254255944E+01 -0.16627209366E+02 -0.40904485411E+01  0.17685594484E+02  0.00000000000E+00 0.  1.
</event>
<event>
 7    1  0.1333056E-013  0.7246156E+02  0.7816164E-02  0.1226708E+00
        -11   -1    0    0    0    0  0.00000000000E+00  0.00000000000E+00  0.45593999997E+02  0.45594000000E+02  0.51100000000E-03 0. -1.
         11   -1    0    0    0    0 -0.00000000000E+00 -0.00000000000E+00 -0.45593999997E+02  0.45594000000E+02  0.51100000000E-03 0.  1.
    9900012    2    1    2    0    0 -0.14518730876E+02  0.10929723133E+02  0.45196221365E+01  0.72461564721E+02  0.69999992739E+02 0.  0.
         12    1    1    2    0    0  0.14518730876E+02 -0.10929723133E+02 -0.45196221365E+01  0.18726435279E+02  0.00000000000E+00 0. -1.
         11    1    3    3    0    0 -0.18814281457E+02 -0.23715975202E+02  0.16557444528E+02  0.34504690059E+02  0.51100000000E-03 0. -1.
        -11    1    3    3    0    0 -0.94406873780E+00  0.15473107389E+02 -0.18193023658E+01  0.15608272788E+02  0.51100000000E-03 0.  1.
         12    1    3    3    0    0  0.52396193196E+01  0.19172590946E+02 -0.10218520025E+02  0.22348601874E+02  0.00000000000E+00 0. -1.
</event>
<event>
 7    1  0.1333056E-013  0.7246174E+02  0.7816164E-02  0.1226708E+00
        -11   -1    0    0    0    0  0.00000000000E+00  0.00000000000E+00  0.45593999997E+02  0.45594000000E+02  0.51100000000E-03 0.  1.
         11   -1    0    0    0    0 -0.00000000000E+00 -0.00000000000E+00 -0.45593999997E+02  0.45594000000E+02  0.51100000000E-03 0. -1.
    9900012    2    1    2    0    0 -0.69591824972E+01  0.75980802774E+01  0.15636870801E+02  0.72461741074E+02  0.70000222471E+02 0.  0.
         12    1    1    2    0    0  0.69591824972E+01 -0.75980802774E+01 -0.15636870801E+02  0.18726258926E+02  0.00000000000E+00 0. -1.
         11    1    3    3    0    0  0.20570879548E+02  0.17353661007E+02 -0.12620268101E+02  0.29725103918E+02  0.51100000000E-03 0. -1.
        -11    1    3    3    0    0 -0.19891661206E+02 -0.30725269269E+00  0.18233203443E+02  0.26985594265E+02  0.51100000000E-03 0.  1.
        -12    1    3    3    0    0 -0.76384008391E+01 -0.94483280373E+01  0.10023935458E+02  0.15751042891E+02  0.00000000000E+00 0.  1.
</event>
<event>
 7    1  0.1333056E-013  0.7246160E+02  0.7816164E-02  0.1226708E+00
        -11   -1    0    0    0    0  0.00000000000E+00  0.00000000000E+00  0.45593999997E+02  0.45594000000E+02  0.51100000000E-03 0. -1.
         11   -1    0    0    0    0 -0.00000000000E+00 -0.00000000000E+00 -0.45593999997E+02  0.45594000000E+02  0.51100000000E-03 0.  1.
    9900012    2    1    2    0    0 -0.12450881563E+02 -0.10298222786E+02 -0.94657409593E+01  0.72461598953E+02  0.70000037333E+02 0.  0.
         12    1    1    2    0    0  0.12450881563E+02  0.10298222786E+02  0.94657409593E+01  0.18726401047E+02  0.00000000000E+00 0. -1.
         11    1    3    3    0    0  0.12082950694E+02 -0.15477863285E+02  0.16465370375E+02  0.25625580407E+02  0.51100000000E-03 0. -1.
        -11    1    3    3    0    0 -0.22301905311E+01 -0.88782384426E+01 -0.16437372744E+02  0.18814464931E+02  0.51100000000E-03 0.  1.
         12    1    3    3    0    0 -0.22303641727E+02  0.14057878941E+02 -0.94937385905E+01  0.28021553615E+02  0.00000000000E+00 0. -1.
</event>
<event>
 7    1  0.1333056E-013  0.7246156E+02  0.7816164E-02  0.1226708E+00
        -11   -1    0    0    0    0  0.00000000000E+00  0.00000000000E+00  0.45593999997E+02  0.45594000000E+02  0.51100000000E-03 0. -1.
         11   -1    0    0    0    0 -0.00000000000E+00 -0.00000000000E+00 -0.45593999997E+02  0.45594000000E+02  0.51100000000E-03 0.  1.
    9900012    2    1    2    0    0 -0.16153968207E+02  0.74206881158E+01 -0.58874709196E+01  0.72461558406E+02  0.69999984514E+02 0.  0.
         12    1    1    2    0    0  0.16153968207E+02 -0.74206881158E+01  0.58874709196E+01  0.18726441594E+02  0.00000000000E+00 0. -1.
         11    1    3    3    0    0 -0.21578381257E+02  0.62425057149E+01  0.28647713082E+02  0.36404489838E+02  0.51100000000E-03 0. -1.
        -11    1    3    3    0    0  0.42589029973E+01  0.48839139917E+01 -0.21717101559E+02  0.22663260379E+02  0.51100000000E-03 0.  1.
         12    1    3    3    0    0  0.11655100530E+01 -0.37057315908E+01 -0.12818082442E+02  0.13393808189E+02  0.00000000000E+00 0. -1.
</event>
<event>
 7    1  0.1333056E-013  0.7246154E+02  0.7816164E-02  0.1226708E+00
        -11   -1    0    0    0    0  0.00000000000E+00  0.00000000000E+00  0.45593999997E+02  0.45594000000E+02  0.51100000000E-03 0.  1.
         11   -1    0    0    0    0 -0.00000000000E+00 -0.00000000000E+00 -0.45593999997E+02  0.45594000000E+02  0.51100000000E-03 0. -1.
    9900012    2    1    2    0    0 -0.36709662996E+01 -0.72058850030E+01  0.16890220250E+02  0.72461539781E+02  0.69999960250E+02 0.  0.
         12    1    1    2    0    0  0.36709662996E+01  0.72058850030E+01 -0.16890220250E+02  0.18726460219E+02  0.00000000000E+00 0. -1.
         11    1    3    3    0    0  0.61426246337E+01  0.13651250054E+02  0.16193299909E+02  0.22052469876E+02  0.51100000000E-03 0. -1.
        -11    1    3    3    0    0  0.79896036105E+01 -0.26687216323E+02 -0.90512432735E+01  0.29291061538E+02  0.51100000000E-03 0.  1.
         12    1    3    3    0    0 -0.17803194544E+02  0.58300812667E+01  0.97481636143E+01  0.21118008367E+02  0.00000000000E+00 0. -1.
</event>
<event>
 7    1  0.1333056E-013  0.7246156E+02  0.7816164E-02  0.1226708E+00
        -11   -1    0    0    0    0  0.00000000000E+00  0.00000000000E+00  0.45593999997E+02  0.45594000000E+02  0.51100000000E-03 0.  1.
         11   -1    0    0    0    0 -0.00000000000E+00 -0.00000000000E+00 -0.45593999997E+02  0.45594000000E+02  0.51100000000E-03 0. -1.
    9900012    2    1    2    0    0 -0.33476908295E+01  0.97695370476E+01  0.15621422802E+02  0.72461555106E+02  0.69999980214E+02 0.  0.
         12    1    1    2    0    0  0.33476908295E+01 -0.97695370476E+01 -0.15621422802E+02  0.18726444894E+02  0.00000000000E+00 0. -1.
         11    1    3    3    0    0  0.84072327353E+01 -0.85145348716E+00 -0.32311314831E+01  0.90469191567E+01  0.51100000000E-03 0. -1.
        -11    1    3    3    0    0 -0.21353905792E+02  0.13876388799E+02 -0.13981187634E+02  0.29051971820E+02  0.51100000000E-03 0.  1.
        -12    1    3    3    0    0  0.95989822273E+01 -0.32553982642E+01  0.32833741919E+02  0.34362664130E+02  0.00000000000E+00 0.  1.
</event>
<event>
 7    1  0.1333056E-013  0.7246159E+02  0.7816164E-02  0.1226708E+00
        -11   -1    0    0    0    0  0.00000000000E+00  0.00000000000E+00  0.45593999997E+02  0.45594000000E+02  0.51100000000E-03 0. -1.
         11   -1    0    0    0    0 -0.00000000000E+00 -0.00000000000E+00 -0.45593999997E+02  0.45594000000E+02  0.51100000000E-03 0.  1.
    9900012    2    1    2    0    0  0.12134897606E+02  0.34766364938E+01 -0.13832419655E+02  0.72461586176E+02  0.70000020688E+02 0.  0.
         12    1    1    2    0    0 -0.12134897606E+02 -0.34766364938E+01  0.13832419655E+02  0.18726413824E+02  0.00000000000E+00 0. -1.
         11    1    3    3    0    0 -0.37339137363E+01  0.44084882402E+01 -0.36618771535E+02  0.37071704970E+02  0.51100000000E-03 0.  1.
        -11    1    3    3    0    0  0.17271277244E+02 -0.78102162738E+01  0.11722976280E+02  0.22287320813E+02  0.51100000000E-03 0. -1.
        -12    1    3    3    0    0 -0.14024659016E+01  0.68783645274E+01  0.11063375600E+02  0.13102560393E+02  0.00000000000E+00 0.  1.
</event>
<event>
 7    1  0.1333056E-013  0.7246156E+02  0.7816164E-02  0.1226708E+00
        -11   -1    0    0    0    0  0.00000000000E+00  0.00000000000E+00  0.45593999997E+02  0.45594000000E+02  0.51100000000E-03 0. -1.
         11   -1    0    0    0    0 -0.00000000000E+00 -0.00000000000E+00 -0.45593999997E+02  0.45594000000E+02  0.51100000000E-03 0.  1.
    9900012    2    1    2    0    0 -0.15262766263E+02  0.92211661631E+01  0.57181937427E+01  0.72461556689E+02  0.69999982276E+02 0.  0.
         12    1    1    2    0    0  0.15262766263E+02 -0.92211661631E+01 -0.57181937427E+01  0.18726443311E+02  0.00000000000E+00 0. -1.
         11    1    3    3    0    0  0.11005944792E+02  0.78692869663E-01  0.13975899789E+02  0.17789401016E+02  0.51100000000E-03 0. -1.
        -11    1    3    3    0    0 -0.36700740591E+02  0.10281508047E+02  0.42446924292E+01  0.38349330917E+02  0.51100000000E-03 0.  1.
         12    1    3    3    0    0  0.10432029536E+02 -0.11390347540E+01 -0.12502398475E+02  0.16322824757E+02  0.00000000000E+00 0. -1.
</event>
<event>
 7    1  0.1333056E-013  0.7246155E+02  0.7816164E-02  0.1226708E+00
        -11   -1    0    0    0    0  0.00000000000E+00  0.00000000000E+00  0.45593999997E+02  0.45594000000E+02  0.51100000000E-03 0. -1.
         11   -1    0    0    0    0 -0.00000000000E+00 -0.00000000000E+00 -0.45593999997E+02  0.45594000000E+02  0.51100000000E-03 0.  1.
    9900012    2    1    2    0    0 -0.98193123058E+01  0.14824076188E+02 -0.58743485162E+01  0.72461545464E+02  0.69999967654E+02 0.  0.
         12    1    1    2    0    0  0.98193123058E+01 -0.14824076188E+02  0.58743485162E+01  0.18726454536E+02  0.00000000000E+00 0. -1.
         11    1    3    3    0    0  0.17672039935E+02 -0.12750399044E+02  0.10974290838E+02  0.24398949381E+02  0.51100000000E-03 0. -1.
        -11    1    3    3    0    0 -0.21474679789E+02  0.60418018950E+01 -0.11392304021E+02  0.25048948748E+02  0.51100000000E-03 0.  1.
         12    1    3    3    0    0 -0.60166724516E+01  0.21532673337E+02 -0.54563353340E+01  0.23013647336E+02  0.00000000000E+00 0. -1.
</event>
<event>
 7    1  0.1333056E-013  0.7246150E+02  0.7816164E-02  0.1226708E+00
        -11   -1    0    0    0    0  0.00000000000E+00  0.00000000000E+00  0.45593999997E+02  0.45594000000E+02  0.51100000000E-03 0.  1.
         11   -1    0    0    0    0 -0.00000000000E+00 -0.00000000000E+00 -0.45593999997E+02  0.45594000000E+02  0.51100000000E-03 0. -1.
    9900012    2    1    2    0    0  0.12739607135E+02 -0.11431310253E+02  0.75966738640E+01  0.72461497447E+02  0.69999905103E+02 0.  0.
         12    1    1    2    0    0 -0.12739607135E+02  0.11431310253E+02 -0.75966738640E+01  0.18726502553E+02  0.00000000000E+00 0. -1.
         11    1    3    3    0    0 -0.88109714112E+01 -0.25250817817E+02 -0.58623288845E+01  0.27378895482E+02  0.51100000000E-03 0. -1.
        -11    1    3    3    0    0  0.86329992818E+01 -0.25522668409E+01  0.21046468000E+02  0.22890971106E+02  0.51100000000E-03 0.  1.
         12    1    3    3    0    0  0.12917579265E+02  0.16371774405E+02 -0.75874652519E+01  0.22191630859E+02  0.00000000000E+00 0. -1.
</event>
<event>
 7    1  0.1333056E-013  0.7246181E+02  0.7816164E-02  0.1226707E+00
        -11   -1    0    0    0    0  0.00000000000E+00  0.00000000000E+00  0.45593999997E+02  0.45594000000E+02  0.51100000000E-03 0. -1.
         11   -1    0    0    0    0 -0.00000000000E+00 -0.00000000000E+00 -0.45593999997E+02  0.45594000000E+02  0.51100000000E-03 0.  1.
    9900012    2    1    2    0    0  0.16346417213E+02 -0.70992710236E+01 -0.57502258895E+01  0.72461812386E+02  0.70000315369E+02 0.  0.
         12    1    1    2    0    0 -0.16346417213E+02  0.70992710236E+01  0.57502258895E+01  0.18726187614E+02  0.00000000000E+00 0. -1.
         11    1    3    3    0    0 -0.18181601730E+02  0.40437870274E+01  0.11514459584E+02  0.21897617103E+02  0.51100000000E-03 0. -1.
        -11    1    3    3    0    0  0.58591741827E+01 -0.15643952537E+02 -0.13137400450E+02  0.21252163748E+02  0.51100000000E-03 0.  1.
         12    1    3    3    0    0  0.28668844761E+02  0.45008944865E+01 -0.41272850228E+01  0.29312031536E+02  0.00000000000E+00 0. -1.
</event>
<event>
 7    1  0.1333056E-013  0.7246162E+02  0.7816164E-02  0.1226708E+00
        -11   -1    0    0    0    0  0.00000000000E+00  0.00000000000E+00  0.45593999997E+02  0.45594000000E+02  0.51100000000E-03 0.  1.
         11   -1    0    0    0    0 -0.00000000000E+00 -0.00000000000E+00 -0.45593999997E+02  0.45594000000E+02  0.51100000000E-03 0. -1.
    9900012    2    1    2    0    0  0.11071574786E+02 -0.14522893203E+02 -0.41452646442E+01  0.72461617162E+02  0.70000061054E+02 0.  0.
         12    1    1    2    0    0 -0.11071574786E+02  0.14522893203E+02  0.41452646442E+01  0.18726382838E+02  0.00000000000E+00 0. -1.
         11    1    3    3    0    0  0.20037692789E+02 -0.21044457899E+02  0.17141531512E+02  0.33737374578E+02  0.51100000000E-03 0. -1.
        -11    1    3    3    0    0 -0.17085445552E+02  0.11820558099E+02 -0.79707147800E+01  0.22252423191E+02  0.51100000000E-03 0.  1.
        -12    1    3    3    0    0  0.81193275485E+01 -0.52989934028E+01 -0.13316081376E+02  0.16471819393E+02  0.00000000000E+00 0.  1.
</event>
<event>
 7    1  0.1333056E-013  0.7246159E+02  0.7816164E-02  0.1226708E+00
        -11   -1    0    0    0    0  0.00000000000E+00  0.00000000000E+00  0.45593999997E+02  0.45594000000E+02  0.51100000000E-03 0. -1.
         11   -1    0    0    0    0 -0.00000000000E+00 -0.00000000000E+00 -0.45593999997E+02  0.45594000000E+02  0.51100000000E-03 0.  1.
    9900012    2    1    2    0    0 -0.10029029356E+02  0.15612013746E+02 -0.25222720528E+01  0.72461594597E+02  0.70000031659E+02 0.  0.
         12    1    1    2    0    0  0.10029029356E+02 -0.15612013746E+02  0.25222720528E+01  0.18726405403E+02  0.00000000000E+00 0. -1.
         11    1    3    3    0    0 -0.29034411519E+02  0.23739079474E+02  0.56984584747E+00  0.37508208050E+02  0.51100000000E-03 0. -1.
        -11    1    3    3    0    0  0.87194549021E+01 -0.27192990415E+01  0.12515967380E+02  0.15494286715E+02  0.51100000000E-03 0.  1.
        -12    1    3    3    0    0  0.10285927262E+02 -0.54077666869E+01 -0.15608085281E+02  0.19459099833E+02  0.00000000000E+00 0.  1.
</event>
<event>
 7    1  0.1333056E-013  0.7246150E+02  0.7816164E-02  0.1226708E+00
        -11   -1    0    0    0    0  0.00000000000E+00  0.00000000000E+00  0.45593999997E+02  0.45594000000E+02  0.51100000000E-03 0. -1.
         11   -1    0    0    0    0 -0.00000000000E+00 -0.00000000000E+00 -0.45593999997E+02  0.45594000000E+02  0.51100000000E-03 0.  1.
    9900012    2    1    2    0    0  0.64860850631E+01  0.75558929436E+00 -0.17551114582E+02  0.72461499054E+02  0.69999907196E+02 0.  0.
         12    1    1    2    0    0 -0.64860850631E+01 -0.75558929436E+00  0.17551114582E+02  0.18726500946E+02  0.00000000000E+00 0. -1.
         11    1    3    3    0    0 -0.45221972522E+00 -0.19494724829E+02  0.10003463222E+02  0.21916160146E+02  0.51100000000E-03 0. -1.
        -11    1    3    3    0    0  0.20664340591E+02  0.53778731525E+01 -0.92981330516E+01  0.23289305919E+02  0.51100000000E-03 0.  1.
         12    1    3    3    0    0 -0.13726035802E+02  0.14872440971E+02 -0.18256444752E+02  0.27256032989E+02  0.00000000000E+00 0. -1.
</event>
<event>
 7    1  0.1333056E-013  0.7246157E+02  0.7816164E-02  0.1226708E+00
        -11   -1    0    0    0    0  0.00000000000E+00  0.00000000000E+00  0.45593999997E+02  0.45594000000E+02  0.51100000000E-03 0.  1.
         11   -1    0    0    0    0 -0.00000000000E+00 -0.00000000000E+00 -0.45593999997E+02  0.45594000000E+02  0.51100000000E-03 0. -1.
    9900012    2    1    2    0    0 -0.30007328661E+01 -0.60886368450E+01  0.17452887774E+02  0.72461569800E+02  0.69999999357E+02 0.  0.
         12    1    1    2    0    0  0.30007328661E+01  0.60886368450E+01 -0.17452887774E+02  0.18726430200E+02  0.00000000000E+00 0. -1.
         11    1    3    3    0    0 -0.10119350315E+02 -0.34059138442E+02  0.21073817343E+02  0.41310191719E+02  0.51100000000E-03 0.  1.
        -11    1    3    3    0    0  0.10142892570E+02  0.21287803771E+02 -0.32862790951E+01  0.23808580169E+02  0.51100000000E-03 0. -1.
        -12    1    3    3    0    0 -0.30242751211E+01  0.66826978262E+01 -0.33465047349E+00  0.73427979125E+01  0.00000000000E+00 0.  1.
</event>
<event>
 7    1  0.1333056E-013  0.7246149E+02  0.7816164E-02  0.1226708E+00
        -11   -1    0    0    0    0  0.00000000000E+00  0.00000000000E+00  0.45593999997E+02  0.45594000000E+02  0.51100000000E-03 0. -1.
         11   -1    0    0    0    0 -0.00000000000E+00 -0.00000000000E+00 -0.45593999997E+02  0.45594000000E+02  0.51100000000E-03 0.  1.
    9900012    2    1    2    0    0  0.55262174535E+01 -0.13616394743E+01 -0.17840657731E+02  0.72461489122E+02  0.69999894258E+02 0.  0.
         12    1    1    2    0    0 -0.55262174535E+01  0.13616394743E+01  0.17840657731E+02  0.18726510878E+02  0.00000000000E+00 0. -1.
         11    1    3    3    0    0  0.16827323284E+02  0.20606057583E+02 -0.17636856974E+02  0.31919071763E+02  0.51100000000E-03 0. -1.
        -11    1    3    3    0    0 -0.22464391855E+02 -0.13662382702E+02 -0.26099202731E+01  0.26421984910E+02  0.51100000000E-03 0.  1.
         12    1    3    3    0    0  0.11163286025E+02 -0.83053143552E+01  0.24061195159E+01  0.14120432448E+02  0.00000000000E+00 0. -1.
</event>
<event>
 7    1  0.1333056E-013  0.7246158E+02  0.7816164E-02  0.1226708E+00
        -11   -1    0    0    0    0  0.00000000000E+00  0.00000000000E+00  0.45593999997E+02  0.45594000000E+02  0.51100000000E-03 0. -1.
         11   -1    0    0    0    0 -0.00000000000E+00 -0.00000000000E+00 -0.45593999997E+02  0.45594000000E+02  0.51100000000E-03 0.  1.
    9900012    2    1    2    0    0 -0.17611541624E+02  0.39174148070E+01  0.50166106140E+01  0.72461576978E+02  0.70000008706E+02 0.  0.
         12    1    1    2    0    0  0.17611541624E+02 -0.39174148070E+01 -0.50166106140E+01  0.18726423022E+02  0.00000000000E+00 0. -1.
         11    1    3    3    0    0 -0.96228184165E+01  0.14383295398E+02  0.26996362989E+02  0.32066827652E+02  0.51100000000E-03 0. -1.
        -11    1    3    3    0    0 -0.85450611689E+01  0.10132924535E+02 -0.94390075845E+01  0.16272341394E+02  0.51100000000E-03 0.  1.
         12    1    3    3    0    0  0.55633796117E+00 -0.20598805125E+02 -0.12540744790E+02  0.24122407932E+02  0.00000000000E+00 0. -1.
</event>
<event>
 7    1  0.1333056E-013  0.7246158E+02  0.7816164E-02  0.1226708E+00
        -11   -1    0    0    0    0  0.00000000000E+00  0.00000000000E+00  0.45593999997E+02  0.45594000000E+02  0.51100000000E-03 0.  1.
         11   -1    0    0    0    0 -0.00000000000E+00 -0.00000000000E+00 -0.45593999997E+02  0.45594000000E+02  0.51100000000E-03 0. -1.
    9900012    2    1    2    0    0  0.16340781556E+02 -0.55662279502E+01  0.72577386488E+01  0.72461580007E+02  0.70000012652E+02 0.  0.
         12    1    1    2    0    0 -0.16340781556E+02  0.55662279502E+01 -0.72577386488E+01  0.18726419993E+02  0.00000000000E+00 0. -1.
         11    1    3    3    0    0  0.36188187288E+02 -0.27293403367E+01  0.18443783216E+01  0.36337803036E+02  0.51100000000E-03 0.  1.
        -11    1    3    3    0    0 -0.56865860665E+01 -0.34781981183E+01 -0.11965427237E+02  0.13696954861E+02  0.51100000000E-03 0. -1.
         12    1    3    3    0    0 -0.14160819665E+02  0.64131050479E+00  0.17378787564E+02  0.22426822110E+02  0.00000000000E+00 0. -1.
</event>
<event>
 7    1  0.1333056E-013  0.7246156E+02  0.7816164E-02  0.1226708E+00
        -11   -1    0    0    0    0  0.00000000000E+00  0.00000000000E+00  0.45593999997E+02  0.45594000000E+02  0.51100000000E-03 0. -1.
         11   -1    0    0    0    0 -0.00000000000E+00 -0.00000000000E+00 -0.45593999997E+02  0.45594000000E+02  0.51100000000E-03 0.  1.
    9900012    2    1    2    0    0  0.99282933390E+01  0.12897697702E+02 -0.92605488968E+01  0.72461564661E+02  0.69999992662E+02 0.  0.
         12    1    1    2    0    0 -0.99282933390E+01 -0.12897697702E+02  0.92605488968E+01  0.18726435339E+02  0.00000000000E+00 0. -1.
         11    1    3    3    0    0  0.77300215807E+01  0.14420922764E+02  0.20405344747E+02  0.26155197218E+02  0.51100000000E-03 0. -1.
        -11    1    3    3    0    0 -0.64315182160E+01 -0.78036654771E+01  0.40862760986E+01  0.10906845284E+02  0.51100000000E-03 0.  1.
         12    1    3    3    0    0  0.86297899743E+01  0.62804404146E+01 -0.33752169742E+02  0.35399522159E+02  0.00000000000E+00 0. -1.
</event>
<event>
 7    1  0.1333056E-013  0.7246155E+02  0.7816164E-02  0.1226708E+00
        -11   -1    0    0    0    0  0.00000000000E+00  0.00000000000E+00  0.45593999997E+02  0.45594000000E+02  0.51100000000E-03 0.  1.
         11   -1    0    0    0    0 -0.00000000000E+00 -0.00000000000E+00 -0.45593999997E+02  0.45594000000E+02  0.51100000000E-03 0. -1.
    9900012    2    1    2    0    0  0.15934292777E+01  0.79624983845E+01  0.16874221468E+02  0.72461554862E+02  0.69999979896E+02 0.  0.
         12    1    1    2    0    0 -0.15934292777E+01 -0.79624983845E+01 -0.16874221468E+02  0.18726445138E+02  0.00000000000E+00 0. -1.
         11    1    3    3    0    0 -0.60250639159E+01  0.93101211915E+01 -0.18199001191E+02  0.21311578928E+02  0.51100000000E-03 0. -1.
        -11    1    3    3    0    0 -0.14336785728E+02 -0.21508867806E+01  0.19139838074E+02  0.24010479810E+02  0.51100000000E-03 0.  1.
         12    1    3    3    0    0  0.21955278922E+02  0.80326397360E+00  0.15933384584E+02  0.27139496124E+02  0.00000000000E+00 0. -1.
</event>
<event>
 7    1  0.1333056E-013  0.7246141E+02  0.7816164E-02  0.1226708E+00
        -11   -1    0    0    0    0  0.00000000000E+00  0.00000000000E+00  0.45593999997E+02  0.45594000000E+02  0.51100000000E-03 0.  1.
         11   -1    0    0    0    0 -0.00000000000E+00 -0.00000000000E+00 -0.45593999997E+02  0.45594000000E+02  0.51100000000E-03 0. -1.
    9900012    2    1    2    0    0  0.49007737053E+00 -0.35281958059E+01  0.18384685394E+02  0.72461414659E+02  0.69999797256E+02 0.  0.
         12    1    1    2    0    0 -0.49007737053E+00  0.35281958059E+01 -0.18384685394E+02  0.18726585341E+02  0.00000000000E+00 0. -1.
         11    1    3    3    0    0 -0.58063023193E+01 -0.31173019652E+02  0.17439201645E+02  0.36188341426E+02  0.51100000000E-03 0. -1.
        -11    1    3    3    0    0  0.10910234082E+02  0.17349121192E+02  0.90275772838E+01  0.22394695035E+02  0.51100000000E-03 0.  1.
         12    1    3    3    0    0 -0.46138543920E+01  0.10295702654E+02 -0.80820935349E+01  0.13878378198E+02  0.00000000000E+00 0. -1.
</event>
<event>
 7    1  0.1333056E-013  0.7246146E+02  0.7816164E-02  0.1226708E+00
        -11   -1    0    0    0    0  0.00000000000E+00  0.00000000000E+00  0.45593999997E+02  0.45594000000E+02  0.51100000000E-03 0. -1.
         11   -1    0    0    0    0 -0.00000000000E+00 -0.00000000000E+00 -0.45593999997E+02  0.45594000000E+02  0.51100000000E-03 0.  1.
    9900012    2    1    2    0    0 -0.16515396984E+02 -0.57675381276E+01 -0.66828563238E+01  0.72461457280E+02  0.69999852778E+02 0.  0.
         12    1    1    2    0    0  0.16515396984E+02  0.57675381276E+01  0.66828563238E+01  0.18726542720E+02  0.00000000000E+00 0. -1.
         11    1    3    3    0    0 -0.14205118854E+01  0.11980572488E+01  0.19651752345E+02  0.19739416549E+02  0.51100000000E-03 0. -1.
        -11    1    3    3    0    0  0.22958939350E+01 -0.12599658183E+02 -0.31266487517E+02  0.33787804859E+02  0.51100000000E-03 0.  1.
         12    1    3    3    0    0 -0.17390779033E+02  0.56340628067E+01  0.49318788481E+01  0.18934235872E+02  0.00000000000E+00 0. -1.
</event>
<event>
 7    1  0.1333056E-013  0.7246161E+02  0.7816164E-02  0.1226708E+00
        -11   -1    0    0    0    0  0.00000000000E+00  0.00000000000E+00  0.45593999997E+02  0.45594000000E+02  0.51100000000E-03 0.  1.
         11   -1    0    0    0    0 -0.00000000000E+00 -0.00000000000E+00 -0.45593999997E+02  0.45594000000E+02  0.51100000000E-03 0. -1.
    9900012    2    1    2    0    0 -0.17700865498E+02  0.19953932834E+01 -0.57771445920E+01  0.72461611310E+02  0.70000053430E+02 0.  0.
         12    1    1    2    0    0  0.17700865498E+02 -0.19953932834E+01  0.57771445920E+01  0.18726388690E+02  0.00000000000E+00 0. -1.
         11    1    3    3    0    0  0.16215161638E+02 -0.13481144643E+02 -0.14780349812E+02  0.25751339163E+02  0.51100000000E-03 0. -1.
        -11    1    3    3    0    0 -0.21022792923E+02  0.19003290998E+02 -0.33163780830E+01  0.28532109191E+02  0.51100000000E-03 0.  1.
         12    1    3    3    0    0 -0.12893234213E+02 -0.35267530714E+01  0.12319583303E+02  0.18178162956E+02  0.00000000000E+00 0. -1.
</event>
<event>
 7    1  0.1333056E-013  0.7246157E+02  0.7816164E-02  0.1226708E+00
        -11   -1    0    0    0    0  0.00000000000E+00  0.00000000000E+00  0.45593999997E+02  0.45594000000E+02  0.51100000000E-03 0.  1.
         11   -1    0    0    0    0 -0.00000000000E+00 -0.00000000000E+00 -0.45593999997E+02  0.45594000000E+02  0.51100000000E-03 0. -1.
    9900012    2    1    2    0    0 -0.11188178288E+02 -0.10846492556E+02  0.10385441702E+02  0.72461571256E+02  0.70000001253E+02 0.  0.
         12    1    1    2    0    0  0.11188178288E+02  0.10846492556E+02 -0.10385441702E+02  0.18726428744E+02  0.00000000000E+00 0. -1.
         11    1    3    3    0    0 -0.55472941596E+01  0.74950962655E+00 -0.15148442872E+02  0.16149599341E+02  0.51100000000E-03 0. -1.
        -11    1    3    3    0    0  0.89764020014E+01  0.13846452059E+02  0.20862871806E+02  0.26599989620E+02  0.51100000000E-03 0.  1.
        -12    1    3    3    0    0 -0.14617286130E+02 -0.25442454241E+02  0.46710127679E+01  0.29711982295E+02  0.00000000000E+00 0.  1.
</event>
<event>
 7    1  0.1333056E-013  0.7246155E+02  0.7816164E-02  0.1226708E+00
        -11   -1    0    0    0    0  0.00000000000E+00  0.00000000000E+00  0.45593999997E+02  0.45594000000E+02  0.51100000000E-03 0.  1.
         11   -1    0    0    0    0 -0.00000000000E+00 -0.00000000000E+00 -0.45593999997E+02  0.45594000000E+02  0.51100000000E-03 0. -1.
    9900012    2    1    2    0    0  0.13130859558E+02 -0.12264726155E+02  0.52760655345E+01  0.72461552181E+02  0.69999976404E+02 0.  0.
         12    1    1    2    0    0 -0.13130859558E+02  0.12264726155E+02 -0.52760655345E+01  0.18726447819E+02  0.00000000000E+00 0. -1.
         11    1    3    3    0    0 -0.42732077630E+01  0.65929561825E+01 -0.16855406692E+02  0.18596561801E+02  0.51100000000E-03 0. -1.
        -11    1    3    3    0    0  0.13864150105E+02 -0.27370407208E+02  0.29116706244E+02  0.42298184732E+02  0.51100000000E-03 0.  1.
        -12    1    3    3    0    0  0.35399172159E+01  0.85127248709E+01 -0.69852340171E+01  0.11566805648E+02  0.00000000000E+00 0.  1.
</event>
<event>
 7    1  0.1333056E-013  0.7246155E+02  0.7816164E-02  0.1226708E+00
        -11   -1    0    0    0    0  0.00000000000E+00  0.00000000000E+00  0.45593999997E+02  0.45594000000E+02  0.51100000000E-03 0. -1.
         11   -1    0    0    0    0 -0.00000000000E+00 -0.00000000000E+00 -0.45593999997E+02  0.45594000000E+02  0.51100000000E-03 0.  1.
    9900012    2    1    2    0    0 -0.75840411843E+01 -0.13900241062E+02 -0.99972798673E+01  0.72461548467E+02  0.69999971566E+02 0.  0.
         12    1    1    2    0    0  0.75840411843E+01  0.13900241062E+02  0.99972798673E+01  0.18726451533E+02  0.00000000000E+00 0. -1.
         11    1    3    3    0    0 -0.17234122480E+00 -0.58977053519E-01 -0.25505452422E+02  0.25506102864E+02  0.51100000000E-03 0. -1.
        -11    1    3    3    0    0  0.17695883728E+01  0.13838008995E+02  0.10277726185E+02  0.17327827092E+02  0.51100000000E-03 0.  1.
         12    1    3    3    0    0 -0.91812883323E+01 -0.27679273003E+02  0.52304463694E+01  0.29627618511E+02  0.00000000000E+00 0. -1.
</event>
<event>
 7    1  0.1333056E-013  0.7246151E+02  0.7816164E-02  0.1226708E+00
        -11   -1    0    0    0    0  0.00000000000E+00  0.00000000000E+00  0.45593999997E+02  0.45594000000E+02  0.51100000000E-03 0. -1.
         11   -1    0    0    0    0 -0.00000000000E+00 -0.00000000000E+00 -0.45593999997E+02  0.45594000000E+02  0.51100000000E-03 0.  1.
    9900012    2    1    2    0    0  0.14301778643E+02  0.49053734032E+01 -0.11048883548E+02  0.72461511054E+02  0.69999922829E+02 0.  0.
         12    1    1    2    0    0 -0.14301778643E+02 -0.49053734032E+01  0.11048883548E+02  0.18726488946E+02  0.00000000000E+00 0. -1.
         11    1    3    3    0    0 -0.10258855589E+01  0.65562171904E+01  0.54722492520E+01  0.86012753220E+01  0.51100000000E-03 0. -1.
        -11    1    3    3    0    0 -0.27968261277E+01 -0.18209863004E+02 -0.30482969251E+02  0.35617871380E+02  0.51100000000E-03 0.  1.
        -12    1    3    3    0    0  0.18124490329E+02  0.16559019217E+02  0.13961836450E+02  0.28242364352E+02  0.00000000000E+00 0.  1.
</event>
<event>
 7    1  0.1333056E-013  0.7246162E+02  0.7816164E-02  0.1226708E+00
        -11   -1    0    0    0    0  0.00000000000E+00  0.00000000000E+00  0.45593999997E+02  0.45594000000E+02  0.51100000000E-03 0.  1.
         11   -1    0    0    0    0 -0.00000000000E+00 -0.00000000000E+00 -0.45593999997E+02  0.45594000000E+02  0.51100000000E-03 0. -1.
    9900012    2    1    2    0    0 -0.16631646527E+02 -0.77939737991E+01  0.36496206488E+01  0.72461616883E+02  0.70000060690E+02 0.  0.
         12    1    1    2    0    0  0.16631646527E+02  0.77939737991E+01 -0.36496206488E+01  0.18726383117E+02  0.00000000000E+00 0. -1.
         11    1    3    3    0    0  0.10076875772E+02 -0.16273498507E+02 -0.13500213495E+02  0.23422765500E+02  0.51100000000E-03 0. -1.
        -11    1    3    3    0    0 -0.21835694167E+02  0.21707133381E+02  0.67490878781E+01  0.31520586397E+02  0.51100000000E-03 0.  1.
         12    1    3    3    0    0 -0.48728281321E+01 -0.13227608674E+02  0.10400746266E+02  0.17518264986E+02  0.00000000000E+00 0. -1.
</event>
<event>
 7    1  0.1333056E-013  0.7246147E+02  0.7816164E-02  0.1226708E+00
        -11   -1    0    0    0    0  0.00000000000E+00  0.00000000000E+00  0.45593999997E+02  0.45594000000E+02  0.51100000000E-03 0.  1.
         11   -1    0    0    0    0 -0.00000000000E+00 -0.00000000000E+00 -0.45593999997E+02  0.45594000000E+02  0.51100000000E-03 0. -1.
    9900012    2    1    2    0    0 -0.95899572840E+01 -0.91171440393E+01  0.13251156601E+02  0.72461474764E+02  0.69999875554E+02 0.  0.
         12    1    1    2    0    0  0.95899572840E+01  0.91171440393E+01 -0.13251156601E+02  0.18726525236E+02  0.00000000000E+00 0. -1.
         11    1    3    3    0    0 -0.18621092331E+02 -0.11815635277E+02 -0.24197344549E+02  0.32739361632E+02  0.51100000000E-03 0. -1.
        -11    1    3    3    0    0  0.84610957894E+00 -0.36368486719E+00  0.21634308340E+02  0.21653901859E+02  0.51100000000E-03 0.  1.
        -12    1    3    3    0    0  0.81850254676E+01  0.30621761053E+01  0.15814192810E+02  0.18068211274E+02  0.00000000000E+00 0.  1.
</event>
<event>
 7    1  0.1333056E-013  0.7246149E+02  0.7816164E-02  0.1226708E+00
        -11   -1    0    0    0    0  0.00000000000E+00  0.00000000000E+00  0.45593999997E+02  0.45594000000E+02  0.51100000000E-03 0.  1.
         11   -1    0    0    0    0 -0.00000000000E+00 -0.00000000000E+00 -0.45593999997E+02  0.45594000000E+02  0.51100000000E-03 0. -1.
    9900012    2    1    2    0    0 -0.14079405684E+02  0.67986955391E+01  0.10306807650E+02  0.72461489130E+02  0.69999894268E+02 0.  0.
         12    1    1    2    0    0  0.14079405684E+02 -0.67986955391E+01 -0.10306807650E+02  0.18726510870E+02  0.00000000000E+00 0. -1.
         11    1    3    3    0    0 -0.25089109722E+02 -0.15386567634E+02  0.28333862142E+02  0.40853612255E+02  0.51100000000E-03 0. -1.
        -11    1    3    3    0    0  0.24053743283E+01  0.62474512192E+01 -0.10372396577E+01  0.67743884421E+01  0.51100000000E-03 0.  1.
         12    1    3    3    0    0  0.86043297102E+01  0.15937811954E+02 -0.16989814834E+02  0.24833488432E+02  0.00000000000E+00 0. -1.
</event>
<event>
 7    1  0.1333056E-013  0.7246154E+02  0.7816164E-02  0.1226708E+00
        -11   -1    0    0    0    0  0.00000000000E+00  0.00000000000E+00  0.45593999997E+02  0.45594000000E+02  0.51100000000E-03 0. -1.
         11   -1    0    0    0    0 -0.00000000000E+00 -0.00000000000E+00 -0.45593999997E+02  0.45594000000E+02  0.51100000000E-03 0.  1.
    9900012    2    1    2    0    0  0.53700456789E+01 -0.17421810422E+02 -0.42805815887E+01  0.72461541506E+02  0.69999962498E+02 0.  0.
         12    1    1    2    0    0 -0.53700456789E+01  0.17421810422E+02  0.42805815887E+01  0.18726458494E+02  0.00000000000E+00 0. -1.
         11    1    3    3    0    0  0.97844909108E+00  0.15191662745E+02  0.70938794156E+01  0.16794853527E+02  0.51100000000E-03 0.  1.
        -11    1    3    3    0    0  0.23645806729E+02 -0.18186744266E+02 -0.10385267458E+02  0.31586953371E+02  0.51100000000E-03 0. -1.
        -12    1    3    3    0    0 -0.19254210141E+02 -0.14426728901E+02 -0.98919354637E+00  0.24079734608E+02  0.00000000000E+00 0.  1.
</event>
<event>
 7    1  0.1333056E-013  0.7246157E+02  0.7816164E-02  0.1226708E+00
        -11   -1    0    0    0    0  0.00000000000E+00  0.00000000000E+00  0.45593999997E+02  0.45594000000E+02  0.51100000000E-03 0.  1.
         11   -1    0    0    0    0 -0.00000000000E+00 -0.00000000000E+00 -0.45593999997E+02  0.45594000000E+02  0.51100000000E-03 0. -1.
    9900012    2    1    2    0    0  0.12604909261E+02 -0.31302188190E+01 -0.13490626314E+02  0.72461574669E+02  0.70000005699E+02 0.  0.
         12    1    1    2    0    0 -0.12604909261E+02  0.31302188190E+01  0.13490626314E+02  0.18726425331E+02  0.00000000000E+00 0. -1.
         11    1    3    3    0    0 -0.23082213664E+01  0.91612077921E+01 -0.16518811539E+02  0.19029628189E+02  0.51100000000E-03 0. -1.
        -11    1    3    3    0    0 -0.17439176747E+01 -0.18031569499E+02  0.21359112180E+02  0.28006970933E+02  0.51100000000E-03 0.  1.
        -12    1    3    3    0    0  0.16657048302E+02  0.57401428878E+01 -0.18330926955E+02  0.25424975547E+02  0.00000000000E+00 0.  1.
</event>
<event>
 7    1  0.1333056E-013  0.7246158E+02  0.7816164E-02  0.1226708E+00
        -11   -1    0    0    0    0  0.00000000000E+00  0.00000000000E+00  0.45593999997E+02  0.45594000000E+02  0.51100000000E-03 0. -1.
         11   -1    0    0    0    0 -0.00000000000E+00 -0.00000000000E+00 -0.45593999997E+02  0.45594000000E+02  0.51100000000E-03 0.  1.
    9900012    2    1    2    0    0 -0.96982256278E+01  0.15198845123E+02 -0.50614706700E+01  0.72461575922E+02  0.70000007331E+02 0.  0.
         12    1    1    2    0    0  0.96982256278E+01 -0.15198845123E+02  0.50614706700E+01  0.18726424078E+02  0.00000000000E+00 0. -1.
         11    1    3    3    0    0 -0.48898669871E+01 -0.19715857067E+02 -0.29020914913E+01  0.20519453071E+02  0.51100000000E-03 0. -1.
        -11    1    3    3    0    0  0.13048783405E+01  0.42287506040E+02 -0.21940593264E+01  0.42364487146E+02  0.51100000000E-03 0.  1.
        -12    1    3    3    0    0 -0.61132369812E+01 -0.73728038489E+01  0.34680147638E-01  0.95776357049E+01  0.00000000000E+00 0.  1.
</event>
<event>
 7    1  0.1821919E-013  0.7246158E+02  0.7816164E-02  0.1226708E+00
        -11   -1    0    0    0    0  0.00000000000E+00  0.00000000000E+00  0.45593999997E+02  0.45594000000E+02  0.51100000000E-03 0. -1.
         11   -1    0    0    0    0 -0.00000000000E+00 -0.00000000000E+00 -0.45593999997E+02  0.45594000000E+02  0.51100000000E-03 0.  1.
    9900012    2    1    2    0    0  0.70970817428E+00 -0.93505799001E+01 -0.16209312249E+02  0.72461579260E+02  0.70000011679E+02 0.  0.
         12    1    1    2    0    0 -0.70970817428E+00  0.93505799001E+01  0.16209312249E+02  0.18726420740E+02  0.00000000000E+00 0. -1.
         11    1    3    3    0    0  0.76537654414E+01  0.11680603200E+02  0.14356700441E+02  0.20028266634E+02  0.51100000000E-03 0. -1.
        -11    1    3    3    0    0 -0.58995214711E+00 -0.29649319933E+02 -0.14209278946E+02  0.32883640681E+02  0.51100000000E-03 0.  1.
        -12    1    3    3    0    0 -0.63541051200E+01  0.86181368327E+01 -0.16356733744E+02  0.19549671944E+02  0.00000000000E+00 0.  1.
</event>
<event>
 7    1  0.1333056E-013  0.7246153E+02  0.7816164E-02  0.1226708E+00
        -11   -1    0    0    0    0  0.00000000000E+00  0.00000000000E+00  0.45593999997E+02  0.45594000000E+02  0.51100000000E-03 0. -1.
         11   -1    0    0    0    0 -0.00000000000E+00 -0.00000000000E+00 -0.45593999997E+02  0.45594000000E+02  0.51100000000E-03 0.  1.
    9900012    2    1    2    0    0  0.47778209469E+01 -0.14306457827E+02 -0.11098573963E+02  0.72461530697E+02  0.69999948417E+02 0.  0.
         12    1    1    2    0    0 -0.47778209469E+01  0.14306457827E+02  0.11098573963E+02  0.18726469303E+02  0.00000000000E+00 0. -1.
         11    1    3    3    0    0  0.17872226963E+02  0.14597842145E+02 -0.16276455886E+02  0.28238918329E+02  0.51100000000E-03 0. -1.
        -11    1    3    3    0    0 -0.54123224616E+01 -0.22990291740E+02  0.16876711254E+02  0.29028781093E+02  0.51100000000E-03 0.  1.
         12    1    3    3    0    0 -0.76820835545E+01 -0.59140082315E+01 -0.11698829331E+02  0.15193831275E+02  0.00000000000E+00 0. -1.
</event>
<event>
 7    1  0.1333056E-013  0.7246169E+02  0.7816164E-02  0.1226708E+00
        -11   -1    0    0    0    0  0.00000000000E+00  0.00000000000E+00  0.45593999997E+02  0.45594000000E+02  0.51100000000E-03 0.  1.
         11   -1    0    0    0    0 -0.00000000000E+00 -0.00000000000E+00 -0.45593999997E+02  0.45594000000E+02  0.51100000000E-03 0. -1.
    9900012    2    1    2    0    0 -0.16519764003E+02  0.84536952661E+01  0.25113813276E+01  0.72461692235E+02  0.70000158850E+02 0.  0.
         12    1    1    2    0    0  0.16519764003E+02 -0.84536952661E+01 -0.25113813276E+01  0.18726307765E+02  0.00000000000E+00 0. -1.
         11    1    3    3    0    0 -0.16000806774E+02  0.11874027647E+02 -0.30012930010E+02  0.36024912464E+02  0.51100000000E-03 0. -1.
        -11    1    3    3    0    0 -0.30116269134E+01  0.47339959165E+01  0.22905502492E+02  0.23582677089E+02  0.51100000000E-03 0.  1.
         12    1    3    3    0    0  0.24926696848E+01 -0.81543282976E+01  0.96188088456E+01  0.12854102682E+02  0.00000000000E+00 0. -1.
</event>
<event>
 7    1  0.1333056E-013  0.7246156E+02  0.7816164E-02  0.1226708E+00
        -11   -1    0    0    0    0  0.00000000000E+00  0.00000000000E+00  0.45593999997E+02  0.45594000000E+02  0.51100000000E-03 0.  1.
         11   -1    0    0    0    0 -0.00000000000E+00 -0.00000000000E+00 -0.45593999997E+02  0.45594000000E+02  0.51100000000E-03 0. -1.
    9900012    2    1    2    0    0  0.57766627225E+01  0.12014382940E+02  0.13151591693E+02  0.72461558969E+02  0.69999985247E+02 0.  0.
         12    1    1    2    0    0 -0.57766627225E+01 -0.12014382940E+02 -0.13151591693E+02  0.18726441031E+02  0.00000000000E+00 0. -1.
         11    1    3    3    0    0  0.12279796580E+02 -0.27275821599E+02  0.47946649403E+01  0.30294432823E+02  0.51100000000E-03 0. -1.
        -11    1    3    3    0    0 -0.41028469832E+01  0.18544175499E+02  0.95305887327E+01  0.21249751061E+02  0.51100000000E-03 0.  1.
         12    1    3    3    0    0 -0.24002868747E+01  0.20746029039E+02 -0.11736619804E+01  0.20917375084E+02  0.00000000000E+00 0. -1.
</event>
<event>
 7    1  0.1333056E-013  0.7246157E+02  0.7816164E-02  0.1226708E+00
        -11   -1    0    0    0    0  0.00000000000E+00  0.00000000000E+00  0.45593999997E+02  0.45594000000E+02  0.51100000000E-03 0. -1.
         11   -1    0    0    0    0 -0.00000000000E+00 -0.00000000000E+00 -0.45593999997E+02  0.45594000000E+02  0.51100000000E-03 0.  1.
    9900012    2    1    2    0    0 -0.15744143286E+02 -0.10000149067E+02 -0.16727764844E+01  0.72461569204E+02  0.69999998580E+02 0.  0.
         12    1    1    2    0    0  0.15744143286E+02  0.10000149067E+02  0.16727764844E+01  0.18726430796E+02  0.00000000000E+00 0. -1.
         11    1    3    3    0    0  0.15547729476E+02 -0.16231181016E+02  0.59444677390E+01  0.23249082262E+02  0.51100000000E-03 0. -1.
        -11    1    3    3    0    0 -0.24834538010E+02  0.11097226958E+02  0.10668789533E+02  0.29218586460E+02  0.51100000000E-03 0.  1.
        -12    1    3    3    0    0 -0.64573347519E+01 -0.48661950091E+01 -0.18286033757E+02  0.19993900483E+02  0.00000000000E+00 0.  1.
</event>
<event>
 7    1  0.1333056E-013  0.7246157E+02  0.7816164E-02  0.1226708E+00
        -11   -1    0    0    0    0  0.00000000000E+00  0.00000000000E+00  0.45593999997E+02  0.45594000000E+02  0.51100000000E-03 0.  1.
         11   -1    0    0    0    0 -0.00000000000E+00 -0.00000000000E+00 -0.45593999997E+02  0.45594000000E+02  0.51100000000E-03 0. -1.
    9900012    2    1    2    0    0  0.14470050776E+02  0.32372650157E+01 -0.11437527352E+02  0.72461567180E+02  0.69999995943E+02 0.  0.
         12    1    1    2    0    0 -0.14470050776E+02 -0.32372650157E+01  0.11437527352E+02  0.18726432820E+02  0.00000000000E+00 0. -1.
         11    1    3    3    0    0  0.28017669860E+01  0.83692242842E+00  0.22257813729E+02  0.22449067011E+02  0.51100000000E-03 0.  1.
        -11    1    3    3    0    0 -0.24147602162E+01 -0.10967084014E+01 -0.35312476776E+02  0.35411930935E+02  0.51100000000E-03 0. -1.
         12    1    3    3    0    0  0.14083044006E+02  0.34970509887E+01  0.16171356949E+01  0.14600569234E+02  0.00000000000E+00 0. -1.
</event>
<event>
 7    1  0.1333056E-013  0.7246156E+02  0.7816164E-02  0.1226708E+00
        -11   -1    0    0    0    0  0.00000000000E+00  0.00000000000E+00  0.45593999997E+02  0.45594000000E+02  0.51100000000E-03 0.  1.
         11   -1    0    0    0    0 -0.00000000000E+00 -0.00000000000E+00 -0.45593999997E+02  0.45594000000E+02  0.51100000000E-03 0. -1.
    9900012    2    1    2    0    0 -0.31823395901E+01  0.15879538854E+02  0.94017376064E+01  0.72461555877E+02  0.69999981218E+02 0.  0.
         12    1    1    2    0    0  0.31823395901E+01 -0.15879538854E+02 -0.94017376064E+01  0.18726444123E+02  0.00000000000E+00 0. -1.
         11    1    3    3    0    0 -0.32066471222E+02 -0.64022612333E+01  0.11130765204E+01  0.32718289459E+02  0.51100000000E-03 0. -1.
        -11    1    3    3    0    0  0.96001276049E+01  0.15703724799E+02  0.25958481780E+01  0.18587841473E+02  0.51100000000E-03 0.  1.
         12    1    3    3    0    0  0.19284004027E+02  0.65780752880E+01  0.56928129079E+01  0.21155424945E+02  0.00000000000E+00 0. -1.
</event>
<event>
 7    1  0.1333056E-013  0.7246159E+02  0.7816164E-02  0.1226708E+00
        -11   -1    0    0    0    0  0.00000000000E+00  0.00000000000E+00  0.45593999997E+02  0.45594000000E+02  0.51100000000E-03 0.  1.
         11   -1    0    0    0    0 -0.00000000000E+00 -0.00000000000E+00 -0.45593999997E+02  0.45594000000E+02  0.51100000000E-03 0. -1.
    9900012    2    1    2    0    0 -0.16854344729E+01 -0.77350586687E+01  0.16970762873E+02  0.72461585115E+02  0.70000019306E+02 0.  0.
         12    1    1    2    0    0  0.16854344729E+01  0.77350586687E+01 -0.16970762873E+02  0.18726414885E+02  0.00000000000E+00 0. -1.
         11    1    3    3    0    0 -0.17958566858E+02 -0.22368956842E+02  0.12755006671E+02  0.31393797942E+02  0.51100000000E-03 0.  1.
        -11    1    3    3    0    0  0.16656623748E+02  0.23512747352E+02  0.99579840651E+01  0.30486945561E+02  0.51100000000E-03 0. -1.
         12    1    3    3    0    0 -0.38349136269E+00 -0.88788491788E+01 -0.57422278635E+01  0.10580841611E+02  0.00000000000E+00 0. -1.
</event>
<event>
 7    1  0.1333056E-013  0.7246183E+02  0.7816164E-02  0.1226707E+00
        -11   -1    0    0    0    0  0.00000000000E+00  0.00000000000E+00  0.45593999997E+02  0.45594000000E+02  0.51100000000E-03 0. -1.
         11   -1    0    0    0    0 -0.00000000000E+00 -0.00000000000E+00 -0.45593999997E+02  0.45594000000E+02  0.51100000000E-03 0.  1.
    9900012    2    1    2    0    0  0.17087136369E+02  0.30211740784E+01 -0.70407076063E+01  0.72461834197E+02  0.70000343781E+02 0.  0.
         12    1    1    2    0    0 -0.17087136369E+02 -0.30211740784E+01  0.70407076063E+01  0.18726165803E+02  0.00000000000E+00 0. -1.
         11    1    3    3    0    0 -0.80774752136E-01 -0.23257580679E+02  0.27018259631E+01  0.23414129226E+02  0.51100000000E-03 0. -1.
        -11    1    3    3    0    0  0.20977297146E+02  0.32332563072E+02 -0.21272406581E+01  0.38600087868E+02  0.51100000000E-03 0.  1.
        -12    1    3    3    0    0 -0.38093860248E+01 -0.60538083149E+01 -0.76152929113E+01  0.10447617103E+02  0.00000000000E+00 0.  1.
</event>
<event>
 7    1  0.1333056E-013  0.7246170E+02  0.7816164E-02  0.1226708E+00
        -11   -1    0    0    0    0  0.00000000000E+00  0.00000000000E+00  0.45593999997E+02  0.45594000000E+02  0.51100000000E-03 0. -1.
         11   -1    0    0    0    0 -0.00000000000E+00 -0.00000000000E+00 -0.45593999997E+02  0.45594000000E+02  0.51100000000E-03 0.  1.
    9900012    2    1    2    0    0 -0.17801128563E+02 -0.32094437989E+00 -0.58044146190E+01  0.72461697309E+02  0.70000165459E+02 0.  0.
         12    1    1    2    0    0  0.17801128563E+02  0.32094437989E+00  0.58044146190E+01  0.18726302691E+02  0.00000000000E+00 0. -1.
         11    1    3    3    0    0 -0.46489183861E+01 -0.16835747540E+02  0.13723472050E+02  0.22212350681E+02  0.51100000000E-03 0. -1.
        -11    1    3    3    0    0  0.33719673635E+01  0.24420044449E+02 -0.17352888896E+01  0.24712748989E+02  0.51100000000E-03 0.  1.
         12    1    3    3    0    0 -0.16524177541E+02 -0.79052412889E+01 -0.17792597779E+02  0.25536597639E+02  0.00000000000E+00 0. -1.
</event>
<event>
 7    1  0.1333056E-013  0.7246126E+02  0.7816164E-02  0.1226709E+00
        -11   -1    0    0    0    0  0.00000000000E+00  0.00000000000E+00  0.45593999997E+02  0.45594000000E+02  0.51100000000E-03 0. -1.
         11   -1    0    0    0    0 -0.00000000000E+00 -0.00000000000E+00 -0.45593999997E+02  0.45594000000E+02  0.51100000000E-03 0.  1.
    9900012    2    1    2    0    0 -0.96980968567E+01 -0.10122442570E+02 -0.12416679820E+02  0.72461258053E+02  0.69999593246E+02 0.  0.
         12    1    1    2    0    0  0.96980968567E+01  0.10122442570E+02  0.12416679820E+02  0.18726741947E+02  0.00000000000E+00 0. -1.
         11    1    3    3    0    0 -0.19135128874E+02 -0.10412924702E+02 -0.22978819432E+02  0.31663990599E+02  0.51100000000E-03 0.  1.
        -11    1    3    3    0    0  0.15642369040E+02  0.15248741991E+02  0.74108012370E+00  0.21857654072E+02  0.51100000000E-03 0. -1.
        -12    1    3    3    0    0 -0.62053370226E+01 -0.14958259859E+02  0.98210594891E+01  0.18939613382E+02  0.00000000000E+00 0.  1.
</event>
<event>
 7    1  0.1333056E-013  0.7246156E+02  0.7816164E-02  0.1226708E+00
        -11   -1    0    0    0    0  0.00000000000E+00  0.00000000000E+00  0.45593999997E+02  0.45594000000E+02  0.51100000000E-03 0.  1.
         11   -1    0    0    0    0 -0.00000000000E+00 -0.00000000000E+00 -0.45593999997E+02  0.45594000000E+02  0.51100000000E-03 0. -1.
    9900012    2    1    2    0    0  0.37216143297E+01 -0.61967032075E+01  0.17275127589E+02  0.72461559413E+02  0.69999985824E+02 0.  0.
         12    1    1    2    0    0 -0.37216143297E+01  0.61967032075E+01 -0.17275127589E+02  0.18726440587E+02  0.00000000000E+00 0. -1.
         11    1    3    3    0    0  0.13704733037E+02  0.15882516163E+02 -0.90614827152E+00  0.20997503000E+02  0.51100000000E-03 0. -1.
        -11    1    3    3    0    0 -0.25741296774E+01 -0.28160200420E+02  0.26513892185E+02  0.38763507457E+02  0.51100000000E-03 0.  1.
        -12    1    3    3    0    0 -0.74089890295E+01  0.60809810494E+01 -0.83326163248E+01  0.12700548956E+02  0.00000000000E+00 0.  1.
</event>
<event>
 7    1  0.1333056E-013  0.7246156E+02  0.7816164E-02  0.1226708E+00
        -11   -1    0    0    0    0  0.00000000000E+00  0.00000000000E+00  0.45593999997E+02  0.45594000000E+02  0.51100000000E-03 0. -1.
         11   -1    0    0    0    0 -0.00000000000E+00 -0.00000000000E+00 -0.45593999997E+02  0.45594000000E+02  0.51100000000E-03 0.  1.
    9900012    2    1    2    0    0  0.16830376201E+02 -0.37729480635E+00 -0.82021761844E+01  0.72461558571E+02  0.69999984728E+02 0.  0.
         12    1    1    2    0    0 -0.16830376201E+02  0.37729480635E+00  0.82021761844E+01  0.18726441429E+02  0.00000000000E+00 0. -1.
         11    1    3    3    0    0 -0.74472440908E+01  0.12335956902E+02  0.12981324590E+02  0.19394640126E+02  0.51100000000E-03 0. -1.
        -11    1    3    3    0    0  0.18148949711E+02 -0.24528670989E+02 -0.31811619464E+01  0.30678328959E+02  0.51100000000E-03 0.  1.
        -12    1    3    3    0    0  0.61286705804E+01  0.11815419281E+02 -0.18002338828E+02  0.22388589486E+02  0.00000000000E+00 0.  1.
</event>
<event>
 7    1  0.1333056E-013  0.7246160E+02  0.7816164E-02  0.1226708E+00
        -11   -1    0    0    0    0  0.00000000000E+00  0.00000000000E+00  0.45593999997E+02  0.45594000000E+02  0.51100000000E-03 0.  1.
         11   -1    0    0    0    0 -0.00000000000E+00 -0.00000000000E+00 -0.45593999997E+02  0.45594000000E+02  0.51100000000E-03 0. -1.
    9900012    2    1    2    0    0 -0.11829982226E+02  0.26558380853E+01  0.14271509575E+02  0.72461603097E+02  0.70000042732E+02 0.  0.
         12    1    1    2    0    0  0.11829982226E+02 -0.26558380853E+01 -0.14271509575E+02  0.18726396903E+02  0.00000000000E+00 0. -1.
         11    1    3    3    0    0 -0.21577463144E+01  0.35625279138E+02  0.16347001632E+01  0.35727981020E+02  0.51100000000E-03 0. -1.
        -11    1    3    3    0    0 -0.33720558936E+01 -0.16541089142E+02  0.56404950269E+01  0.17798695889E+02  0.51100000000E-03 0.  1.
         12    1    3    3    0    0 -0.63001800182E+01 -0.16428351911E+02  0.69963143852E+01  0.18934926188E+02  0.00000000000E+00 0. -1.
</event>
<event>
 7    1  0.1333056E-013  0.7246161E+02  0.7816164E-02  0.1226708E+00
        -11   -1    0    0    0    0  0.00000000000E+00  0.00000000000E+00  0.45593999997E+02  0.45594000000E+02  0.51100000000E-03 0. -1.
         11   -1    0    0    0    0 -0.00000000000E+00 -0.00000000000E+00 -0.45593999997E+02  0.45594000000E+02  0.51100000000E-03 0.  1.
    9900012    2    1    2    0    0  0.52928401336E+01 -0.17333583153E+01 -0.17879014681E+02  0.72461605427E+02  0.70000045767E+02 0.  0.
         12    1    1    2    0    0 -0.52928401336E+01  0.17333583153E+01  0.17879014681E+02  0.18726394573E+02  0.00000000000E+00 0. -1.
         11    1    3    3    0    0  0.23377878523E+02 -0.32677282808E+01  0.10681018781E+02  0.25909214863E+02  0.51100000000E-03 0. -1.
        -11    1    3    3    0    0 -0.78563475027E+01 -0.11760839450E+02 -0.86075860940E+00  0.14169701701E+02  0.51100000000E-03 0.  1.
         12    1    3    3    0    0 -0.10228690887E+02  0.13295209415E+02 -0.27699274853E+02  0.32382688863E+02  0.00000000000E+00 0. -1.
</event>
<event>
 7    1  0.1333056E-013  0.7246151E+02  0.7816164E-02  0.1226708E+00
        -11   -1    0    0    0    0  0.00000000000E+00  0.00000000000E+00  0.45593999997E+02  0.45594000000E+02  0.51100000000E-03 0. -1.
         11   -1    0    0    0    0 -0.00000000000E+00 -0.00000000000E+00 -0.45593999997E+02  0.45594000000E+02  0.51100000000E-03 0.  1.
    9900012    2    1    2    0    0  0.16235836059E+02  0.72427926778E+01  0.58839655727E+01  0.72461508893E+02  0.69999920014E+02 0.  0.
         12    1    1    2    0    0 -0.16235836059E+02 -0.72427926778E+01 -0.58839655727E+01  0.18726491107E+02  0.00000000000E+00 0. -1.
         11    1    3    3    0    0 -0.99953745508E+01  0.91522434429E+01 -0.18743773734E+02  0.23130069747E+02  0.51100000000E-03 0. -1.
        -11    1    3    3    0    0  0.26231810311E+02  0.83653099012E+01  0.61846963728E+01  0.28219439247E+02  0.51100000000E-03 0.  1.
         12    1    3    3    0    0 -0.59970129582E-03 -0.10274760666E+02  0.18443042934E+02  0.21111999900E+02  0.00000000000E+00 0. -1.
</event>
<event>
 7    1  0.1333056E-013  0.7246159E+02  0.7816164E-02  0.1226708E+00
        -11   -1    0    0    0    0  0.00000000000E+00  0.00000000000E+00  0.45593999997E+02  0.45594000000E+02  0.51100000000E-03 0. -1.
         11   -1    0    0    0    0 -0.00000000000E+00 -0.00000000000E+00 -0.45593999997E+02  0.45594000000E+02  0.51100000000E-03 0.  1.
    9900012    2    1    2    0    0  0.90397276599E+01  0.12690683603E+02 -0.10387887798E+02  0.72461592459E+02  0.70000028874E+02 0.  0.
         12    1    1    2    0    0 -0.90397276599E+01 -0.12690683603E+02  0.10387887798E+02  0.18726407541E+02  0.00000000000E+00 0. -1.
         11    1    3    3    0    0 -0.76224685453E+01  0.37853984585E+01  0.22848145885E+02  0.24381735763E+02  0.51100000000E-03 0. -1.
        -11    1    3    3    0    0 -0.24666229614E+01 -0.84939291233E+01 -0.94882869841E+01  0.12971455236E+02  0.51100000000E-03 0.  1.
         12    1    3    3    0    0  0.19128819167E+02  0.17399214268E+02 -0.23747746698E+02  0.35108401460E+02  0.00000000000E+00 0. -1.
</event>
<event>
 7    1  0.1333056E-013  0.7246158E+02  0.7816164E-02  0.1226708E+00
        -11   -1    0    0    0    0  0.00000000000E+00  0.00000000000E+00  0.45593999997E+02  0.45594000000E+02  0.51100000000E-03 0.  1.
         11   -1    0    0    0    0 -0.00000000000E+00 -0.00000000000E+00 -0.45593999997E+02  0.45594000000E+02  0.51100000000E-03 0. -1.
    9900012    2    1    2    0    0  0.83508822507E+01  0.16093935412E+02  0.46826108034E+01  0.72461579217E+02  0.70000011623E+02 0.  0.
         12    1    1    2    0    0 -0.83508822507E+01 -0.16093935412E+02 -0.46826108034E+01  0.18726420783E+02  0.00000000000E+00 0. -1.
         11    1    3    3    0    0  0.14663673802E+01 -0.25179034297E+01 -0.11540715486E+02  0.11902864579E+02  0.51100000000E-03 0. -1.
        -11    1    3    3    0    0  0.23856660148E+02  0.29673948801E+02  0.11162031039E+02  0.39677127014E+02  0.51100000000E-03 0.  1.
        -12    1    3    3    0    0 -0.16972145278E+02 -0.11062109960E+02  0.50612952507E+01  0.20881587624E+02  0.00000000000E+00 0.  1.
</event>
<event>
 7    1  0.1333056E-013  0.7246167E+02  0.7816164E-02  0.1226708E+00
        -11   -1    0    0    0    0  0.00000000000E+00  0.00000000000E+00  0.45593999997E+02  0.45594000000E+02  0.51100000000E-03 0. -1.
         11   -1    0    0    0    0 -0.00000000000E+00 -0.00000000000E+00 -0.45593999997E+02  0.45594000000E+02  0.51100000000E-03 0.  1.
    9900012    2    1    2    0    0  0.17706129444E+02 -0.48063874998E+01 -0.37505930386E+01  0.72461672842E+02  0.70000133587E+02 0.  0.
         12    1    1    2    0    0 -0.17706129444E+02  0.48063874998E+01  0.37505930386E+01  0.18726327158E+02  0.00000000000E+00 0. -1.
         11    1    3    3    0    0  0.11069017307E+02 -0.18838014623E+02  0.24600738896E+02  0.32902739910E+02  0.51100000000E-03 0. -1.
        -11    1    3    3    0    0  0.14648160729E+02  0.12053404392E+02 -0.16647750254E+02  0.25238873963E+02  0.51100000000E-03 0.  1.
         12    1    3    3    0    0 -0.80110485917E+01  0.19782227317E+01 -0.11703581681E+02  0.14320058969E+02  0.00000000000E+00 0. -1.
</event>
<event>
 7    1  0.1333056E-013  0.7246187E+02  0.7816164E-02  0.1226707E+00
        -11   -1    0    0    0    0  0.00000000000E+00  0.00000000000E+00  0.45593999997E+02  0.45594000000E+02  0.51100000000E-03 0. -1.
         11   -1    0    0    0    0 -0.00000000000E+00 -0.00000000000E+00 -0.45593999997E+02  0.45594000000E+02  0.51100000000E-03 0.  1.
    9900012    2    1    2    0    0  0.18363192198E+02  0.27984739728E+00 -0.36582278543E+01  0.72461874578E+02  0.70000396385E+02 0.  0.
         12    1    1    2    0    0 -0.18363192198E+02 -0.27984739728E+00  0.36582278543E+01  0.18726125422E+02  0.00000000000E+00 0. -1.
         11    1    3    3    0    0 -0.10697033040E+02 -0.10784616751E+01 -0.54266972253E+01  0.12043198847E+02  0.51100000000E-03 0. -1.
        -11    1    3    3    0    0  0.40563469147E+02  0.12393251279E+02  0.82528239238E+01  0.43209915639E+02  0.51100000000E-03 0.  1.
        -12    1    3    3    0    0 -0.11503243909E+02 -0.11034942207E+02 -0.64843545528E+01  0.17208760092E+02  0.00000000000E+00 0.  1.
</event>
<event>
 7    1  0.1333056E-013  0.7246160E+02  0.7816164E-02  0.1226708E+00
        -11   -1    0    0    0    0  0.00000000000E+00  0.00000000000E+00  0.45593999997E+02  0.45594000000E+02  0.51100000000E-03 0.  1.
         11   -1    0    0    0    0 -0.00000000000E+00 -0.00000000000E+00 -0.45593999997E+02  0.45594000000E+02  0.51100000000E-03 0. -1.
    9900012    2    1    2    0    0  0.65620128346E+01 -0.16156515719E+02  0.68253205570E+01  0.72461601165E+02  0.70000040215E+02 0.  0.
         12    1    1    2    0    0 -0.65620128346E+01  0.16156515719E+02 -0.68253205570E+01  0.18726398835E+02  0.00000000000E+00 0. -1.
         11    1    3    3    0    0 -0.93707439588E+01  0.51266077808E+01 -0.25401021634E+02  0.27555486750E+02  0.51100000000E-03 0. -1.
        -11    1    3    3    0    0  0.15978614632E+02 -0.22930945722E+02  0.25014466343E+02  0.37508238081E+02  0.51100000000E-03 0.  1.
        -12    1    3    3    0    0 -0.45857838611E-01  0.16478222222E+01  0.72118758484E+01  0.73978763351E+01  0.00000000000E+00 0.  1.
</event>
<event>
 7    1  0.1333056E-013  0.7246155E+02  0.7816164E-02  0.1226708E+00
        -11   -1    0    0    0    0  0.00000000000E+00  0.00000000000E+00  0.45593999997E+02  0.45594000000E+02  0.51100000000E-03 0. -1.
         11   -1    0    0    0    0 -0.00000000000E+00 -0.00000000000E+00 -0.45593999997E+02  0.45594000000E+02  0.51100000000E-03 0.  1.
    9900012    2    1    2    0    0  0.35165811910E+01  0.33782660449E+01 -0.18080402104E+02  0.72461549055E+02  0.69999972332E+02 0.  0.
         12    1    1    2    0    0 -0.35165811910E+01 -0.33782660449E+01  0.18080402104E+02  0.18726450945E+02  0.00000000000E+00 0. -1.
         11    1    3    3    0    0  0.18092676628E+02  0.44812418236E+01 -0.26765887704E+02  0.32616548265E+02  0.51100000000E-03 0.  1.
        -11    1    3    3    0    0 -0.67373363607E+01 -0.29940825286E+01  0.22594855834E+02  0.23767283013E+02  0.51100000000E-03 0. -1.
        -12    1    3    3    0    0 -0.78387590766E+01  0.18911067499E+01 -0.13909370234E+02  0.16077717777E+02  0.00000000000E+00 0.  1.
</event>
<event>
 7    1  0.1391609E-013  0.7246156E+02  0.7816164E-02  0.1226708E+00
        -11   -1    0    0    0    0  0.00000000000E+00  0.00000000000E+00  0.45593999997E+02  0.45594000000E+02  0.51100000000E-03 0.  1.
         11   -1    0    0    0    0 -0.00000000000E+00 -0.00000000000E+00 -0.45593999997E+02  0.45594000000E+02  0.51100000000E-03 0. -1.
    9900012    2    1    2    0    0  0.35703834905E+01  0.15951952000E+02  0.91360424108E+01  0.72461556616E+02  0.69999982181E+02 0.  0.
         12    1    1    2    0    0 -0.35703834905E+01 -0.15951952000E+02 -0.91360424108E+01  0.18726443384E+02  0.00000000000E+00 0. -1.
         11    1    3    3    0    0  0.47735197164E+01 -0.15790087509E+02 -0.13603026919E+02  0.21381199584E+02  0.51100000000E-03 0. -1.
        -11    1    3    3    0    0 -0.47559603693E+01  0.53525636694E+01  0.23373085164E+02  0.24445249175E+02  0.51100000000E-03 0.  1.
        -12    1    3    3    0    0  0.35528241434E+01  0.26389475840E+02 -0.63401583413E+00  0.26635107857E+02  0.00000000000E+00 0.  1.
</event>
<event>
 7    1  0.1333056E-013  0.7246156E+02  0.7816164E-02  0.1226708E+00
        -11   -1    0    0    0    0  0.00000000000E+00  0.00000000000E+00  0.45593999997E+02  0.45594000000E+02  0.51100000000E-03 0. -1.
         11   -1    0    0    0    0 -0.00000000000E+00 -0.00000000000E+00 -0.45593999997E+02  0.45594000000E+02  0.51100000000E-03 0.  1.
    9900012    2    1    2    0    0  0.60331748781E+01 -0.71248833763E+01 -0.16233188943E+02  0.72461559188E+02  0.69999985532E+02 0.  0.
         12    1    1    2    0    0 -0.60331748781E+01  0.71248833763E+01  0.16233188943E+02  0.18726440812E+02  0.00000000000E+00 0. -1.
         11    1    3    3    0    0 -0.22072212405E+02  0.81618067748E+01  0.53531690520E+01  0.24134085221E+02  0.51100000000E-03 0. -1.
        -11    1    3    3    0    0  0.16587565121E+02 -0.12502101345E+02  0.30456101296E+01  0.20993465555E+02  0.51100000000E-03 0.  1.
         12    1    3    3    0    0  0.11517822162E+02 -0.27845888060E+01 -0.24631968124E+02  0.27334008412E+02  0.00000000000E+00 0. -1.
</event>
<event>
 7    1  0.1333056E-013  0.7246157E+02  0.7816164E-02  0.1226708E+00
        -11   -1    0    0    0    0  0.00000000000E+00  0.00000000000E+00  0.45593999997E+02  0.45594000000E+02  0.51100000000E-03 0. -1.
         11   -1    0    0    0    0 -0.00000000000E+00 -0.00000000000E+00 -0.45593999997E+02  0.45594000000E+02  0.51100000000E-03 0.  1.
    9900012    2    1    2    0    0 -0.11869083128E+02 -0.13927492823E+02 -0.39785864670E+01  0.72461565718E+02  0.69999994039E+02 0.  0.
         12    1    1    2    0    0  0.11869083128E+02  0.13927492823E+02  0.39785864670E+01  0.18726434282E+02  0.00000000000E+00 0. -1.
         11    1    3    3    0    0 -0.84090811922E+01 -0.17011502314E+02  0.19917079171E+02  0.27509887321E+02  0.51100000000E-03 0. -1.
        -11    1    3    3    0    0  0.16205727975E+02  0.69977282169E+01 -0.14325448734E+02  0.22733506132E+02  0.51100000000E-03 0.  1.
        -12    1    3    3    0    0 -0.19665729911E+02 -0.39137187260E+01 -0.95702169039E+01  0.22218172265E+02  0.00000000000E+00 0.  1.
</event>
<event>
 7    1  0.1333056E-013  0.7246157E+02  0.7816164E-02  0.1226708E+00
        -11   -1    0    0    0    0  0.00000000000E+00  0.00000000000E+00  0.45593999997E+02  0.45594000000E+02  0.51100000000E-03 0.  1.
         11   -1    0    0    0    0 -0.00000000000E+00 -0.00000000000E+00 -0.45593999997E+02  0.45594000000E+02  0.51100000000E-03 0. -1.
    9900012    2    1    2    0    0 -0.16880358372E+02 -0.19732636328E+01 -0.78637806910E+01  0.72461566413E+02  0.69999994944E+02 0.  0.
         12    1    1    2    0    0  0.16880358372E+02  0.19732636328E+01  0.78637806910E+01  0.18726433587E+02  0.00000000000E+00 0. -1.
         11    1    3    3    0    0  0.16321842670E+01 -0.19845186643E+02 -0.96257072116E+01  0.22116728916E+02  0.51100000000E-03 0. -1.
        -11    1    3    3    0    0 -0.16728010591E+02  0.27324471800E+02 -0.11431715735E+02  0.34016719748E+02  0.51100000000E-03 0.  1.
        -12    1    3    3    0    0 -0.17845320476E+01 -0.94525487903E+01  0.13193642256E+02  0.16328117749E+02  0.00000000000E+00 0.  1.
</event>
<event>
 7    1  0.1333056E-013  0.7246163E+02  0.7816164E-02  0.1226708E+00
        -11   -1    0    0    0    0  0.00000000000E+00  0.00000000000E+00  0.45593999997E+02  0.45594000000E+02  0.51100000000E-03 0.  1.
         11   -1    0    0    0    0 -0.00000000000E+00 -0.00000000000E+00 -0.45593999997E+02  0.45594000000E+02  0.51100000000E-03 0. -1.
    9900012    2    1    2    0    0 -0.10583526336E+02  0.50763369557E+01  0.14590980116E+02  0.72461630161E+02  0.70000077988E+02 0.  0.
         12    1    1    2    0    0  0.10583526336E+02 -0.50763369557E+01 -0.14590980116E+02  0.18726369839E+02  0.00000000000E+00 0. -1.
         11    1    3    3    0    0 -0.10879107466E+02 -0.12631907866E+02 -0.88018433385E+01  0.18851857256E+02  0.51100000000E-03 0. -1.
        -11    1    3    3    0    0  0.96164897866E+01  0.30736647220E+02  0.15067823546E+02  0.35556401179E+02  0.51100000000E-03 0.  1.
        -12    1    3    3    0    0 -0.93209086558E+01 -0.13028402398E+02  0.83249999084E+01  0.18053371726E+02  0.00000000000E+00 0.  1.
</event>
<event>
 7    1  0.1333056E-013  0.7246157E+02  0.7816164E-02  0.1226708E+00
        -11   -1    0    0    0    0  0.00000000000E+00  0.00000000000E+00  0.45593999997E+02  0.45594000000E+02  0.51100000000E-03 0.  1.
         11   -1    0    0    0    0 -0.00000000000E+00 -0.00000000000E+00 -0.45593999997E+02  0.45594000000E+02  0.51100000000E-03 0. -1.
    9900012    2    1    2    0    0  0.18712893296E+02  0.71174269415E+00 -0.79682479108E-02  0.72461574376E+02  0.70000005317E+02 0.  0.
         12    1    1    2    0    0 -0.18712893296E+02 -0.71174269415E+00  0.79682479108E-02  0.18726425624E+02  0.00000000000E+00 0. -1.
         11    1    3    3    0    0 -0.42980682724E+01  0.14674866447E+02  0.35340065029E+01  0.15694403408E+02  0.51100000000E-03 0.  1.
        -11    1    3    3    0    0  0.32093243987E+02 -0.10423236920E+02 -0.18825574464E+02  0.38639648441E+02  0.51100000000E-03 0. -1.
        -12    1    3    3    0    0 -0.90822824188E+01 -0.35398868335E+01  0.15283599714E+02  0.18127522526E+02  0.00000000000E+00 0.  1.
</event>
<event>
 7    1  0.1333056E-013  0.7246159E+02  0.7816164E-02  0.1226708E+00
        -11   -1    0    0    0    0  0.00000000000E+00  0.00000000000E+00  0.45593999997E+02  0.45594000000E+02  0.51100000000E-03 0. -1.
         11   -1    0    0    0    0 -0.00000000000E+00 -0.00000000000E+00 -0.45593999997E+02  0.45594000000E+02  0.51100000000E-03 0.  1.
    9900012    2    1    2    0    0  0.11167485635E+02  0.14492024586E+02 -0.39933767876E+01  0.72461586297E+02  0.70000020847E+02 0.  0.
         12    1    1    2    0    0 -0.11167485635E+02 -0.14492024586E+02  0.39933767876E+01  0.18726413703E+02  0.00000000000E+00 0. -1.
         11    1    3    3    0    0 -0.14449866551E+01  0.47143745059E+01  0.33116308310E+01  0.59397148448E+01  0.51100000000E-03 0. -1.
        -11    1    3    3    0    0 -0.93733643232E+01  0.87182651569E+01 -0.31386406010E+02  0.33896527677E+02  0.51100000000E-03 0.  1.
        -12    1    3    3    0    0  0.21985836614E+02  0.10593849228E+01  0.24081398391E+02  0.32625343776E+02  0.00000000000E+00 0.  1.
</event>
<event>
 7    1  0.1333056E-013  0.7246157E+02  0.7816164E-02  0.1226708E+00
        -11   -1    0    0    0    0  0.00000000000E+00  0.00000000000E+00  0.45593999997E+02  0.45594000000E+02  0.51100000000E-03 0.  1.
         11   -1    0    0    0    0 -0.00000000000E+00 -0.00000000000E+00 -0.45593999997E+02  0.45594000000E+02  0.51100000000E-03 0. -1.
    9900012    2    1    2    0    0  0.88980116518E+01  0.15558842140E+02  0.54246633670E+01  0.72461570742E+02  0.70000000584E+02 0.  0.
         12    1    1    2    0    0 -0.88980116518E+01 -0.15558842140E+02 -0.54246633670E+01  0.18726429258E+02  0.00000000000E+00 0. -1.
         11    1    3    3    0    0 -0.90055530148E+01 -0.17450599847E+02 -0.10450326374E+01  0.19665083616E+02  0.51100000000E-03 0. -1.
        -11    1    3    3    0    0 -0.67871489970E+01  0.23828614289E+02 -0.26557946320E+01  0.24918296407E+02  0.51100000000E-03 0.  1.
        -12    1    3    3    0    0  0.24690713664E+02  0.91808276990E+01  0.91254906364E+01  0.27878190720E+02  0.00000000000E+00 0.  1.
</event>
<event>
 7    1  0.1333056E-013  0.7246158E+02  0.7816164E-02  0.1226708E+00
        -11   -1    0    0    0    0  0.00000000000E+00  0.00000000000E+00  0.45593999997E+02  0.45594000000E+02  0.51100000000E-03 0.  1.
         11   -1    0    0    0    0 -0.00000000000E+00 -0.00000000000E+00 -0.45593999997E+02  0.45594000000E+02  0.51100000000E-03 0. -1.
    9900012    2    1    2    0    0  0.60153561709E+01  0.17551873458E+02  0.25349873560E+01  0.72461576619E+02  0.70000008239E+02 0.  0.
         12    1    1    2    0    0 -0.60153561709E+01 -0.17551873458E+02 -0.25349873560E+01  0.18726423381E+02  0.00000000000E+00 0. -1.
         11    1    3    3    0    0  0.54736814110E+01  0.43361152326E+02 -0.22162243711E+01  0.43761425593E+02  0.51100000000E-03 0. -1.
        -11    1    3    3    0    0 -0.91362562658E+00 -0.22719904989E+02  0.78835901293E+01  0.24066154410E+02  0.51100000000E-03 0.  1.
         12    1    3    3    0    0  0.14553003864E+01 -0.30893738790E+01 -0.31323784021E+01  0.46339966156E+01  0.00000000000E+00 0. -1.
</event>
<event>
 7    1  0.1333056E-013  0.7246160E+02  0.7816164E-02  0.1226708E+00
        -11   -1    0    0    0    0  0.00000000000E+00  0.00000000000E+00  0.45593999997E+02  0.45594000000E+02  0.51100000000E-03 0. -1.
         11   -1    0    0    0    0 -0.00000000000E+00 -0.00000000000E+00 -0.45593999997E+02  0.45594000000E+02  0.51100000000E-03 0.  1.
    9900012    2    1    2    0    0  0.18240577363E+02 -0.23173198591E+01  0.35481714862E+01  0.72461597389E+02  0.70000035295E+02 0.  0.
         12    1    1    2    0    0 -0.18240577363E+02  0.23173198591E+01 -0.35481714862E+01  0.18726402611E+02  0.00000000000E+00 0. -1.
         11    1    3    3    0    0  0.18851345960E+02 -0.88493005204E+01  0.25120034693E+02  0.32629733487E+02  0.51100000000E-03 0. -1.
        -11    1    3    3    0    0  0.11914219543E+02  0.13523444269E+02 -0.17002791007E+02  0.24777551826E+02  0.51100000000E-03 0.  1.
         12    1    3    3    0    0 -0.12524988140E+02 -0.69914636076E+01 -0.45690722000E+01  0.15054312075E+02  0.00000000000E+00 0. -1.
</event>
<event>
 7    1  0.1333056E-013  0.7246159E+02  0.7816164E-02  0.1226708E+00
        -11   -1    0    0    0    0  0.00000000000E+00  0.00000000000E+00  0.45593999997E+02  0.45594000000E+02  0.51100000000E-03 0.  1.
         11   -1    0    0    0    0 -0.00000000000E+00 -0.00000000000E+00 -0.45593999997E+02  0.45594000000E+02  0.51100000000E-03 0. -1.
    9900012    2    1    2    0    0  0.20165338725E+00  0.12480972940E+02  0.13959330661E+02  0.72461594522E+02  0.70000031560E+02 0.  0.
         12    1    1    2    0    0 -0.20165338725E+00 -0.12480972940E+02 -0.13959330661E+02  0.18726405478E+02  0.00000000000E+00 0. -1.
         11    1    3    3    0    0 -0.11471811467E+02  0.27372734836E+02 -0.10022745551E+02  0.31326099332E+02  0.51100000000E-03 0. -1.
        -11    1    3    3    0    0  0.20037204960E+02 -0.53793119986E+01  0.14446930082E+02  0.25281225628E+02  0.51100000000E-03 0.  1.
         12    1    3    3    0    0 -0.83637401064E+01 -0.95124498967E+01  0.95351461305E+01  0.15854269562E+02  0.00000000000E+00 0. -1.
</event>
<event>
 7    1  0.1333056E-013  0.7246156E+02  0.7816164E-02  0.1226708E+00
        -11   -1    0    0    0    0  0.00000000000E+00  0.00000000000E+00  0.45593999997E+02  0.45594000000E+02  0.51100000000E-03 0.  1.
         11   -1    0    0    0    0 -0.00000000000E+00 -0.00000000000E+00 -0.45593999997E+02  0.45594000000E+02  0.51100000000E-03 0. -1.
    9900012    2    1    2    0    0 -0.92451908715E+01  0.56911829374E+01  0.15258320918E+02  0.72461562146E+02  0.69999989385E+02 0.  0.
         12    1    1    2    0    0  0.92451908715E+01 -0.56911829374E+01 -0.15258320918E+02  0.18726437854E+02  0.00000000000E+00 0. -1.
         11    1    3    3    0    0 -0.21818453046E+02 -0.22245412345E+02  0.29024453561E+01  0.31294207979E+02  0.51100000000E-03 0. -1.
        -11    1    3    3    0    0 -0.23348067781E+01  0.22182895152E+02  0.26287411307E+01  0.22459796086E+02  0.51100000000E-03 0.  1.
         12    1    3    3    0    0  0.14908068953E+02  0.57537001304E+01  0.97271344310E+01  0.18707558080E+02  0.00000000000E+00 0. -1.
</event>
<event>
 7    1  0.1333056E-013  0.7246156E+02  0.7816164E-02  0.1226708E+00
        -11   -1    0    0    0    0  0.00000000000E+00  0.00000000000E+00  0.45593999997E+02  0.45594000000E+02  0.51100000000E-03 0.  1.
         11   -1    0    0    0    0 -0.00000000000E+00 -0.00000000000E+00 -0.45593999997E+02  0.45594000000E+02  0.51100000000E-03 0. -1.
    9900012    2    1    2    0    0  0.15069132337E+02 -0.69355553764E+01  0.86890018641E+01  0.72461563308E+02  0.69999990899E+02 0.  0.
         12    1    1    2    0    0 -0.15069132337E+02  0.69355553764E+01 -0.86890018641E+01  0.18726436692E+02  0.00000000000E+00 0. -1.
         11    1    3    3    0    0  0.39747217529E+02 -0.42390992368E+01  0.95806856621E+01  0.41104754003E+02  0.51100000000E-03 0.  1.
        -11    1    3    3    0    0 -0.79337736514E+01 -0.10189032638E+02 -0.15138514419E+01  0.13002034337E+02  0.51100000000E-03 0. -1.
         12    1    3    3    0    0 -0.16744311541E+02  0.74925764982E+01  0.62216764388E+00  0.18354774968E+02  0.00000000000E+00 0. -1.
</event>
<event>
 7    1  0.1333056E-013  0.7246156E+02  0.7816164E-02  0.1226708E+00
        -11   -1    0    0    0    0  0.00000000000E+00  0.00000000000E+00  0.45593999997E+02  0.45594000000E+02  0.51100000000E-03 0.  1.
         11   -1    0    0    0    0 -0.00000000000E+00 -0.00000000000E+00 -0.45593999997E+02  0.45594000000E+02  0.51100000000E-03 0. -1.
    9900012    2    1    2    0    0  0.79329926542E+01 -0.77225441816E+01  0.15103291608E+02  0.72461562045E+02  0.69999989253E+02 0.  0.
         12    1    1    2    0    0 -0.79329926542E+01  0.77225441816E+01 -0.15103291608E+02  0.18726437955E+02  0.00000000000E+00 0. -1.
         11    1    3    3    0    0 -0.84621306235E+01 -0.11367132168E+02  0.36306936497E+02  0.38974517142E+02  0.51100000000E-03 0.  1.
        -11    1    3    3    0    0  0.20266776276E+02  0.13074329095E+01 -0.20594564592E+02  0.28923825688E+02  0.51100000000E-03 0. -1.
        -12    1    3    3    0    0 -0.38716529986E+01  0.23371550767E+01 -0.60908029690E+00  0.45632192148E+01  0.00000000000E+00 0.  1.
</event>
<event>
 7    1  0.1333056E-013  0.7246164E+02  0.7816164E-02  0.1226708E+00
        -11   -1    0    0    0    0  0.00000000000E+00  0.00000000000E+00  0.45593999997E+02  0.45594000000E+02  0.51100000000E-03 0. -1.
         11   -1    0    0    0    0 -0.00000000000E+00 -0.00000000000E+00 -0.45593999997E+02  0.45594000000E+02  0.51100000000E-03 0.  1.
    9900012    2    1    2    0    0  0.32081701037E+01 -0.15513773938E+02 -0.99853373107E+01  0.72461641614E+02  0.70000092907E+02 0.  0.
         12    1    1    2    0    0 -0.32081701037E+01  0.15513773938E+02  0.99853373107E+01  0.18726358386E+02  0.00000000000E+00 0. -1.
         11    1    3    3    0    0  0.21052961038E+02 -0.16026402777E+02  0.13255604061E+02  0.29593644482E+02  0.51100000000E-03 0. -1.
        -11    1    3    3    0    0 -0.11376872648E+02  0.93245545979E+01  0.24829808341E+01  0.14917967146E+02  0.51100000000E-03 0.  1.
         12    1    3    3    0    0 -0.64679182863E+01 -0.88119257584E+01 -0.25723922206E+02  0.27950029985E+02  0.00000000000E+00 0. -1.
</event>
<event>
 7    1  0.1333056E-013  0.7246186E+02  0.7816164E-02  0.1226707E+00
        -11   -1    0    0    0    0  0.00000000000E+00  0.00000000000E+00  0.45593999997E+02  0.45594000000E+02  0.51100000000E-03 0. -1.
         11   -1    0    0    0    0 -0.00000000000E+00 -0.00000000000E+00 -0.45593999997E+02  0.45594000000E+02  0.51100000000E-03 0.  1.
    9900012    2    1    2    0    0  0.97045627863E+01 -0.72764390927E+01  0.14266851583E+02  0.72461864285E+02  0.70000382976E+02 0.  0.
         12    1    1    2    0    0 -0.97045627863E+01  0.72764390927E+01 -0.14266851583E+02  0.18726135715E+02  0.00000000000E+00 0. -1.
         11    1    3    3    0    0  0.21820587751E+02 -0.15872702617E+02  0.28127174638E+02  0.38977156022E+02  0.51100000000E-03 0. -1.
        -11    1    3    3    0    0 -0.80874424286E+01 -0.88061071645E+01 -0.90223356274E+01  0.14978544284E+02  0.51100000000E-03 0.  1.
         12    1    3    3    0    0 -0.40285825366E+01  0.17402370689E+02 -0.48379874277E+01  0.18506163979E+02  0.00000000000E+00 0. -1.
</event>
<event>
 7    1  0.1333056E-013  0.7246159E+02  0.7816164E-02  0.1226708E+00
        -11   -1    0    0    0    0  0.00000000000E+00  0.00000000000E+00  0.45593999997E+02  0.45594000000E+02  0.51100000000E-03 0.  1.
         11   -1    0    0    0    0 -0.00000000000E+00 -0.00000000000E+00 -0.45593999997E+02  0.45594000000E+02  0.51100000000E-03 0. -1.
    9900012    2    1    2    0    0 -0.16794062436E+02 -0.10513116929E+01  0.82178195867E+01  0.72461592226E+02  0.70000028570E+02 0.  0.
         12    1    1    2    0    0  0.16794062436E+02  0.10513116929E+01 -0.82178195867E+01  0.18726407774E+02  0.00000000000E+00 0. -1.
         11    1    3    3    0    0 -0.22572288494E+02  0.95643940689E+01  0.11657710543E+02  0.27145682108E+02  0.51100000000E-03 0. -1.
        -11    1    3    3    0    0  0.20304791476E+02  0.60291191405E+01 -0.82064643160E+01  0.22715212773E+02  0.51100000000E-03 0.  1.
         12    1    3    3    0    0 -0.14526565418E+02 -0.16644824902E+02  0.47665733592E+01  0.22600697345E+02  0.00000000000E+00 0. -1.
</event>
<event>
 7    1  0.1333056E-013  0.7246143E+02  0.7816164E-02  0.1226708E+00
        -11   -1    0    0    0    0  0.00000000000E+00  0.00000000000E+00  0.45593999997E+02  0.45594000000E+02  0.51100000000E-03 0.  1.
         11   -1    0    0    0    0 -0.00000000000E+00 -0.00000000000E+00 -0.45593999997E+02  0.45594000000E+02  0.51100000000E-03 0. -1.
    9900012    2    1    2    0    0  0.18181736304E+02  0.41872362536E+01  0.16050130049E+01  0.72461426656E+02  0.69999812884E+02 0.  0.
         12    1    1    2    0    0 -0.18181736304E+02 -0.41872362536E+01 -0.16050130049E+01  0.18726573344E+02  0.00000000000E+00 0. -1.
         11    1    3    3    0    0 -0.16194379163E+01  0.41672850698E+01 -0.29919383864E+02  0.30251584671E+02  0.51100000000E-03 0. -1.
        -11    1    3    3    0    0  0.74335277552E+00  0.69449900985E+01  0.12939528416E+02  0.14704314221E+02  0.51100000000E-03 0.  1.
         12    1    3    3    0    0  0.19057821444E+02 -0.69250389148E+01  0.18584868453E+02  0.27505527765E+02  0.00000000000E+00 0. -1.
</event>
<event>
 7    1  0.1509023E-013  0.7246160E+02  0.7816164E-02  0.1226708E+00
        -11   -1    0    0    0    0  0.00000000000E+00  0.00000000000E+00  0.45593999997E+02  0.45594000000E+02  0.51100000000E-03 0. -1.
         11   -1    0    0    0    0 -0.00000000000E+00 -0.00000000000E+00 -0.45593999997E+02  0.45594000000E+02  0.51100000000E-03 0.  1.
    9900012    2    1    2    0    0  0.13415541682E+02 -0.61296223676E+01 -0.11538161901E+02  0.72461595939E+02  0.70000033407E+02 0.  0.
         12    1    1    2    0    0 -0.13415541682E+02  0.61296223676E+01  0.11538161901E+02  0.18726404061E+02  0.00000000000E+00 0. -1.
         11    1    3    3    0    0  0.12995698376E+02 -0.11831230967E+02  0.13764671087E+02  0.22323359354E+02  0.51100000000E-03 0. -1.
        -11    1    3    3    0    0 -0.54549730020E+01 -0.14426383548E+02 -0.24751006802E+02  0.29163155020E+02  0.51100000000E-03 0.  1.
        -12    1    3    3    0    0  0.58748163086E+01  0.20127992147E+02 -0.55182618637E+00  0.20975081565E+02  0.00000000000E+00 0.  1.
</event>
<event>
 7    1  0.1333056E-013  0.7246160E+02  0.7816164E-02  0.1226708E+00
        -11   -1    0    0    0    0  0.00000000000E+00  0.00000000000E+00  0.45593999997E+02  0.45594000000E+02  0.51100000000E-03 0.  1.
         11   -1    0    0    0    0 -0.00000000000E+00 -0.00000000000E+00 -0.45593999997E+02  0.45594000000E+02  0.51100000000E-03 0. -1.
    9900012    2    1    2    0    0 -0.17100817715E+01 -0.80970287348E+01  0.16798560009E+02  0.72461604929E+02  0.70000045118E+02 0.  0.
         12    1    1    2    0    0  0.17100817715E+01  0.80970287348E+01 -0.16798560009E+02  0.18726395071E+02  0.00000000000E+00 0. -1.
         11    1    3    3    0    0 -0.24457612469E+02  0.16832076122E+01  0.30992220000E+01  0.24710588274E+02  0.51100000000E-03 0. -1.
        -11    1    3    3    0    0  0.11936731507E+02 -0.24341481647E+02  0.47363642536E+01  0.27521381405E+02  0.51100000000E-03 0.  1.
         12    1    3    3    0    0  0.10810799191E+02  0.14561245300E+02  0.89629737551E+01  0.20229635250E+02  0.00000000000E+00 0. -1.
</event>
<event>
 7    1  0.1333056E-013  0.7246159E+02  0.7816164E-02  0.1226708E+00
        -11   -1    0    0    0    0  0.00000000000E+00  0.00000000000E+00  0.45593999997E+02  0.45594000000E+02  0.51100000000E-03 0.  1.
         11   -1    0    0    0    0 -0.00000000000E+00 -0.00000000000E+00 -0.45593999997E+02  0.45594000000E+02  0.51100000000E-03 0. -1.
    9900012    2    1    2    0    0  0.18061975994E+02  0.28733295902E+01 -0.40233511299E+01  0.72461592068E+02  0.70000028364E+02 0.  0.
         12    1    1    2    0    0 -0.18061975994E+02 -0.28733295902E+01  0.40233511299E+01  0.18726407932E+02  0.00000000000E+00 0. -1.
         11    1    3    3    0    0 -0.77116749458E+01  0.27149738879E+01 -0.22039894525E+02  0.23507402336E+02  0.51100000000E-03 0. -1.
        -11    1    3    3    0    0  0.18270985237E+02  0.17382675202E+02  0.16432614849E+02  0.30100118434E+02  0.51100000000E-03 0.  1.
        -12    1    3    3    0    0  0.75026657026E+01 -0.17224319499E+02  0.15839285459E+01  0.18854071298E+02  0.00000000000E+00 0.  1.
</event>
<event>
 7    1  0.1333056E-013  0.7246161E+02  0.7816164E-02  0.1226708E+00
        -11   -1    0    0    0    0  0.00000000000E+00  0.00000000000E+00  0.45593999997E+02  0.45594000000E+02  0.51100000000E-03 0.  1.
         11   -1    0    0    0    0 -0.00000000000E+00 -0.00000000000E+00 -0.45593999997E+02  0.45594000000E+02  0.51100000000E-03 0. -1.
    9900012    2    1    2    0    0 -0.11844100912E+01  0.15506072329E+02 -0.10432481056E+02  0.72461607734E+02  0.70000048772E+02 0.  0.
         12    1    1    2    0    0  0.11844100912E+01 -0.15506072329E+02  0.10432481056E+02  0.18726392266E+02  0.00000000000E+00 0. -1.
         11    1    3    3    0    0 -0.31801580261E+02  0.11539187320E+02 -0.83683055064E+01  0.34849991225E+02  0.51100000000E-03 0. -1.
        -11    1    3    3    0    0  0.78884071065E+01  0.71320517211E+01  0.72229319283E+01  0.12855499770E+02  0.51100000000E-03 0.  1.
         12    1    3    3    0    0  0.22728763063E+02 -0.31651667123E+01 -0.92871074774E+01  0.24756116739E+02  0.00000000000E+00 0. -1.
</event>
<event>
 8    1  0.1333056E-013  0.7246160E+02  0.7816164E-02  0.1226708E+00
        -11   -1    0    0    0    0  0.00000000000E+00  0.00000000000E+00  0.45593999997E+02  0.45594000000E+02  0.51100000000E-03 0. -1.
         11   -1    0    0    0    0 -0.00000000000E+00 -0.00000000000E+00 -0.45593999997E+02  0.45594000000E+02  0.51100000000E-03 0.  1.
    9900012    2    1    2    0    0 -0.14583883875E+02  0.11106979309E+02 -0.38240580190E+01  0.72461599439E+02  0.70000037966E+02 0.  0.
         24    2    3    3    0    0 -0.24169060218E+02 -0.23218935207E+01  0.18552062098E+01  0.55012694790E+02  0.49329708459E+02 0.  0.
         12    1    1    2    0    0  0.14583883875E+02 -0.11106979309E+02  0.38240580190E+01  0.18726400561E+02  0.00000000000E+00 0. -1.
         11    1    3    3    0    0  0.95851763426E+01  0.13428872830E+02 -0.56792642287E+01  0.17448904649E+02  0.51100000000E-03 0. -1.
        -11    1    4    4    0    0 -0.36791548272E+02  0.77125935917E+01  0.66824124788E+01  0.38180580940E+02  0.51100000000E-03 0.  1.
         12    1    4    4    0    0  0.12622488054E+02 -0.10034487112E+02 -0.48272062690E+01  0.16832113850E+02  0.00000000000E+00 0. -1.
</event>
<event>
 7    1  0.1333056E-013  0.7246163E+02  0.7816164E-02  0.1226708E+00
        -11   -1    0    0    0    0  0.00000000000E+00  0.00000000000E+00  0.45593999997E+02  0.45594000000E+02  0.51100000000E-03 0. -1.
         11   -1    0    0    0    0 -0.00000000000E+00 -0.00000000000E+00 -0.45593999997E+02  0.45594000000E+02  0.51100000000E-03 0.  1.
    9900012    2    1    2    0    0  0.10668930293E+02 -0.15384229507E+02  0.41986462326E+00  0.72461631494E+02  0.70000079724E+02 0.  0.
         12    1    1    2    0    0 -0.10668930293E+02  0.15384229507E+02 -0.41986462326E+00  0.18726368506E+02  0.00000000000E+00 0. -1.
         11    1    3    3    0    0  0.20685058160E+02  0.26559580931E+01  0.69303081978E+00  0.20866385323E+02  0.51100000000E-03 0.  1.
        -11    1    3    3    0    0 -0.64331684594E+01 -0.23620506488E+02  0.19143638728E+02  0.31077208484E+02  0.51100000000E-03 0. -1.
        -12    1    3    3    0    0 -0.35829594080E+01  0.55803188874E+01 -0.19416804925E+02  0.20518037686E+02  0.00000000000E+00 0.  1.
</event>
<event>
 7    1  0.1333056E-013  0.7246158E+02  0.7816164E-02  0.1226708E+00
        -11   -1    0    0    0    0  0.00000000000E+00  0.00000000000E+00  0.45593999997E+02  0.45594000000E+02  0.51100000000E-03 0. -1.
         11   -1    0    0    0    0 -0.00000000000E+00 -0.00000000000E+00 -0.45593999997E+02  0.45594000000E+02  0.51100000000E-03 0.  1.
    9900012    2    1    2    0    0  0.52844378560E+01  0.14606939366E+02 -0.10459008532E+02  0.72461579611E+02  0.70000012137E+02 0.  0.
         12    1    1    2    0    0 -0.52844378560E+01 -0.14606939366E+02  0.10459008532E+02  0.18726420389E+02  0.00000000000E+00 0. -1.
         11    1    3    3    0    0  0.39503838034E+01  0.36829557627E+02 -0.26046400502E+02  0.45281749376E+02  0.51100000000E-03 0.  1.
        -11    1    3    3    0    0  0.96223550142E+00 -0.15252703550E+02  0.10912923928E+02  0.18779317657E+02  0.51100000000E-03 0. -1.
        -12    1    3    3    0    0  0.37181855119E+00 -0.69699147106E+01  0.46744680420E+01  0.84005125786E+01  0.00000000000E+00 0.  1.
</event>
<event>
 7    1  0.1333056E-013  0.7246157E+02  0.7816164E-02  0.1226708E+00
        -11   -1    0    0    0    0  0.00000000000E+00  0.00000000000E+00  0.45593999997E+02  0.45594000000E+02  0.51100000000E-03 0. -1.
         11   -1    0    0    0    0 -0.00000000000E+00 -0.00000000000E+00 -0.45593999997E+02  0.45594000000E+02  0.51100000000E-03 0.  1.
    9900012    2    1    2    0    0 -0.17916624215E+02  0.54003074652E+01 -0.71442402327E+00  0.72461570931E+02  0.70000000829E+02 0.  0.
         12    1    1    2    0    0  0.17916624215E+02 -0.54003074652E+01  0.71442402327E+00  0.18726429069E+02  0.00000000000E+00 0. -1.
         11    1    3    3    0    0 -0.44126934578E+02 -0.18723791514E+01  0.29268059717E+01  0.44263510394E+02  0.51100000000E-03 0. -1.
        -11    1    3    3    0    0  0.19544289070E+02  0.24077227403E+01 -0.30192897949E+01  0.19922160404E+02  0.51100000000E-03 0.  1.
         12    1    3    3    0    0  0.66660212930E+01  0.48649638763E+01 -0.62194020014E+00  0.82759001329E+01  0.00000000000E+00 0. -1.
</event>
<event>
 7    1  0.1333056E-013  0.7246159E+02  0.7816164E-02  0.1226708E+00
        -11   -1    0    0    0    0  0.00000000000E+00  0.00000000000E+00  0.45593999997E+02  0.45594000000E+02  0.51100000000E-03 0. -1.
         11   -1    0    0    0    0 -0.00000000000E+00 -0.00000000000E+00 -0.45593999997E+02  0.45594000000E+02  0.51100000000E-03 0.  1.
    9900012    2    1    2    0    0 -0.73241705348E+01  0.11615941715E+02 -0.12732047682E+02  0.72461585123E+02  0.70000019317E+02 0.  0.
         12    1    1    2    0    0  0.73241705348E+01 -0.11615941715E+02  0.12732047682E+02  0.18726414877E+02  0.00000000000E+00 0. -1.
         11    1    3    3    0    0 -0.33411231263E+01  0.36100841193E+02 -0.14924804846E+02  0.39206933551E+02  0.51100000000E-03 0. -1.
        -11    1    3    3    0    0  0.54908088600E+01 -0.63259990740E+01 -0.68930889193E+01  0.10848129854E+02  0.51100000000E-03 0.  1.
         12    1    3    3    0    0 -0.94738562685E+01 -0.18158900403E+02  0.90858460826E+01  0.22406521718E+02  0.00000000000E+00 0. -1.
</event>
<event>
 7    1  0.1333056E-013  0.7246159E+02  0.7816164E-02  0.1226708E+00
        -11   -1    0    0    0    0  0.00000000000E+00  0.00000000000E+00  0.45593999997E+02  0.45594000000E+02  0.51100000000E-03 0. -1.
         11   -1    0    0    0    0 -0.00000000000E+00 -0.00000000000E+00 -0.45593999997E+02  0.45594000000E+02  0.51100000000E-03 0.  1.
    9900012    2    1    2    0    0 -0.31793224177E+01 -0.27394379478E+01 -0.18250086764E+02  0.72461594093E+02  0.70000031002E+02 0.  0.
         12    1    1    2    0    0  0.31793224177E+01  0.27394379478E+01  0.18250086764E+02  0.18726405907E+02  0.00000000000E+00 0. -1.
         11    1    3    3    0    0  0.19998990760E+02 -0.25994523124E+02 -0.71188678481E+01  0.33561185074E+02  0.51100000000E-03 0. -1.
        -11    1    3    3    0    0 -0.56436305237E+01  0.74836613363E+01 -0.12088959383E+02  0.15297015778E+02  0.51100000000E-03 0.  1.
         12    1    3    3    0    0 -0.17534682654E+02  0.15771423840E+02  0.95774046670E+00  0.23603393241E+02  0.00000000000E+00 0. -1.
</event>
<event>
 7    1  0.1333056E-013  0.7246158E+02  0.7816164E-02  0.1226708E+00
        -11   -1    0    0    0    0  0.00000000000E+00  0.00000000000E+00  0.45593999997E+02  0.45594000000E+02  0.51100000000E-03 0.  1.
         11   -1    0    0    0    0 -0.00000000000E+00 -0.00000000000E+00 -0.45593999997E+02  0.45594000000E+02  0.51100000000E-03 0. -1.
    9900012    2    1    2    0    0 -0.47684825712E+01  0.12356977557E+02  0.13238032676E+02  0.72461579373E+02  0.70000011827E+02 0.  0.
         12    1    1    2    0    0  0.47684825712E+01 -0.12356977557E+02 -0.13238032676E+02  0.18726420627E+02  0.00000000000E+00 0. -1.
         11    1    3    3    0    0  0.71917890409E+01 -0.76806118167E+01 -0.15854432294E+02  0.19028311830E+02  0.51100000000E-03 0. -1.
        -11    1    3    3    0    0 -0.13661564224E+02 -0.31267727216E+01  0.26608976650E+02  0.30074119826E+02  0.51100000000E-03 0.  1.
        -12    1    3    3    0    0  0.17012926119E+01  0.23164362095E+02  0.24834883195E+01  0.23359147717E+02  0.00000000000E+00 0.  1.
</event>
<event>
 7    1  0.1333056E-013  0.7246157E+02  0.7816164E-02  0.1226708E+00
        -11   -1    0    0    0    0  0.00000000000E+00  0.00000000000E+00  0.45593999997E+02  0.45594000000E+02  0.51100000000E-03 0.  1.
         11   -1    0    0    0    0 -0.00000000000E+00 -0.00000000000E+00 -0.45593999997E+02  0.45594000000E+02  0.51100000000E-03 0. -1.
    9900012    2    1    2    0    0  0.41279041973E+00  0.96815116109E+01  0.16024269302E+02  0.72461567621E+02  0.69999996517E+02 0.  0.
         12    1    1    2    0    0 -0.41279041973E+00 -0.96815116109E+01 -0.16024269302E+02  0.18726432379E+02  0.00000000000E+00 0. -1.
         11    1    3    3    0    0  0.67058120739E+01 -0.96954146944E-01 -0.28611526192E+01  0.72913311712E+01  0.51100000000E-03 0. -1.
        -11    1    3    3    0    0 -0.20528565061E+02 -0.20345185710E+02  0.64966717965E+01  0.29623560044E+02  0.51100000000E-03 0.  1.
        -12    1    3    3    0    0  0.14235543407E+02  0.30123651467E+02  0.12388750124E+02  0.35546676405E+02  0.00000000000E+00 0.  1.
</event>
<event>
 7    1  0.1333056E-013  0.7246155E+02  0.7816164E-02  0.1226708E+00
        -11   -1    0    0    0    0  0.00000000000E+00  0.00000000000E+00  0.45593999997E+02  0.45594000000E+02  0.51100000000E-03 0.  1.
         11   -1    0    0    0    0 -0.00000000000E+00 -0.00000000000E+00 -0.45593999997E+02  0.45594000000E+02  0.51100000000E-03 0. -1.
    9900012    2    1    2    0    0 -0.43122888934E+01  0.17560825627E+02  0.48684258281E+01  0.72461548060E+02  0.69999971036E+02 0.  0.
         12    1    1    2    0    0  0.43122888934E+01 -0.17560825627E+02 -0.48684258281E+01  0.18726451940E+02  0.00000000000E+00 0. -1.
         11    1    3    3    0    0  0.16389731702E+02  0.14092845233E+02 -0.15457316625E+02  0.26573675499E+02  0.51100000000E-03 0. -1.
        -11    1    3    3    0    0 -0.20627586794E+02  0.13062119227E+02  0.25232803227E+02  0.35111403484E+02  0.51100000000E-03 0.  1.
         12    1    3    3    0    0 -0.74433801006E-01 -0.95941388329E+01 -0.49070607739E+01  0.10776469077E+02  0.00000000000E+00 0. -1.
</event>
<event>
 7    1  0.1333056E-013  0.7246159E+02  0.7816164E-02  0.1226708E+00
        -11   -1    0    0    0    0  0.00000000000E+00  0.00000000000E+00  0.45593999997E+02  0.45594000000E+02  0.51100000000E-03 0. -1.
         11   -1    0    0    0    0 -0.00000000000E+00 -0.00000000000E+00 -0.45593999997E+02  0.45594000000E+02  0.51100000000E-03 0.  1.
    9900012    2    1    2    0    0  0.72101295044E+01 -0.17064197387E+02  0.27396244934E+01  0.72461592382E+02  0.70000028773E+02 0.  0.
         12    1    1    2    0    0 -0.72101295044E+01  0.17064197387E+02 -0.27396244934E+01  0.18726407618E+02  0.00000000000E+00 0. -1.
         11    1    3    3    0    0  0.19207163388E+01  0.18639641101E+02  0.20713053237E+00  0.18739484383E+02  0.51100000000E-03 0. -1.
        -11    1    3    3    0    0 -0.65237900904E+00 -0.24155737945E+02 -0.17508680762E+02  0.29840897713E+02  0.51100000000E-03 0.  1.
        -12    1    3    3    0    0  0.59417921747E+01 -0.11548100543E+02  0.20041174723E+02  0.23881210285E+02  0.00000000000E+00 0.  1.
</event>
<event>
 7    1  0.1333056E-013  0.7246160E+02  0.7816164E-02  0.1226708E+00
        -11   -1    0    0    0    0  0.00000000000E+00  0.00000000000E+00  0.45593999997E+02  0.45594000000E+02  0.51100000000E-03 0. -1.
         11   -1    0    0    0    0 -0.00000000000E+00 -0.00000000000E+00 -0.45593999997E+02  0.45594000000E+02  0.51100000000E-03 0.  1.
    9900012    2    1    2    0    0  0.98647876471E+01  0.15778652057E+02  0.20971455717E+01  0.72461603774E+02  0.70000043613E+02 0.  0.
         12    1    1    2    0    0 -0.98647876471E+01 -0.15778652057E+02 -0.20971455717E+01  0.18726396226E+02  0.00000000000E+00 0. -1.
         11    1    3    3    0    0  0.11722916512E+02  0.82327542064E+01  0.79457498941E+01  0.16381085282E+02  0.51100000000E-03 0. -1.
        -11    1    3    3    0    0  0.24052477516E+00 -0.23309721270E+02 -0.90117960539E+01  0.24992267329E+02  0.51100000000E-03 0.  1.
        -12    1    3    3    0    0 -0.20986536404E+01  0.30855619121E+02  0.31631917315E+01  0.31088251163E+02  0.00000000000E+00 0.  1.
</event>
<event>
 7    1  0.1333056E-013  0.7246164E+02  0.7816164E-02  0.1226708E+00
        -11   -1    0    0    0    0  0.00000000000E+00  0.00000000000E+00  0.45593999997E+02  0.45594000000E+02  0.51100000000E-03 0. -1.
         11   -1    0    0    0    0 -0.00000000000E+00 -0.00000000000E+00 -0.45593999997E+02  0.45594000000E+02  0.51100000000E-03 0.  1.
    9900012    2    1    2    0    0 -0.15794254288E+02  0.36684262569E+00 -0.10054032840E+02  0.72461638410E+02  0.70000088734E+02 0.  0.
         12    1    1    2    0    0  0.15794254288E+02 -0.36684262569E+00  0.10054032840E+02  0.18726361590E+02  0.00000000000E+00 0. -1.
         11    1    3    3    0    0 -0.19944314886E+02  0.25181979028E+01 -0.44202552343E+01  0.20582897598E+02  0.51100000000E-03 0. -1.
        -11    1    3    3    0    0  0.21354228609E+02  0.15905180923E+02 -0.25505816502E+01  0.26748520084E+02  0.51100000000E-03 0.  1.
        -12    1    3    3    0    0 -0.17204168011E+02 -0.18056536200E+02 -0.30831959559E+01  0.25130220728E+02  0.00000000000E+00 0.  1.
</event>
<event>
 7    1  0.1333056E-013  0.7246159E+02  0.7816164E-02  0.1226708E+00
        -11   -1    0    0    0    0  0.00000000000E+00  0.00000000000E+00  0.45593999997E+02  0.45594000000E+02  0.51100000000E-03 0.  1.
         11   -1    0    0    0    0 -0.00000000000E+00 -0.00000000000E+00 -0.45593999997E+02  0.45594000000E+02  0.51100000000E-03 0. -1.
    9900012    2    1    2    0    0 -0.84933247682E+01  0.10733092898E+02  0.12780551510E+02  0.72461592291E+02  0.70000028654E+02 0.  0.
         12    1    1    2    0    0  0.84933247682E+01 -0.10733092898E+02 -0.12780551510E+02  0.18726407709E+02  0.00000000000E+00 0. -1.
         11    1    3    3    0    0 -0.25222916520E+02  0.44758329783E+01 -0.15350051446E+02  0.29863902596E+02  0.51100000000E-03 0. -1.
        -11    1    3    3    0    0  0.22516427139E+02 -0.29585580727E+00  0.24060296369E+02  0.32954133024E+02  0.51100000000E-03 0.  1.
        -12    1    3    3    0    0 -0.57868353873E+01  0.65531157274E+01  0.40703065878E+01  0.96435566704E+01  0.00000000000E+00 0.  1.
</event>
<event>
 7    1  0.1453829E-013  0.7246159E+02  0.7816164E-02  0.1226708E+00
        -11   -1    0    0    0    0  0.00000000000E+00  0.00000000000E+00  0.45593999997E+02  0.45594000000E+02  0.51100000000E-03 0. -1.
         11   -1    0    0    0    0 -0.00000000000E+00 -0.00000000000E+00 -0.45593999997E+02  0.45594000000E+02  0.51100000000E-03 0.  1.
    9900012    2    1    2    0    0 -0.80104089756E+01  0.78718951566E+01 -0.14984822580E+02  0.72461593696E+02  0.70000030485E+02 0.  0.
         12    1    1    2    0    0  0.80104089756E+01 -0.78718951566E+01  0.14984822580E+02  0.18726406304E+02  0.00000000000E+00 0. -1.
         11    1    3    3    0    0 -0.93718219743E+01  0.30047598024E+02 -0.79707536104E+00  0.31485306470E+02  0.51100000000E-03 0.  1.
        -11    1    3    3    0    0  0.84746779800E+01 -0.11695201816E+02 -0.21835640563E+02  0.26180013587E+02  0.51100000000E-03 0. -1.
        -12    1    3    3    0    0 -0.71132649812E+01 -0.10480501052E+02  0.76478933446E+01  0.14796273639E+02  0.00000000000E+00 0.  1.
</event>
<event>
 7    1  0.1333056E-013  0.7246160E+02  0.7816164E-02  0.1226708E+00
        -11   -1    0    0    0    0  0.00000000000E+00  0.00000000000E+00  0.45593999997E+02  0.45594000000E+02  0.51100000000E-03 0.  1.
         11   -1    0    0    0    0 -0.00000000000E+00 -0.00000000000E+00 -0.45593999997E+02  0.45594000000E+02  0.51100000000E-03 0. -1.
    9900012    2    1    2    0    0 -0.95790155884E+01 -0.11922571428E+02 -0.10806153263E+02  0.72461596249E+02  0.70000033810E+02 0.  0.
         12    1    1    2    0    0  0.95790155884E+01  0.11922571428E+02  0.10806153263E+02  0.18726403751E+02  0.00000000000E+00 0. -1.
         11    1    3    3    0    0 -0.13753257935E+02 -0.28088395433E+02 -0.22306235786E+02  0.38414557358E+02  0.51100000000E-03 0. -1.
        -11    1    3    3    0    0 -0.10025265688E+02  0.29673676910E+01 -0.17014018308E+01  0.10592732961E+02  0.51100000000E-03 0.  1.
         12    1    3    3    0    0  0.14199508035E+02  0.13198456314E+02  0.13201484354E+02  0.23454305929E+02  0.00000000000E+00 0. -1.
</event>
<event>
 7    1  0.1333056E-013  0.7246162E+02  0.7816164E-02  0.1226708E+00
        -11   -1    0    0    0    0  0.00000000000E+00  0.00000000000E+00  0.45593999997E+02  0.45594000000E+02  0.51100000000E-03 0.  1.
         11   -1    0    0    0    0 -0.00000000000E+00 -0.00000000000E+00 -0.45593999997E+02  0.45594000000E+02  0.51100000000E-03 0. -1.
    9900012    2    1    2    0    0  0.16447156231E+02  0.54201578712E+01  0.71267297818E+01  0.72461619228E+02  0.70000063745E+02 0.  0.
         12    1    1    2    0    0 -0.16447156231E+02 -0.54201578712E+01 -0.71267297818E+01  0.18726380772E+02  0.00000000000E+00 0. -1.
         11    1    3    3    0    0 -0.12304086939E+02 -0.40164226407E+01 -0.20749513128E+02  0.24455357318E+02  0.51100000000E-03 0. -1.
        -11    1    3    3    0    0  0.11347973534E+02  0.77521508903E+01  0.27239538273E+02  0.30510076898E+02  0.51100000000E-03 0.  1.
         12    1    3    3    0    0  0.17403269636E+02  0.16844296217E+01  0.63670463761E+00  0.17496185012E+02  0.00000000000E+00 0. -1.
</event>
<event>
 7    1  0.1333056E-013  0.7246158E+02  0.7816164E-02  0.1226708E+00
        -11   -1    0    0    0    0  0.00000000000E+00  0.00000000000E+00  0.45593999997E+02  0.45594000000E+02  0.51100000000E-03 0. -1.
         11   -1    0    0    0    0 -0.00000000000E+00 -0.00000000000E+00 -0.45593999997E+02  0.45594000000E+02  0.51100000000E-03 0.  1.
    9900012    2    1    2    0    0 -0.10624081938E+02 -0.68920393316E+01 -0.13795201318E+02  0.72461577422E+02  0.70000009285E+02 0.  0.
         12    1    1    2    0    0  0.10624081938E+02  0.68920393316E+01  0.13795201318E+02  0.18726422578E+02  0.00000000000E+00 0. -1.
         11    1    3    3    0    0 -0.28292254545E+02 -0.24101304437E+02  0.60938103352E+00  0.37171170123E+02  0.51100000000E-03 0. -1.
        -11    1    3    3    0    0  0.60645221043E+01 -0.44909679564E+01 -0.24627168079E+01  0.79380221640E+01  0.51100000000E-03 0.  1.
         12    1    3    3    0    0  0.11603650503E+02  0.21700233062E+02 -0.11941865544E+02  0.27352385135E+02  0.00000000000E+00 0. -1.
</event>
<event>
 7    1  0.1333056E-013  0.7246150E+02  0.7816164E-02  0.1226708E+00
        -11   -1    0    0    0    0  0.00000000000E+00  0.00000000000E+00  0.45593999997E+02  0.45594000000E+02  0.51100000000E-03 0.  1.
         11   -1    0    0    0    0 -0.00000000000E+00 -0.00000000000E+00 -0.45593999997E+02  0.45594000000E+02  0.51100000000E-03 0. -1.
    9900012    2    1    2    0    0  0.42884531642E+01 -0.11873305565E+02  0.13831690178E+02  0.72461498224E+02  0.69999906115E+02 0.  0.
         12    1    1    2    0    0 -0.42884531642E+01  0.11873305565E+02 -0.13831690178E+02  0.18726501776E+02  0.00000000000E+00 0. -1.
         11    1    3    3    0    0  0.82626901439E+01 -0.25036568466E+02 -0.19602127019E+01  0.26437553651E+02  0.51100000000E-03 0. -1.
        -11    1    3    3    0    0 -0.49726541056E+01  0.23133355734E+02 -0.38509227966E+01  0.23973089977E+02  0.51100000000E-03 0.  1.
        -12    1    3    3    0    0  0.99841712590E+00 -0.99700928329E+01  0.19642825677E+02  0.22050854596E+02  0.00000000000E+00 0.  1.
</event>
<event>
 7    1  0.1333056E-013  0.7246154E+02  0.7816164E-02  0.1226708E+00
        -11   -1    0    0    0    0  0.00000000000E+00  0.00000000000E+00  0.45593999997E+02  0.45594000000E+02  0.51100000000E-03 0.  1.
         11   -1    0    0    0    0 -0.00000000000E+00 -0.00000000000E+00 -0.45593999997E+02  0.45594000000E+02  0.51100000000E-03 0. -1.
    9900012    2    1    2    0    0  0.37270723308E+00  0.93685976619E+01  0.16210202497E+02  0.72461542838E+02  0.69999964233E+02 0.  0.
         12    1    1    2    0    0 -0.37270723308E+00 -0.93685976619E+01 -0.16210202497E+02  0.18726457162E+02  0.00000000000E+00 0. -1.
         11    1    3    3    0    0  0.80787272775E+01  0.32178712842E+02 -0.33324544680E+01  0.33344274585E+02  0.51100000000E-03 0. -1.
        -11    1    3    3    0    0 -0.41849141394E+01 -0.27580430593E+02  0.15204525027E+02  0.31770603387E+02  0.51100000000E-03 0.  1.
         12    1    3    3    0    0 -0.35211059051E+01  0.47703154129E+01  0.43381319383E+01  0.73466648656E+01  0.00000000000E+00 0. -1.
</event>
<event>
 7    1  0.1333056E-013  0.7246158E+02  0.7816164E-02  0.1226708E+00
        -11   -1    0    0    0    0  0.00000000000E+00  0.00000000000E+00  0.45593999997E+02  0.45594000000E+02  0.51100000000E-03 0. -1.
         11   -1    0    0    0    0 -0.00000000000E+00 -0.00000000000E+00 -0.45593999997E+02  0.45594000000E+02  0.51100000000E-03 0.  1.
    9900012    2    1    2    0    0 -0.17901124004E+02 -0.49742526551E+01 -0.23421036984E+01  0.72461578030E+02  0.70000010077E+02 0.  0.
         12    1    1    2    0    0  0.17901124004E+02  0.49742526551E+01  0.23421036984E+01  0.18726421970E+02  0.00000000000E+00 0. -1.
         11    1    3    3    0    0  0.18575793866E+02  0.14258168073E+02  0.10876185825E+02  0.25819506055E+02  0.51100000000E-03 0. -1.
        -11    1    3    3    0    0 -0.15814292474E+02 -0.63659353138E+01 -0.14337656963E+02  0.22275219108E+02  0.51100000000E-03 0.  1.
         12    1    3    3    0    0 -0.20662625396E+02 -0.12866485414E+02  0.11193674397E+01  0.24366852867E+02  0.00000000000E+00 0. -1.
</event>
<event>
 7    1  0.1333056E-013  0.7246084E+02  0.7816164E-02  0.1226710E+00
        -11   -1    0    0    0    0  0.00000000000E+00  0.00000000000E+00  0.45593999997E+02  0.45594000000E+02  0.51100000000E-03 0.  1.
         11   -1    0    0    0    0 -0.00000000000E+00 -0.00000000000E+00 -0.45593999997E+02  0.45594000000E+02  0.51100000000E-03 0. -1.
    9900012    2    1    2    0    0  0.14955082892E+02 -0.11246715326E+02 -0.75055124019E+00  0.72460842258E+02  0.69999051591E+02 0.  0.
         12    1    1    2    0    0 -0.14955082892E+02  0.11246715326E+02  0.75055124019E+00  0.18727157742E+02  0.00000000000E+00 0. -1.
         11    1    3    3    0    0  0.28915558260E+02  0.19403240708E+00 -0.94850145268E+00  0.28931761324E+02  0.51100000000E-03 0. -1.
        -11    1    3    3    0    0 -0.95788107839E+01 -0.12135446548E+02  0.18837110034E+02  0.24369230469E+02  0.51100000000E-03 0.  1.
         12    1    3    3    0    0 -0.43816645834E+01  0.69469881530E+00 -0.18639159822E+02  0.19159850465E+02  0.00000000000E+00 0. -1.
</event>
<event>
 7    1  0.1333056E-013  0.7246159E+02  0.7816164E-02  0.1226708E+00
        -11   -1    0    0    0    0  0.00000000000E+00  0.00000000000E+00  0.45593999997E+02  0.45594000000E+02  0.51100000000E-03 0. -1.
         11   -1    0    0    0    0 -0.00000000000E+00 -0.00000000000E+00 -0.45593999997E+02  0.45594000000E+02  0.51100000000E-03 0.  1.
    9900012    2    1    2    0    0  0.77898296596E+01 -0.11482280819E+02 -0.12575932769E+02  0.72461593406E+02  0.70000030107E+02 0.  0.
         12    1    1    2    0    0 -0.77898296596E+01  0.11482280819E+02  0.12575932769E+02  0.18726406594E+02  0.00000000000E+00 0. -1.
         11    1    3    3    0    0 -0.15990509581E+02 -0.22987798715E+02  0.57786031089E+01  0.28592438521E+02  0.51100000000E-03 0. -1.
        -11    1    3    3    0    0  0.17651925623E+02  0.17518332718E+02 -0.14526479614E+01  0.24911696967E+02  0.51100000000E-03 0.  1.
         12    1    3    3    0    0  0.61284136179E+01 -0.60128148216E+01 -0.16901887917E+02  0.18957457918E+02  0.00000000000E+00 0. -1.
</event>
<event>
 7    1  0.1333056E-013  0.7246158E+02  0.7816164E-02  0.1226708E+00
        -11   -1    0    0    0    0  0.00000000000E+00  0.00000000000E+00  0.45593999997E+02  0.45594000000E+02  0.51100000000E-03 0.  1.
         11   -1    0    0    0    0 -0.00000000000E+00 -0.00000000000E+00 -0.45593999997E+02  0.45594000000E+02  0.51100000000E-03 0. -1.
    9900012    2    1    2    0    0  0.79364975881E+01  0.16493539569E+02  0.39565217121E+01  0.72461577343E+02  0.70000009182E+02 0.  0.
         12    1    1    2    0    0 -0.79364975881E+01 -0.16493539569E+02 -0.39565217121E+01  0.18726422657E+02  0.00000000000E+00 0. -1.
         11    1    3    3    0    0  0.31218971667E+02 -0.10225617260E+02  0.54971078535E+01  0.33307741372E+02  0.51100000000E-03 0. -1.
        -11    1    3    3    0    0 -0.22893117224E+02  0.15738809190E+02 -0.34741040661E+01  0.27997755808E+02  0.51100000000E-03 0.  1.
        -12    1    3    3    0    0 -0.38935685546E+00  0.10980347639E+02  0.19335179247E+01  0.11156080163E+02  0.00000000000E+00 0.  1.
</event>
<event>
 7    1  0.1333056E-013  0.7246163E+02  0.7816164E-02  0.1226708E+00
        -11   -1    0    0    0    0  0.00000000000E+00  0.00000000000E+00  0.45593999997E+02  0.45594000000E+02  0.51100000000E-03 0.  1.
         11   -1    0    0    0    0 -0.00000000000E+00 -0.00000000000E+00 -0.45593999997E+02  0.45594000000E+02  0.51100000000E-03 0. -1.
    9900012    2    1    2    0    0  0.20069931862E+01 -0.10300456604E+02  0.15509662419E+02  0.72461626719E+02  0.70000073504E+02 0.  0.
         12    1    1    2    0    0 -0.20069931862E+01  0.10300456604E+02 -0.15509662419E+02  0.18726373281E+02  0.00000000000E+00 0. -1.
         11    1    3    3    0    0  0.49391942140E+01  0.11523323378E+02 -0.13631193216E+02  0.18520044544E+02  0.51100000000E-03 0. -1.
        -11    1    3    3    0    0 -0.15576164014E+02 -0.98623169489E+01 -0.17146735559E+01  0.18515460747E+02  0.51100000000E-03 0.  1.
        -12    1    3    3    0    0  0.12643962986E+02 -0.11961463032E+02  0.30855529191E+02  0.35426121429E+02  0.00000000000E+00 0.  1.
</event>
<event>
 7    1  0.1333056E-013  0.7246164E+02  0.7816164E-02  0.1226708E+00
        -11   -1    0    0    0    0  0.00000000000E+00  0.00000000000E+00  0.45593999997E+02  0.45594000000E+02  0.51100000000E-03 0.  1.
         11   -1    0    0    0    0 -0.00000000000E+00 -0.00000000000E+00 -0.45593999997E+02  0.45594000000E+02  0.51100000000E-03 0. -1.
    9900012    2    1    2    0    0  0.15474818016E+02  0.19990990844E+01  0.10354233635E+02  0.72461640398E+02  0.70000091323E+02 0.  0.
         12    1    1    2    0    0 -0.15474818016E+02 -0.19990990844E+01 -0.10354233635E+02  0.18726359602E+02  0.00000000000E+00 0. -1.
         11    1    3    3    0    0  0.95245171991E+01  0.12912564053E+02  0.28234714127E+02  0.32475372521E+02  0.51100000000E-03 0.  1.
        -11    1    3    3    0    0 -0.83398413575E+01 -0.14719971871E+02 -0.18646745541E+02  0.25177999232E+02  0.51100000000E-03 0. -1.
         12    1    3    3    0    0  0.14290142174E+02  0.38065069030E+01  0.76626504983E+00  0.14808268646E+02  0.00000000000E+00 0. -1.
</event>
<event>
 7    1  0.1333056E-013  0.7246231E+02  0.7816164E-02  0.1226706E+00
        -11   -1    0    0    0    0  0.00000000000E+00  0.00000000000E+00  0.45593999997E+02  0.45594000000E+02  0.51100000000E-03 0.  1.
         11   -1    0    0    0    0 -0.00000000000E+00 -0.00000000000E+00 -0.45593999997E+02  0.45594000000E+02  0.51100000000E-03 0. -1.
    9900012    2    1    2    0    0 -0.89640645140E+01 -0.93440293127E+01  0.13527240231E+02  0.72462307364E+02  0.70000960164E+02 0.  0.
         12    1    1    2    0    0  0.89640645140E+01  0.93440293127E+01 -0.13527240231E+02  0.18725692636E+02  0.00000000000E+00 0. -1.
         11    1    3    3    0    0 -0.28989693817E+02 -0.51862511816E+01 -0.12141477204E+01  0.29474967410E+02  0.51100000000E-03 0. -1.
        -11    1    3    3    0    0  0.21331073718E+02  0.73981530710E+01 -0.19306744681E+01  0.22659984091E+02  0.51100000000E-03 0.  1.
         12    1    3    3    0    0 -0.13054444154E+01 -0.11555931202E+02  0.16672062420E+02  0.20327355863E+02  0.00000000000E+00 0. -1.
</event>
<event>
 7    1  0.1333056E-013  0.7246162E+02  0.7816164E-02  0.1226708E+00
        -11   -1    0    0    0    0  0.00000000000E+00  0.00000000000E+00  0.45593999997E+02  0.45594000000E+02  0.51100000000E-03 0. -1.
         11   -1    0    0    0    0 -0.00000000000E+00 -0.00000000000E+00 -0.45593999997E+02  0.45594000000E+02  0.51100000000E-03 0.  1.
    9900012    2    1    2    0    0 -0.47062114147E+01  0.17961020143E+02  0.24353093846E+01  0.72461617481E+02  0.70000061470E+02 0.  0.
         12    1    1    2    0    0  0.47062114147E+01 -0.17961020143E+02 -0.24353093846E+01  0.18726382519E+02  0.00000000000E+00 0. -1.
         11    1    3    3    0    0  0.15076521260E+02  0.29587103096E+02  0.70282138181E+01  0.33942509521E+02  0.51100000000E-03 0. -1.
        -11    1    3    3    0    0 -0.22736849584E+02  0.24592964419E+01  0.14382264209E+01  0.22914645175E+02  0.51100000000E-03 0.  1.
        -12    1    3    3    0    0  0.29541169100E+01 -0.14085379395E+02 -0.60311308545E+01  0.15604462785E+02  0.00000000000E+00 0.  1.
</event>
<event>
 7    1  0.1333056E-013  0.7246159E+02  0.7816164E-02  0.1226708E+00
        -11   -1    0    0    0    0  0.00000000000E+00  0.00000000000E+00  0.45593999997E+02  0.45594000000E+02  0.51100000000E-03 0.  1.
         11   -1    0    0    0    0 -0.00000000000E+00 -0.00000000000E+00 -0.45593999997E+02  0.45594000000E+02  0.51100000000E-03 0. -1.
    9900012    2    1    2    0    0  0.68632894695E+01  0.16934928511E+02  0.40965700834E+01  0.72461589974E+02  0.70000025636E+02 0.  0.
         12    1    1    2    0    0 -0.68632894695E+01 -0.16934928511E+02 -0.40965700834E+01  0.18726410026E+02  0.00000000000E+00 0. -1.
         11    1    3    3    0    0 -0.57029941058E+01 -0.60036480614E+01 -0.68740029910E+01  0.10761963074E+02  0.51100000000E-03 0. -1.
        -11    1    3    3    0    0  0.27923011563E+02  0.26618828526E+02 -0.53998226946E+01  0.38954007397E+02  0.51100000000E-03 0.  1.
        -12    1    3    3    0    0 -0.15356727988E+02 -0.36802519535E+01  0.16370395769E+02  0.22745619503E+02  0.00000000000E+00 0.  1.
</event>
<event>
 7    1  0.1333056E-013  0.7246158E+02  0.7816164E-02  0.1226708E+00
        -11   -1    0    0    0    0  0.00000000000E+00  0.00000000000E+00  0.45593999997E+02  0.45594000000E+02  0.51100000000E-03 0.  1.
         11   -1    0    0    0    0 -0.00000000000E+00 -0.00000000000E+00 -0.45593999997E+02  0.45594000000E+02  0.51100000000E-03 0. -1.
    9900012    2    1    2    0    0  0.91824367776E+01 -0.54608384772E+01  0.15379884304E+02  0.72461581676E+02  0.70000014827E+02 0.  0.
         12    1    1    2    0    0 -0.91824367776E+01  0.54608384772E+01 -0.15379884304E+02  0.18726418324E+02  0.00000000000E+00 0. -1.
         11    1    3    3    0    0 -0.24313324972E+01 -0.39146787183E+01  0.40122702941E+02  0.40386475196E+02  0.51100000000E-03 0.  1.
        -11    1    3    3    0    0  0.75399137978E+01  0.38794985334E+01 -0.25294619140E+01  0.88486714700E+01  0.51100000000E-03 0. -1.
         12    1    3    3    0    0  0.40738554770E+01 -0.54256582923E+01 -0.22213356724E+02  0.23226435010E+02  0.00000000000E+00 0. -1.
</event>
<event>
 7    1  0.1333056E-013  0.7246156E+02  0.7816164E-02  0.1226708E+00
        -11   -1    0    0    0    0  0.00000000000E+00  0.00000000000E+00  0.45593999997E+02  0.45594000000E+02  0.51100000000E-03 0.  1.
         11   -1    0    0    0    0 -0.00000000000E+00 -0.00000000000E+00 -0.45593999997E+02  0.45594000000E+02  0.51100000000E-03 0. -1.
    9900012    2    1    2    0    0 -0.11495083788E+02  0.13024919044E+02  0.69924195711E+01  0.72461564172E+02  0.69999992024E+02 0.  0.
         12    1    1    2    0    0  0.11495083788E+02 -0.13024919044E+02 -0.69924195711E+01  0.18726435828E+02  0.00000000000E+00 0. -1.
         11    1    3    3    0    0 -0.20270776602E+02  0.20083472012E+02  0.26759793781E+02  0.39119519368E+02  0.51100000000E-03 0.  1.
        -11    1    3    3    0    0  0.45839645375E+00 -0.12034368875E+02 -0.20334719156E+02  0.23633386658E+02  0.51100000000E-03 0. -1.
         12    1    3    3    0    0  0.83172963609E+01  0.49758159064E+01  0.56734494632E+00  0.97086581451E+01  0.00000000000E+00 0. -1.
</event>
<event>
 7    1  0.1333056E-013  0.7246152E+02  0.7816164E-02  0.1226708E+00
        -11   -1    0    0    0    0  0.00000000000E+00  0.00000000000E+00  0.45593999997E+02  0.45594000000E+02  0.51100000000E-03 0.  1.
         11   -1    0    0    0    0 -0.00000000000E+00 -0.00000000000E+00 -0.45593999997E+02  0.45594000000E+02  0.51100000000E-03 0. -1.
    9900012    2    1    2    0    0  0.18649490345E+02  0.57959522506E+00  0.15942548452E+01  0.72461519570E+02  0.69999933923E+02 0.  0.
         12    1    1    2    0    0 -0.18649490345E+02 -0.57959522506E+00 -0.15942548452E+01  0.18726480430E+02  0.00000000000E+00 0. -1.
         11    1    3    3    0    0  0.28004484364E+02 -0.12437515205E+01  0.22724091324E+02  0.36085764355E+02  0.51100000000E-03 0. -1.
        -11    1    3    3    0    0 -0.18002140778E+02  0.33179089804E+01 -0.67115090734E+01  0.19496921472E+02  0.51100000000E-03 0.  1.
         12    1    3    3    0    0  0.86471467596E+01 -0.14945622348E+01 -0.14418327405E+02  0.16878833743E+02  0.00000000000E+00 0. -1.
</event>
<event>
 7    1  0.1333056E-013  0.7246145E+02  0.7816164E-02  0.1226708E+00
        -11   -1    0    0    0    0  0.00000000000E+00  0.00000000000E+00  0.45593999997E+02  0.45594000000E+02  0.51100000000E-03 0.  1.
         11   -1    0    0    0    0 -0.00000000000E+00 -0.00000000000E+00 -0.45593999997E+02  0.45594000000E+02  0.51100000000E-03 0. -1.
    9900012    2    1    2    0    0 -0.59747763623E+01  0.15230849246E+02  0.91108201754E+01  0.72461447578E+02  0.69999840139E+02 0.  0.
         12    1    1    2    0    0  0.59747763623E+01 -0.15230849246E+02 -0.91108201754E+01  0.18726552422E+02  0.00000000000E+00 0. -1.
         11    1    3    3    0    0 -0.55901656956E+01 -0.15075621515E+02  0.23773663118E+02  0.28700372383E+02  0.51100000000E-03 0. -1.
        -11    1    3    3    0    0  0.11140102789E+02  0.27051503475E+02 -0.10319009572E+02  0.31022051660E+02  0.51100000000E-03 0.  1.
         12    1    3    3    0    0 -0.11524713456E+02  0.32549672871E+01 -0.43438333711E+01  0.12739023535E+02  0.00000000000E+00 0. -1.
</event>
<event>
 7    1  0.1333056E-013  0.7246160E+02  0.7816164E-02  0.1226708E+00
        -11   -1    0    0    0    0  0.00000000000E+00  0.00000000000E+00  0.45593999997E+02  0.45594000000E+02  0.51100000000E-03 0.  1.
         11   -1    0    0    0    0 -0.00000000000E+00 -0.00000000000E+00 -0.45593999997E+02  0.45594000000E+02  0.51100000000E-03 0. -1.
    9900012    2    1    2    0    0  0.12423102508E+02  0.35382644005E+01  0.13558217560E+02  0.72461600071E+02  0.70000038789E+02 0.  0.
         12    1    1    2    0    0 -0.12423102508E+02 -0.35382644005E+01 -0.13558217560E+02  0.18726399929E+02  0.00000000000E+00 0. -1.
         11    1    3    3    0    0 -0.13531765081E+02 -0.11118848342E+02  0.12399583106E+02  0.21458963537E+02  0.51100000000E-03 0. -1.
        -11    1    3    3    0    0  0.34576334333E+02  0.13419600012E+02  0.10181983011E+02  0.38461426634E+02  0.51100000000E-03 0.  1.
         12    1    3    3    0    0 -0.86214667440E+01  0.12375127300E+01 -0.90233485564E+01  0.12541209900E+02  0.00000000000E+00 0. -1.
</event>
<event>
 7    1  0.1333056E-013  0.7246153E+02  0.7816164E-02  0.1226708E+00
        -11   -1    0    0    0    0  0.00000000000E+00  0.00000000000E+00  0.45593999997E+02  0.45594000000E+02  0.51100000000E-03 0.  1.
         11   -1    0    0    0    0 -0.00000000000E+00 -0.00000000000E+00 -0.45593999997E+02  0.45594000000E+02  0.51100000000E-03 0. -1.
    9900012    2    1    2    0    0  0.17531149375E+02  0.39709685600E+01  0.52508159920E+01  0.72461525204E+02  0.69999941261E+02 0.  0.
         12    1    1    2    0    0 -0.17531149375E+02 -0.39709685600E+01 -0.52508159920E+01  0.18726474796E+02  0.00000000000E+00 0. -1.
         11    1    3    3    0    0 -0.65326866126E+01  0.27327329796E+02  0.18280893748E+02  0.33520889377E+02  0.51100000000E-03 0. -1.
        -11    1    3    3    0    0  0.62008358063E+01 -0.10553039256E+02  0.18789046355E+01  0.12383347089E+02  0.51100000000E-03 0.  1.
         12    1    3    3    0    0  0.17863000181E+02 -0.12803321980E+02 -0.14908982391E+02  0.26557288738E+02  0.00000000000E+00 0. -1.
</event>
<event>
 7    1  0.1333056E-013  0.7246136E+02  0.7816164E-02  0.1226709E+00
        -11   -1    0    0    0    0  0.00000000000E+00  0.00000000000E+00  0.45593999997E+02  0.45594000000E+02  0.51100000000E-03 0.  1.
         11   -1    0    0    0    0 -0.00000000000E+00 -0.00000000000E+00 -0.45593999997E+02  0.45594000000E+02  0.51100000000E-03 0. -1.
    9900012    2    1    2    0    0  0.12410874939E+02 -0.43348080057E+01  0.13336672445E+02  0.72461355637E+02  0.69999720368E+02 0.  0.
         12    1    1    2    0    0 -0.12410874939E+02  0.43348080057E+01 -0.13336672445E+02  0.18726644363E+02  0.00000000000E+00 0. -1.
         11    1    3    3    0    0 -0.20199727627E+02 -0.12988602291E+02  0.91957703895E+01  0.25715656301E+02  0.51100000000E-03 0. -1.
        -11    1    3    3    0    0  0.18790358004E+02  0.14681559085E+01  0.17877239504E+02  0.25977465778E+02  0.51100000000E-03 0.  1.
         12    1    3    3    0    0  0.13820244562E+02  0.71856383770E+01 -0.13736337448E+02  0.20768233558E+02  0.00000000000E+00 0. -1.
</event>
<event>
 7    1  0.1333056E-013  0.7246156E+02  0.7816164E-02  0.1226708E+00
        -11   -1    0    0    0    0  0.00000000000E+00  0.00000000000E+00  0.45593999997E+02  0.45594000000E+02  0.51100000000E-03 0.  1.
         11   -1    0    0    0    0 -0.00000000000E+00 -0.00000000000E+00 -0.45593999997E+02  0.45594000000E+02  0.51100000000E-03 0. -1.
    9900012    2    1    2    0    0  0.75726174115E+01  0.13790526525E+02  0.10156592279E+02  0.72461560856E+02  0.69999987705E+02 0.  0.
         12    1    1    2    0    0 -0.75726174115E+01 -0.13790526525E+02 -0.10156592279E+02  0.18726439144E+02  0.00000000000E+00 0. -1.
         11    1    3    3    0    0 -0.62142572948E+01 -0.14153052594E+02  0.76883049714E+00  0.15476336519E+02  0.51100000000E-03 0. -1.
        -11    1    3    3    0    0  0.26327883258E+02  0.30996968381E+02  0.14393821615E+02  0.43141066127E+02  0.51100000000E-03 0.  1.
         12    1    3    3    0    0 -0.12541008551E+02 -0.30533892626E+01 -0.50060598331E+01  0.13844158209E+02  0.00000000000E+00 0. -1.
</event>
<event>
 7    1  0.1333056E-013  0.7246176E+02  0.7816164E-02  0.1226707E+00
        -11   -1    0    0    0    0  0.00000000000E+00  0.00000000000E+00  0.45593999997E+02  0.45594000000E+02  0.51100000000E-03 0.  1.
         11   -1    0    0    0    0 -0.00000000000E+00 -0.00000000000E+00 -0.45593999997E+02  0.45594000000E+02  0.51100000000E-03 0. -1.
    9900012    2    1    2    0    0  0.17405976890E+02 -0.21897923606E+01 -0.65504720894E+01  0.72461764215E+02  0.70000252617E+02 0.  0.
         12    1    1    2    0    0 -0.17405976890E+02  0.21897923606E+01  0.65504720894E+01  0.18726235785E+02  0.00000000000E+00 0. -1.
         11    1    3    3    0    0  0.68388183220E+01  0.66726686670E+01 -0.16183124943E+01  0.96908657390E+01  0.51100000000E-03 0. -1.
        -11    1    3    3    0    0 -0.17750011297E+02  0.34328594819E+01  0.17067707690E+02  0.24862704425E+02  0.51100000000E-03 0.  1.
        -12    1    3    3    0    0  0.28317169865E+02 -0.12295320509E+02 -0.21999867286E+02  0.37908194051E+02  0.00000000000E+00 0.  1.
</event>
<event>
 7    1  0.1333056E-013  0.7246156E+02  0.7816164E-02  0.1226708E+00
        -11   -1    0    0    0    0  0.00000000000E+00  0.00000000000E+00  0.45593999997E+02  0.45594000000E+02  0.51100000000E-03 0.  1.
         11   -1    0    0    0    0 -0.00000000000E+00 -0.00000000000E+00 -0.45593999997E+02  0.45594000000E+02  0.51100000000E-03 0. -1.
    9900012    2    1    2    0    0  0.10600910295E+02 -0.72782999859E+01 -0.13613467048E+02  0.72461563210E+02  0.69999990771E+02 0.  0.
         12    1    1    2    0    0 -0.10600910295E+02  0.72782999859E+01  0.13613467048E+02  0.18726436790E+02  0.00000000000E+00 0. -1.
         11    1    3    3    0    0 -0.35946196070E+01  0.22746748493E+02 -0.20227392253E+02  0.30650991089E+02  0.51100000000E-03 0. -1.
        -11    1    3    3    0    0  0.16211462357E+02 -0.72551834852E+01  0.66117690853E+01  0.18951640822E+02  0.51100000000E-03 0.  1.
         12    1    3    3    0    0 -0.20159324544E+01 -0.22769864994E+02  0.21561193794E-02  0.22858931299E+02  0.00000000000E+00 0. -1.
</event>
<event>
 7    1  0.1333056E-013  0.7246160E+02  0.7816164E-02  0.1226708E+00
        -11   -1    0    0    0    0  0.00000000000E+00  0.00000000000E+00  0.45593999997E+02  0.45594000000E+02  0.51100000000E-03 0.  1.
         11   -1    0    0    0    0 -0.00000000000E+00 -0.00000000000E+00 -0.45593999997E+02  0.45594000000E+02  0.51100000000E-03 0. -1.
    9900012    2    1    2    0    0  0.51156214465E+01  0.21449618501E+00  0.18012842165E+02  0.72461599538E+02  0.70000038095E+02 0.  0.
         12    1    1    2    0    0 -0.51156214465E+01 -0.21449618501E+00 -0.18012842165E+02  0.18726400462E+02  0.00000000000E+00 0. -1.
         11    1    3    3    0    0 -0.19369616160E+01 -0.27103292924E+02  0.18584836375E+02  0.32920152657E+02  0.51100000000E-03 0. -1.
        -11    1    3    3    0    0  0.11929198837E+02  0.19650089473E+02  0.10454293823E+02  0.25253199021E+02  0.51100000000E-03 0.  1.
         12    1    3    3    0    0 -0.48766157740E+01  0.76676996359E+01 -0.11026288033E+02  0.14288247860E+02  0.00000000000E+00 0. -1.
</event>
<event>
 7    1  0.1333056E-013  0.7246156E+02  0.7816164E-02  0.1226708E+00
        -11   -1    0    0    0    0  0.00000000000E+00  0.00000000000E+00  0.45593999997E+02  0.45594000000E+02  0.51100000000E-03 0.  1.
         11   -1    0    0    0    0 -0.00000000000E+00 -0.00000000000E+00 -0.45593999997E+02  0.45594000000E+02  0.51100000000E-03 0. -1.
    9900012    2    1    2    0    0  0.54249722268E+01 -0.17497523960E+02  0.38840683627E+01  0.72461557320E+02  0.69999983098E+02 0.  0.
         12    1    1    2    0    0 -0.54249722268E+01  0.17497523960E+02 -0.38840683627E+01  0.18726442680E+02  0.00000000000E+00 0. -1.
         11    1    3    3    0    0 -0.61028837245E+01 -0.12131985867E+02  0.43807365177E+01  0.14269587364E+02  0.51100000000E-03 0. -1.
        -11    1    3    3    0    0  0.13190561434E+02  0.23521904501E+02 -0.83119790234E+01  0.28219849359E+02  0.51100000000E-03 0.  1.
        -12    1    3    3    0    0 -0.16627054827E+01 -0.28887442594E+02  0.78153108684E+01  0.29972120598E+02  0.00000000000E+00 0.  1.
</event>
<event>
 7    1  0.1333056E-013  0.7246157E+02  0.7816164E-02  0.1226708E+00
        -11   -1    0    0    0    0  0.00000000000E+00  0.00000000000E+00  0.45593999997E+02  0.45594000000E+02  0.51100000000E-03 0. -1.
         11   -1    0    0    0    0 -0.00000000000E+00 -0.00000000000E+00 -0.45593999997E+02  0.45594000000E+02  0.51100000000E-03 0.  1.
    9900012    2    1    2    0    0 -0.13933573938E+02  0.88665575134E+01 -0.88271559364E+01  0.72461574640E+02  0.70000005661E+02 0.  0.
         12    1    1    2    0    0  0.13933573938E+02 -0.88665575134E+01  0.88271559364E+01  0.18726425360E+02  0.00000000000E+00 0. -1.
         11    1    3    3    0    0  0.92069876833E+01  0.26664912318E+01  0.18807707639E+02  0.21109444914E+02  0.51100000000E-03 0. -1.
        -11    1    3    3    0    0 -0.28716537499E+02 -0.12566798178E+00 -0.77363965534E+01  0.29740664926E+02  0.51100000000E-03 0.  1.
        -12    1    3    3    0    0  0.55759758774E+01  0.63257342634E+01 -0.19898467022E+02  0.21611464800E+02  0.00000000000E+00 0.  1.
</event>
<event>
 7    1  0.1333056E-013  0.7246160E+02  0.7816164E-02  0.1226708E+00
        -11   -1    0    0    0    0  0.00000000000E+00  0.00000000000E+00  0.45593999997E+02  0.45594000000E+02  0.51100000000E-03 0.  1.
         11   -1    0    0    0    0 -0.00000000000E+00 -0.00000000000E+00 -0.45593999997E+02  0.45594000000E+02  0.51100000000E-03 0. -1.
    9900012    2    1    2    0    0  0.53577727395E+01  0.37532009956E+01  0.17546674758E+02  0.72461600413E+02  0.70000039235E+02 0.  0.
         12    1    1    2    0    0 -0.53577727395E+01 -0.37532009956E+01 -0.17546674758E+02  0.18726399587E+02  0.00000000000E+00 0. -1.
         11    1    3    3    0    0  0.17341206145E+02 -0.19554939302E+02  0.18605313194E+02  0.32082249936E+02  0.51100000000E-03 0. -1.
        -11    1    3    3    0    0 -0.17307389580E+02  0.27807972629E+02  0.18943542346E+01  0.32808804520E+02  0.51100000000E-03 0.  1.
         12    1    3    3    0    0  0.53239561746E+01 -0.44998323317E+01 -0.29529926707E+01  0.75705459562E+01  0.00000000000E+00 0. -1.
</event>
<event>
 7    1  0.1333056E-013  0.7246153E+02  0.7816164E-02  0.1226708E+00
        -11   -1    0    0    0    0  0.00000000000E+00  0.00000000000E+00  0.45593999997E+02  0.45594000000E+02  0.51100000000E-03 0.  1.
         11   -1    0    0    0    0 -0.00000000000E+00 -0.00000000000E+00 -0.45593999997E+02  0.45594000000E+02  0.51100000000E-03 0. -1.
    9900012    2    1    2    0    0  0.10908328587E+02  0.14809949115E+02  0.35148902670E+01  0.72461529992E+02  0.69999947499E+02 0.  0.
         12    1    1    2    0    0 -0.10908328587E+02 -0.14809949115E+02 -0.35148902670E+01  0.18726470008E+02  0.00000000000E+00 0. -1.
         11    1    3    3    0    0  0.32640209697E+02 -0.17286887873E+01  0.31117990388E+01  0.32833747083E+02  0.51100000000E-03 0. -1.
        -11    1    3    3    0    0 -0.21446155710E+01  0.18336223568E+02  0.55841666622E+01  0.19287285664E+02  0.51100000000E-03 0.  1.
         12    1    3    3    0    0 -0.19587265539E+02 -0.17975856656E+01 -0.51810754340E+01  0.20340497245E+02  0.00000000000E+00 0. -1.
</event>
<event>
 7    1  0.1333056E-013  0.7246158E+02  0.7816164E-02  0.1226708E+00
        -11   -1    0    0    0    0  0.00000000000E+00  0.00000000000E+00  0.45593999997E+02  0.45594000000E+02  0.51100000000E-03 0.  1.
         11   -1    0    0    0    0 -0.00000000000E+00 -0.00000000000E+00 -0.45593999997E+02  0.45594000000E+02  0.51100000000E-03 0. -1.
    9900012    2    1    2    0    0  0.16013841563E+02 -0.34652675107E+01  0.90679469094E+01  0.72461578514E+02  0.70000010708E+02 0.  0.
         12    1    1    2    0    0 -0.16013841563E+02  0.34652675107E+01 -0.90679469094E+01  0.18726421486E+02  0.00000000000E+00 0. -1.
         11    1    3    3    0    0 -0.47021182098E+01  0.12332684998E+02 -0.13697178661E+02  0.19021507260E+02  0.51100000000E-03 0. -1.
        -11    1    3    3    0    0  0.32468573181E+02 -0.61127014706E+01  0.17001213128E+02  0.37156622717E+02  0.51100000000E-03 0.  1.
         12    1    3    3    0    0 -0.11752613408E+02 -0.96852510385E+01  0.57639124425E+01  0.16283448537E+02  0.00000000000E+00 0. -1.
</event>
<event>
 7    1  0.1333056E-013  0.7246157E+02  0.7816164E-02  0.1226708E+00
        -11   -1    0    0    0    0  0.00000000000E+00  0.00000000000E+00  0.45593999997E+02  0.45594000000E+02  0.51100000000E-03 0. -1.
         11   -1    0    0    0    0 -0.00000000000E+00 -0.00000000000E+00 -0.45593999997E+02  0.45594000000E+02  0.51100000000E-03 0.  1.
    9900012    2    1    2    0    0 -0.17898922726E+02 -0.54535522419E+01  0.75271437276E+00  0.72461568260E+02  0.69999997349E+02 0.  0.
         12    1    1    2    0    0  0.17898922726E+02  0.54535522419E+01 -0.75271437276E+00  0.18726431740E+02  0.00000000000E+00 0. -1.
         11    1    3    3    0    0  0.19494580809E+01 -0.74101508794E+01  0.60020859687E+01  0.97332296337E+01  0.51100000000E-03 0. -1.
        -11    1    3    3    0    0 -0.12094888753E+02 -0.13415456128E+02 -0.28533612331E+02  0.33770221053E+02  0.51100000000E-03 0.  1.
        -12    1    3    3    0    0 -0.77534920539E+01  0.15372054765E+02  0.23284240735E+02  0.28958117573E+02  0.00000000000E+00 0.  1.
</event>
<event>
 7    1  0.1333056E-013  0.7246150E+02  0.7816164E-02  0.1226708E+00
        -11   -1    0    0    0    0  0.00000000000E+00  0.00000000000E+00  0.45593999997E+02  0.45594000000E+02  0.51100000000E-03 0. -1.
         11   -1    0    0    0    0 -0.00000000000E+00 -0.00000000000E+00 -0.45593999997E+02  0.45594000000E+02  0.51100000000E-03 0.  1.
    9900012    2    1    2    0    0  0.17859771470E+02 -0.55132480905E+01  0.11465068158E+01  0.72461499543E+02  0.69999907834E+02 0.  0.
         12    1    1    2    0    0 -0.17859771470E+02  0.55132480905E+01 -0.11465068158E+01  0.18726500457E+02  0.00000000000E+00 0. -1.
         11    1    3    3    0    0  0.12453491141E+02  0.11686079849E+02  0.28786385333E+01  0.17318789331E+02  0.51100000000E-03 0.  1.
        -11    1    3    3    0    0 -0.38398734540E+01 -0.22479539319E+02 -0.22354192838E+02  0.31934061030E+02  0.51100000000E-03 0. -1.
        -12    1    3    3    0    0  0.92461537830E+01  0.52802113803E+01  0.20622061121E+02  0.23208649182E+02  0.00000000000E+00 0.  1.
</event>
<event>
 7    1  0.1333056E-013  0.7246161E+02  0.7816164E-02  0.1226708E+00
        -11   -1    0    0    0    0  0.00000000000E+00  0.00000000000E+00  0.45593999997E+02  0.45594000000E+02  0.51100000000E-03 0.  1.
         11   -1    0    0    0    0 -0.00000000000E+00 -0.00000000000E+00 -0.45593999997E+02  0.45594000000E+02  0.51100000000E-03 0. -1.
    9900012    2    1    2    0    0  0.28715256090E+01 -0.71537487894E+01  0.17066223988E+02  0.72461607334E+02  0.70000048251E+02 0.  0.
         12    1    1    2    0    0 -0.28715256090E+01  0.71537487894E+01 -0.17066223988E+02  0.18726392666E+02  0.00000000000E+00 0. -1.
         11    1    3    3    0    0  0.40854237864E+01  0.22760175989E+02 -0.50583746571E+01  0.23670729879E+02  0.51100000000E-03 0. -1.
        -11    1    3    3    0    0 -0.10927834797E+02 -0.24156932906E+02  0.31359056077E+01  0.26698480950E+02  0.51100000000E-03 0.  1.
         12    1    3    3    0    0  0.97139366196E+01 -0.57569918727E+01  0.18988693037E+02  0.22092396505E+02  0.00000000000E+00 0. -1.
</event>
<event>
 7    1  0.1333056E-013  0.7246181E+02  0.7816164E-02  0.1226707E+00
        -11   -1    0    0    0    0  0.00000000000E+00  0.00000000000E+00  0.45593999997E+02  0.45594000000E+02  0.51100000000E-03 0.  1.
         11   -1    0    0    0    0 -0.00000000000E+00 -0.00000000000E+00 -0.45593999997E+02  0.45594000000E+02  0.51100000000E-03 0. -1.
    9900012    2    1    2    0    0 -0.16465794112E+02 -0.38837967331E+01 -0.80289502717E+01  0.72461807240E+02  0.70000308666E+02 0.  0.
         12    1    1    2    0    0  0.16465794112E+02  0.38837967331E+01  0.80289502717E+01  0.18726192760E+02  0.00000000000E+00 0. -1.
         11    1    3    3    0    0 -0.86012816358E+01 -0.17404342404E+02 -0.19587057409E+02  0.27577998450E+02  0.51100000000E-03 0. -1.
        -11    1    3    3    0    0  0.11227827947E+02 -0.29035483057E+01  0.15535735638E+02  0.19386949096E+02  0.51100000000E-03 0.  1.
         12    1    3    3    0    0 -0.19092340423E+02  0.16424093977E+02 -0.39776285005E+01  0.25496859694E+02  0.00000000000E+00 0. -1.
</event>
<event>
 7    1  0.1333056E-013  0.7246154E+02  0.7816164E-02  0.1226708E+00
        -11   -1    0    0    0    0  0.00000000000E+00  0.00000000000E+00  0.45593999997E+02  0.45594000000E+02  0.51100000000E-03 0.  1.
         11   -1    0    0    0    0 -0.00000000000E+00 -0.00000000000E+00 -0.45593999997E+02  0.45594000000E+02  0.51100000000E-03 0. -1.
    9900012    2    1    2    0    0  0.45419620709E+01  0.14731834232E+02  0.10631275301E+02  0.72461538140E+02  0.69999958112E+02 0.  0.
         12    1    1    2    0    0 -0.45419620709E+01 -0.14731834232E+02 -0.10631275301E+02  0.18726461860E+02  0.00000000000E+00 0. -1.
         11    1    3    3    0    0 -0.12331819782E+02  0.96768501294E+01  0.14000255534E+02  0.21017192078E+02  0.51100000000E-03 0.  1.
        -11    1    3    3    0    0  0.51373328793E+01  0.47612916099E+01 -0.25471659516E+02  0.26417182394E+02  0.51100000000E-03 0. -1.
         12    1    3    3    0    0  0.11736448973E+02  0.29369249263E+00  0.22102679282E+02  0.25027163668E+02  0.00000000000E+00 0. -1.
</event>
<event>
 7    1  0.1371611E-013  0.7246157E+02  0.7816164E-02  0.1226708E+00
        -11   -1    0    0    0    0  0.00000000000E+00  0.00000000000E+00  0.45593999997E+02  0.45594000000E+02  0.51100000000E-03 0.  1.
         11   -1    0    0    0    0 -0.00000000000E+00 -0.00000000000E+00 -0.45593999997E+02  0.45594000000E+02  0.51100000000E-03 0. -1.
    9900012    2    1    2    0    0  0.16698822541E+02  0.16622757512E+01  0.83105543071E+01  0.72461570874E+02  0.70000000755E+02 0.  0.
         12    1    1    2    0    0 -0.16698822541E+02 -0.16622757512E+01 -0.83105543071E+01  0.18726429126E+02  0.00000000000E+00 0. -1.
         11    1    3    3    0    0 -0.12342311525E+02 -0.70368673159E+01 -0.18190734383E+02  0.23081442178E+02  0.51100000000E-03 0. -1.
        -11    1    3    3    0    0  0.14385981292E+02  0.18933843622E+02  0.14542179828E+02  0.27873318540E+02  0.51100000000E-03 0.  1.
        -12    1    3    3    0    0  0.14655152774E+02 -0.10234700555E+02  0.11959108861E+02  0.21506810155E+02  0.00000000000E+00 0.  1.
</event>
<event>
 7    1  0.1360998E-013  0.7246157E+02  0.7816164E-02  0.1226708E+00
        -11   -1    0    0    0    0  0.00000000000E+00  0.00000000000E+00  0.45593999997E+02  0.45594000000E+02  0.51100000000E-03 0. -1.
         11   -1    0    0    0    0 -0.00000000000E+00 -0.00000000000E+00 -0.45593999997E+02  0.45594000000E+02  0.51100000000E-03 0.  1.
    9900012    2    1    2    0    0  0.17183015574E+02  0.68519293014E+01 -0.29110279344E+01  0.72461573673E+02  0.70000004401E+02 0.  0.
         12    1    1    2    0    0 -0.17183015574E+02 -0.68519293014E+01  0.29110279344E+01  0.18726426327E+02  0.00000000000E+00 0. -1.
         11    1    3    3    0    0 -0.99070356696E+01  0.92121721708E+01 -0.15326639075E+02  0.20443075538E+02  0.51100000000E-03 0.  1.
        -11    1    3    3    0    0  0.17490576824E+02  0.15010043336E+02  0.20251413265E+02  0.30681287752E+02  0.51100000000E-03 0. -1.
        -12    1    3    3    0    0  0.95994744189E+01 -0.17370286206E+02 -0.78358021250E+01  0.21337210383E+02  0.00000000000E+00 0.  1.
</event>
<event>
 7    1  0.1333056E-013  0.7246162E+02  0.7816164E-02  0.1226708E+00
        -11   -1    0    0    0    0  0.00000000000E+00  0.00000000000E+00  0.45593999997E+02  0.45594000000E+02  0.51100000000E-03 0.  1.
         11   -1    0    0    0    0 -0.00000000000E+00 -0.00000000000E+00 -0.45593999997E+02  0.45594000000E+02  0.51100000000E-03 0. -1.
    9900012    2    1    2    0    0 -0.94362222630E+01 -0.80603896894E+01  0.14023729355E+02  0.72461624014E+02  0.70000069980E+02 0.  0.
         12    1    1    2    0    0  0.94362222630E+01  0.80603896894E+01 -0.14023729355E+02  0.18726375986E+02  0.00000000000E+00 0. -1.
         11    1    3    3    0    0  0.12887639459E+02 -0.14370904307E+02 -0.27214167472E+01  0.19494108104E+02  0.51100000000E-03 0. -1.
        -11    1    3    3    0    0 -0.30556863922E+02 -0.30828450588E+01  0.23588299346E+02  0.38725104683E+02  0.51100000000E-03 0.  1.
         12    1    3    3    0    0  0.82330022000E+01  0.93933596763E+01 -0.68431532435E+01  0.14242411227E+02  0.00000000000E+00 0. -1.
</event>
<event>
 7    1  0.1333056E-013  0.7246132E+02  0.7816164E-02  0.1226709E+00
        -11   -1    0    0    0    0  0.00000000000E+00  0.00000000000E+00  0.45593999997E+02  0.45594000000E+02  0.51100000000E-03 0.  1.
         11   -1    0    0    0    0 -0.00000000000E+00 -0.00000000000E+00 -0.45593999997E+02  0.45594000000E+02  0.51100000000E-03 0. -1.
    9900012    2    1    2    0    0  0.69577431425E+00  0.18351914759E+02  0.36621783611E+01  0.72461323104E+02  0.69999677988E+02 0.  0.
         12    1    1    2    0    0 -0.69577431425E+00 -0.18351914759E+02 -0.36621783611E+01  0.18726676896E+02  0.00000000000E+00 0. -1.
         11    1    3    3    0    0 -0.55436545483E+01 -0.16493762916E+02 -0.17102035573E+02  0.24397867568E+02  0.51100000000E-03 0. -1.
        -11    1    3    3    0    0  0.79637273658E+01  0.29215909138E+02  0.43093997917E+01  0.30586945371E+02  0.51100000000E-03 0.  1.
         12    1    3    3    0    0 -0.17242985032E+01  0.56297685371E+01  0.16454814142E+02  0.17476510165E+02  0.00000000000E+00 0. -1.
</event>
<event>
 7    1  0.1333056E-013  0.7246157E+02  0.7816164E-02  0.1226708E+00
        -11   -1    0    0    0    0  0.00000000000E+00  0.00000000000E+00  0.45593999997E+02  0.45594000000E+02  0.51100000000E-03 0.  1.
         11   -1    0    0    0    0 -0.00000000000E+00 -0.00000000000E+00 -0.45593999997E+02  0.45594000000E+02  0.51100000000E-03 0. -1.
    9900012    2    1    2    0    0 -0.92481899751E+01  0.16188894086E+02  0.17521149609E+01  0.72461569044E+02  0.69999998371E+02 0.  0.
         12    1    1    2    0    0  0.92481899751E+01 -0.16188894086E+02 -0.17521149609E+01  0.18726430956E+02  0.00000000000E+00 0. -1.
         11    1    3    3    0    0  0.13486388549E+02  0.10884271340E+02  0.66384786850E+01  0.18558540843E+02  0.51100000000E-03 0. -1.
        -11    1    3    3    0    0 -0.28545932650E+02  0.21247868923E+02 -0.84232023625E+01  0.36569010691E+02  0.51100000000E-03 0.  1.
        -12    1    3    3    0    0  0.58113541255E+01 -0.15943246178E+02  0.35368386383E+01  0.17334017509E+02  0.00000000000E+00 0.  1.
</event>
<event>
 7    1  0.1333056E-013  0.7246151E+02  0.7816164E-02  0.1226708E+00
        -11   -1    0    0    0    0  0.00000000000E+00  0.00000000000E+00  0.45593999997E+02  0.45594000000E+02  0.51100000000E-03 0.  1.
         11   -1    0    0    0    0 -0.00000000000E+00 -0.00000000000E+00 -0.45593999997E+02  0.45594000000E+02  0.51100000000E-03 0. -1.
    9900012    2    1    2    0    0 -0.37161099963E+01  0.15406921047E+02  0.99749048987E+01  0.72461510276E+02  0.69999921815E+02 0.  0.
         12    1    1    2    0    0  0.37161099963E+01 -0.15406921047E+02 -0.99749048987E+01  0.18726489724E+02  0.00000000000E+00 0. -1.
         11    1    3    3    0    0 -0.16597420423E+01 -0.21759876599E+02 -0.14044523485E+02  0.25951794032E+02  0.51100000000E-03 0.  1.
        -11    1    3    3    0    0 -0.11848461759E+01  0.23149640180E+02  0.65354914066E+01  0.24083653151E+02  0.51100000000E-03 0. -1.
        -12    1    3    3    0    0 -0.87152177810E+00  0.14017157466E+02  0.17483936977E+02  0.22426063094E+02  0.00000000000E+00 0.  1.
</event>
<event>
 7    1  0.1333056E-013  0.7246156E+02  0.7816164E-02  0.1226708E+00
        -11   -1    0    0    0    0  0.00000000000E+00  0.00000000000E+00  0.45593999997E+02  0.45594000000E+02  0.51100000000E-03 0. -1.
         11   -1    0    0    0    0 -0.00000000000E+00 -0.00000000000E+00 -0.45593999997E+02  0.45594000000E+02  0.51100000000E-03 0.  1.
    9900012    2    1    2    0    0  0.18341377044E+02  0.26978983569E+01  0.26447500514E+01  0.72461562265E+02  0.69999989540E+02 0.  0.
         12    1    1    2    0    0 -0.18341377044E+02 -0.26978983569E+01 -0.26447500514E+01  0.18726437735E+02  0.00000000000E+00 0. -1.
         11    1    3    3    0    0  0.70785927614E+01  0.31383689539E+02  0.43753887044E+01  0.32468237882E+02  0.51100000000E-03 0. -1.
        -11    1    3    3    0    0  0.34488412830E+01 -0.17401238115E+02 -0.13195462182E+02  0.22109224694E+02  0.51100000000E-03 0.  1.
        -12    1    3    3    0    0  0.78139429995E+01 -0.11284553067E+02  0.11464823529E+02  0.17884099689E+02  0.00000000000E+00 0.  1.
</event>
<event>
 7    1  0.1333056E-013  0.7246158E+02  0.7816164E-02  0.1226708E+00
        -11   -1    0    0    0    0  0.00000000000E+00  0.00000000000E+00  0.45593999997E+02  0.45594000000E+02  0.51100000000E-03 0.  1.
         11   -1    0    0    0    0 -0.00000000000E+00 -0.00000000000E+00 -0.45593999997E+02  0.45594000000E+02  0.51100000000E-03 0. -1.
    9900012    2    1    2    0    0  0.10124017421E+01  0.18692834671E+02  0.48125153731E+00  0.72461584743E+02  0.70000018823E+02 0.  0.
         12    1    1    2    0    0 -0.10124017421E+01 -0.18692834671E+02 -0.48125153731E+00  0.18726415257E+02  0.00000000000E+00 0. -1.
         11    1    3    3    0    0 -0.10812315505E+02 -0.63973858816E+01 -0.12290256220E+02  0.17575070723E+02  0.51100000000E-03 0. -1.
        -11    1    3    3    0    0  0.38283188293E+01  0.31740242813E+02  0.23702533689E+02  0.39798356027E+02  0.51100000000E-03 0.  1.
        -12    1    3    3    0    0  0.79963984174E+01 -0.66500222610E+01 -0.10931025932E+02  0.15088157994E+02  0.00000000000E+00 0.  1.
</event>
<event>
 7    1  0.1333056E-013  0.7246153E+02  0.7816164E-02  0.1226708E+00
        -11   -1    0    0    0    0  0.00000000000E+00  0.00000000000E+00  0.45593999997E+02  0.45594000000E+02  0.51100000000E-03 0. -1.
         11   -1    0    0    0    0 -0.00000000000E+00 -0.00000000000E+00 -0.45593999997E+02  0.45594000000E+02  0.51100000000E-03 0.  1.
    9900012    2    1    2    0    0  0.14919017599E+02 -0.13747809967E+01 -0.11234486010E+02  0.72461527166E+02  0.69999943817E+02 0.  0.
         12    1    1    2    0    0 -0.14919017599E+02  0.13747809967E+01  0.11234486010E+02  0.18726472834E+02  0.00000000000E+00 0. -1.
         11    1    3    3    0    0  0.27391825506E+02 -0.85291853589E+01  0.34098892683E+01  0.28890940665E+02  0.51100000000E-03 0. -1.
        -11    1    3    3    0    0 -0.93392594912E+01  0.22344605531E+02 -0.34943201156E+01  0.24468621488E+02  0.51100000000E-03 0.  1.
        -12    1    3    3    0    0 -0.31335484162E+01 -0.15190201169E+02 -0.11150055163E+02  0.19101965013E+02  0.00000000000E+00 0.  1.
</event>
<event>
 7    1  0.1333056E-013  0.7246237E+02  0.7816164E-02  0.1226706E+00
        -11   -1    0    0    0    0  0.00000000000E+00  0.00000000000E+00  0.45593999997E+02  0.45594000000E+02  0.51100000000E-03 0.  1.
         11   -1    0    0    0    0 -0.00000000000E+00 -0.00000000000E+00 -0.45593999997E+02  0.45594000000E+02  0.51100000000E-03 0. -1.
    9900012    2    1    2    0    0 -0.15058001360E+02 -0.73495510400E+01  0.83600269379E+01  0.72462366343E+02  0.70001036993E+02 0.  0.
         12    1    1    2    0    0  0.15058001360E+02  0.73495510400E+01 -0.83600269379E+01  0.18725633657E+02  0.00000000000E+00 0. -1.
         11    1    3    3    0    0 -0.11555450722E+02  0.68904573897E+01 -0.78592795489E+01  0.15581242560E+02  0.51100000000E-03 0. -1.
        -11    1    3    3    0    0 -0.11732839465E+02 -0.28716631332E+02  0.23288709994E+02  0.38790056076E+02  0.51100000000E-03 0.  1.
        -12    1    3    3    0    0  0.82302888265E+01  0.14476622902E+02 -0.70694035073E+01  0.18091067707E+02  0.00000000000E+00 0.  1.
</event>
<event>
 7    1  0.1333056E-013  0.7246113E+02  0.7816164E-02  0.1226709E+00
        -11   -1    0    0    0    0  0.00000000000E+00  0.00000000000E+00  0.45593999997E+02  0.45594000000E+02  0.51100000000E-03 0. -1.
         11   -1    0    0    0    0 -0.00000000000E+00 -0.00000000000E+00 -0.45593999997E+02  0.45594000000E+02  0.51100000000E-03 0.  1.
    9900012    2    1    2    0    0 -0.13826246462E+02 -0.11243044062E+02 -0.57553959471E+01  0.72461128571E+02  0.69999424571E+02 0.  0.
         12    1    1    2    0    0  0.13826246462E+02  0.11243044062E+02  0.57553959471E+01  0.18726871429E+02  0.00000000000E+00 0. -1.
         11    1    3    3    0    0  0.18094359384E+02 -0.13276676026E+02 -0.10771289459E+02  0.24893706929E+02  0.51100000000E-03 0. -1.
        -11    1    3    3    0    0 -0.20055577558E+02 -0.20187687819E+01 -0.14176234126E+02  0.24642792716E+02  0.51100000000E-03 0.  1.
         12    1    3    3    0    0 -0.11865028288E+02  0.40524007457E+01  0.19192127638E+02  0.22924628925E+02  0.00000000000E+00 0. -1.
</event>
<event>
 7    1  0.1333056E-013  0.7246161E+02  0.7816164E-02  0.1226708E+00
        -11   -1    0    0    0    0  0.00000000000E+00  0.00000000000E+00  0.45593999997E+02  0.45594000000E+02  0.51100000000E-03 0.  1.
         11   -1    0    0    0    0 -0.00000000000E+00 -0.00000000000E+00 -0.45593999997E+02  0.45594000000E+02  0.51100000000E-03 0. -1.
    9900012    2    1    2    0    0  0.12698395062E+02 -0.38116954177E+01  0.13224952205E+02  0.72461611669E+02  0.70000053898E+02 0.  0.
         12    1    1    2    0    0 -0.12698395062E+02  0.38116954177E+01 -0.13224952205E+02  0.18726388331E+02  0.00000000000E+00 0. -1.
         11    1    3    3    0    0 -0.18627696967E+02 -0.62358373641E+01 -0.17400392381E+02  0.26242149630E+02  0.51100000000E-03 0. -1.
        -11    1    3    3    0    0  0.27452955228E+02  0.84271431339E+00  0.31656479836E+02  0.41910710255E+02  0.51100000000E-03 0.  1.
        -12    1    3    3    0    0  0.38731368008E+01  0.15814276330E+01 -0.10311352503E+01  0.43087517846E+01  0.00000000000E+00 0.  1.
</event>
<event>
 7    1  0.1333056E-013  0.7246164E+02  0.7816164E-02  0.1226708E+00
        -11   -1    0    0    0    0  0.00000000000E+00  0.00000000000E+00  0.45593999997E+02  0.45594000000E+02  0.51100000000E-03 0.  1.
         11   -1    0    0    0    0 -0.00000000000E+00 -0.00000000000E+00 -0.45593999997E+02  0.45594000000E+02  0.51100000000E-03 0. -1.
    9900012    2    1    2    0    0 -0.31643833920E+01 -0.11705887725E+01  0.18419904371E+02  0.72461642176E+02  0.70000093639E+02 0.  0.
         12    1    1    2    0    0  0.31643833920E+01  0.11705887725E+01 -0.18419904371E+02  0.18726357824E+02  0.00000000000E+00 0. -1.
         11    1    3    3    0    0 -0.12020042342E+02 -0.66913257875E+01 -0.54571906075E+01  0.14799871225E+02  0.51100000000E-03 0. -1.
        -11    1    3    3    0    0  0.25368962374E+02 -0.54513312345E+01  0.27163202991E+02  0.37565154880E+02  0.51100000000E-03 0.  1.
        -12    1    3    3    0    0 -0.16513303424E+02  0.10972068250E+02 -0.32861080122E+01  0.20096616071E+02  0.00000000000E+00 0.  1.
</event>
<event>
 7    1  0.1333056E-013  0.7246129E+02  0.7816164E-02  0.1226709E+00
        -11   -1    0    0    0    0  0.00000000000E+00  0.00000000000E+00  0.45593999997E+02  0.45594000000E+02  0.51100000000E-03 0. -1.
         11   -1    0    0    0    0 -0.00000000000E+00 -0.00000000000E+00 -0.45593999997E+02  0.45594000000E+02  0.51100000000E-03 0.  1.
    9900012    2    1    2    0    0 -0.44805037567E+01  0.17867471698E+02  0.33716837983E+01  0.72461288852E+02  0.69999633368E+02 0.  0.
         12    1    1    2    0    0  0.44805037567E+01 -0.17867471698E+02 -0.33716837983E+01  0.18726711148E+02  0.00000000000E+00 0. -1.
         11    1    3    3    0    0  0.15757652938E+02  0.11747887764E+02 -0.20951565662E+01  0.19766288835E+02  0.51100000000E-03 0. -1.
        -11    1    3    3    0    0 -0.29480996473E+02  0.17033805314E+02 -0.57355318161E+01  0.34527901790E+02  0.51100000000E-03 0.  1.
        -12    1    3    3    0    0  0.92428397786E+01 -0.10914221380E+02  0.11202372181E+02  0.18167098227E+02  0.00000000000E+00 0.  1.
</event>
<event>
 7    1  0.1333056E-013  0.7246153E+02  0.7816164E-02  0.1226708E+00
        -11   -1    0    0    0    0  0.00000000000E+00  0.00000000000E+00  0.45593999997E+02  0.45594000000E+02  0.51100000000E-03 0.  1.
         11   -1    0    0    0    0 -0.00000000000E+00 -0.00000000000E+00 -0.45593999997E+02  0.45594000000E+02  0.51100000000E-03 0. -1.
    9900012    2    1    2    0    0  0.10166899410E+02  0.47657199289E+01  0.14986747813E+02  0.72461533700E+02  0.69999952329E+02 0.  0.
         12    1    1    2    0    0 -0.10166899410E+02 -0.47657199289E+01 -0.14986747813E+02  0.18726466300E+02  0.00000000000E+00 0. -1.
         11    1    3    3    0    0 -0.10870610686E+02 -0.51434555651E+01 -0.18580565788E+02  0.22132842952E+02  0.51100000000E-03 0. -1.
        -11    1    3    3    0    0  0.20273469333E+01  0.16959934053E+02  0.13169812898E+02  0.21568344180E+02  0.51100000000E-03 0.  1.
         12    1    3    3    0    0  0.19010163164E+02 -0.70507585586E+01  0.20397500704E+02  0.28760346568E+02  0.00000000000E+00 0. -1.
</event>
<event>
 7    1  0.1333056E-013  0.7246156E+02  0.7816164E-02  0.1226708E+00
        -11   -1    0    0    0    0  0.00000000000E+00  0.00000000000E+00  0.45593999997E+02  0.45594000000E+02  0.51100000000E-03 0. -1.
         11   -1    0    0    0    0 -0.00000000000E+00 -0.00000000000E+00 -0.45593999997E+02  0.45594000000E+02  0.51100000000E-03 0.  1.
    9900012    2    1    2    0    0  0.18530234055E+02  0.22502457098E+01  0.14988006862E+01  0.72461559244E+02  0.69999985605E+02 0.  0.
         12    1    1    2    0    0 -0.18530234055E+02 -0.22502457098E+01 -0.14988006862E+01  0.18726440756E+02  0.00000000000E+00 0. -1.
         11    1    3    3    0    0  0.11750223964E+02 -0.69634958785E+01  0.29549198215E+02  0.32553235684E+02  0.51100000000E-03 0. -1.
        -11    1    3    3    0    0 -0.41342269442E+01  0.72706898189E+00 -0.25507912903E+02  0.25850997711E+02  0.51100000000E-03 0.  1.
        -12    1    3    3    0    0  0.10914237035E+02  0.84866726064E+01 -0.25424846262E+01  0.14057325850E+02  0.00000000000E+00 0.  1.
</event>
<event>
 7    1  0.1559546E-013  0.7246151E+02  0.7816164E-02  0.1226708E+00
        -11   -1    0    0    0    0  0.00000000000E+00  0.00000000000E+00  0.45593999997E+02  0.45594000000E+02  0.51100000000E-03 0.  1.
         11   -1    0    0    0    0 -0.00000000000E+00 -0.00000000000E+00 -0.45593999997E+02  0.45594000000E+02  0.51100000000E-03 0. -1.
    9900012    2    1    2    0    0  0.18715121574E+02 -0.37961940705E+00 -0.53051644622E+00  0.72461512499E+02  0.69999924711E+02 0.  0.
         12    1    1    2    0    0 -0.18715121574E+02  0.37961940705E+00  0.53051644622E+00  0.18726487501E+02  0.00000000000E+00 0. -1.
         11    1    3    3    0    0  0.56334698123E+00  0.36149040243E+01 -0.27737494978E+02  0.27977732553E+02  0.51100000000E-03 0. -1.
        -11    1    3    3    0    0 -0.59935995640E+00  0.80103176393E+01  0.19217772157E+02  0.20828998727E+02  0.51100000000E-03 0.  1.
        -12    1    3    3    0    0  0.18751134549E+02 -0.12004841071E+02  0.79892063744E+01  0.23654781219E+02  0.00000000000E+00 0.  1.
</event>
<event>
 7    1  0.1333056E-013  0.7246118E+02  0.7816164E-02  0.1226709E+00
        -11   -1    0    0    0    0  0.00000000000E+00  0.00000000000E+00  0.45593999997E+02  0.45594000000E+02  0.51100000000E-03 0. -1.
         11   -1    0    0    0    0 -0.00000000000E+00 -0.00000000000E+00 -0.45593999997E+02  0.45594000000E+02  0.51100000000E-03 0.  1.
    9900012    2    1    2    0    0 -0.12750295088E+01  0.18154366355E+02 -0.44144005246E+01  0.72461183667E+02  0.69999496344E+02 0.  0.
         12    1    1    2    0    0  0.12750295088E+01 -0.18154366355E+02  0.44144005246E+01  0.18726816333E+02  0.00000000000E+00 0. -1.
         11    1    3    3    0    0 -0.62412954794E+01  0.23978406575E+01  0.14277654101E+02  0.15765621332E+02  0.51100000000E-03 0. -1.
        -11    1    3    3    0    0 -0.12768808749E+02  0.22872144273E+02 -0.25356750651E+02  0.36457403423E+02  0.51100000000E-03 0.  1.
        -12    1    3    3    0    0  0.17735074720E+02 -0.71156185756E+01  0.66646960250E+01  0.20238158912E+02  0.00000000000E+00 0.  1.
</event>
<event>
 7    1  0.1333056E-013  0.7246153E+02  0.7816164E-02  0.1226708E+00
        -11   -1    0    0    0    0  0.00000000000E+00  0.00000000000E+00  0.45593999997E+02  0.45594000000E+02  0.51100000000E-03 0.  1.
         11   -1    0    0    0    0 -0.00000000000E+00 -0.00000000000E+00 -0.45593999997E+02  0.45594000000E+02  0.51100000000E-03 0. -1.
    9900012    2    1    2    0    0  0.41401809677E+01 -0.15488577847E+02  0.96769660346E+01  0.72461526391E+02  0.69999942808E+02 0.  0.
         12    1    1    2    0    0 -0.41401809677E+01  0.15488577847E+02 -0.96769660346E+01  0.18726473609E+02  0.00000000000E+00 0. -1.
         11    1    3    3    0    0  0.81668672650E+01 -0.72401526654E+01  0.27036114834E+02  0.29155943427E+02  0.51100000000E-03 0.  1.
        -11    1    3    3    0    0 -0.19810017990E+02 -0.21602106646E+01 -0.17299020389E+02  0.26388623109E+02  0.51100000000E-03 0. -1.
         12    1    3    3    0    0  0.15783331693E+02 -0.60882145174E+01 -0.60128409867E-01  0.16916959856E+02  0.00000000000E+00 0. -1.
</event>
<event>
 7    1  0.1333056E-013  0.7246160E+02  0.7816164E-02  0.1226708E+00
        -11   -1    0    0    0    0  0.00000000000E+00  0.00000000000E+00  0.45593999997E+02  0.45594000000E+02  0.51100000000E-03 0. -1.
         11   -1    0    0    0    0 -0.00000000000E+00 -0.00000000000E+00 -0.45593999997E+02  0.45594000000E+02  0.51100000000E-03 0.  1.
    9900012    2    1    2    0    0 -0.81512690255E+01 -0.54554295192E+01 -0.15952220561E+02  0.72461595145E+02  0.70000032372E+02 0.  0.
         12    1    1    2    0    0  0.81512690255E+01  0.54554295192E+01  0.15952220561E+02  0.18726404855E+02  0.00000000000E+00 0. -1.
         11    1    3    3    0    0 -0.24328499382E+01  0.53153266520E+01  0.56950356822E+01  0.81611817724E+01  0.51100000000E-03 0. -1.
        -11    1    3    3    0    0 -0.20540032609E+02 -0.29566810878E+02 -0.17415640184E+02  0.39992421386E+02  0.51100000000E-03 0.  1.
        -12    1    3    3    0    0  0.14821613521E+02  0.18796054707E+02 -0.42316160592E+01  0.24307991986E+02  0.00000000000E+00 0.  1.
</event>
<event>
 7    1  0.1333056E-013  0.7246156E+02  0.7816164E-02  0.1226708E+00
        -11   -1    0    0    0    0  0.00000000000E+00  0.00000000000E+00  0.45593999997E+02  0.45594000000E+02  0.51100000000E-03 0.  1.
         11   -1    0    0    0    0 -0.00000000000E+00 -0.00000000000E+00 -0.45593999997E+02  0.45594000000E+02  0.51100000000E-03 0. -1.
    9900012    2    1    2    0    0 -0.64735571417E+01 -0.33938920309E+01  0.17241055396E+02  0.72461563170E+02  0.69999990720E+02 0.  0.
         12    1    1    2    0    0  0.64735571417E+01  0.33938920309E+01 -0.17241055396E+02  0.18726436830E+02  0.00000000000E+00 0. -1.
         11    1    3    3    0    0  0.15026857112E+02 -0.31621787687E+00 -0.88157598043E+00  0.15056015571E+02  0.51100000000E-03 0. -1.
        -11    1    3    3    0    0 -0.17670662973E+02 -0.11833661059E+02 -0.12947848296E+02  0.24898486695E+02  0.51100000000E-03 0.  1.
        -12    1    3    3    0    0 -0.38297512808E+01  0.87559869052E+01  0.31070479672E+02  0.32507060904E+02  0.00000000000E+00 0.  1.
</event>
<event>
 7    1  0.1333056E-013  0.7246155E+02  0.7816164E-02  0.1226708E+00
        -11   -1    0    0    0    0  0.00000000000E+00  0.00000000000E+00  0.45593999997E+02  0.45594000000E+02  0.51100000000E-03 0. -1.
         11   -1    0    0    0    0 -0.00000000000E+00 -0.00000000000E+00 -0.45593999997E+02  0.45594000000E+02  0.51100000000E-03 0.  1.
    9900012    2    1    2    0    0  0.14273392584E+02  0.11302631626E+02 -0.43818594411E+01  0.72461550532E+02  0.69999974255E+02 0.  0.
         12    1    1    2    0    0 -0.14273392584E+02 -0.11302631626E+02  0.43818594411E+01  0.18726449468E+02  0.00000000000E+00 0. -1.
         11    1    3    3    0    0 -0.59329966830E+01  0.48116587938E+01  0.22805821069E+02  0.24051153504E+02  0.51100000000E-03 0. -1.
        -11    1    3    3    0    0  0.25230875503E+02 -0.65228936282E+01 -0.18784992841E+02  0.32125086400E+02  0.51100000000E-03 0.  1.
         12    1    3    3    0    0 -0.50244862354E+01  0.13013866460E+02 -0.84026876690E+01  0.16285310627E+02  0.00000000000E+00 0. -1.
</event>
<event>
 7    1  0.1333056E-013  0.7246161E+02  0.7816164E-02  0.1226708E+00
        -11   -1    0    0    0    0  0.00000000000E+00  0.00000000000E+00  0.45593999997E+02  0.45594000000E+02  0.51100000000E-03 0.  1.
         11   -1    0    0    0    0 -0.00000000000E+00 -0.00000000000E+00 -0.45593999997E+02  0.45594000000E+02  0.51100000000E-03 0. -1.
    9900012    2    1    2    0    0 -0.39760277287E+01 -0.12645484157E+02  0.13227274093E+02  0.72461605633E+02  0.70000046035E+02 0.  0.
         12    1    1    2    0    0  0.39760277287E+01  0.12645484157E+02 -0.13227274093E+02  0.18726394367E+02  0.00000000000E+00 0. -1.
         11    1    3    3    0    0 -0.89230536255E+01 -0.20763038546E+02 -0.99186550678E+01  0.24680039997E+02  0.51100000000E-03 0. -1.
        -11    1    3    3    0    0 -0.51588469927E+01  0.27935851616E+01  0.32495321358E+02  0.33020656123E+02  0.51100000000E-03 0.  1.
        -12    1    3    3    0    0  0.10105872889E+02  0.53239692267E+01 -0.93493921971E+01  0.14760909513E+02  0.00000000000E+00 0.  1.
</event>
<event>
 7    1  0.1333056E-013  0.7246156E+02  0.7816164E-02  0.1226708E+00
        -11   -1    0    0    0    0  0.00000000000E+00  0.00000000000E+00  0.45593999997E+02  0.45594000000E+02  0.51100000000E-03 0.  1.
         11   -1    0    0    0    0 -0.00000000000E+00 -0.00000000000E+00 -0.45593999997E+02  0.45594000000E+02  0.51100000000E-03 0. -1.
    9900012    2    1    2    0    0  0.25620187825E+01  0.18202493390E+02  0.35755858037E+01  0.72461560945E+02  0.69999987821E+02 0.  0.
         12    1    1    2    0    0 -0.25620187825E+01 -0.18202493390E+02 -0.35755858037E+01  0.18726439055E+02  0.00000000000E+00 0. -1.
         11    1    3    3    0    0 -0.19440138509E+01 -0.18399247884E+02 -0.66298882294E+01  0.19653674739E+02  0.51100000000E-03 0. -1.
        -11    1    3    3    0    0  0.10656656079E+02  0.37768367637E+02  0.17693780812E+02  0.43047459768E+02  0.51100000000E-03 0.  1.
        -12    1    3    3    0    0 -0.61506234460E+01 -0.11666263633E+01 -0.74883067784E+01  0.97604264381E+01  0.00000000000E+00 0.  1.
</event>
<event>
 7    1  0.1333056E-013  0.7246154E+02  0.7816164E-02  0.1226708E+00
        -11   -1    0    0    0    0  0.00000000000E+00  0.00000000000E+00  0.45593999997E+02  0.45594000000E+02  0.51100000000E-03 0. -1.
         11   -1    0    0    0    0 -0.00000000000E+00 -0.00000000000E+00 -0.45593999997E+02  0.45594000000E+02  0.51100000000E-03 0.  1.
    9900012    2    1    2    0    0 -0.16257500405E+02 -0.19207849347E+01  0.90931106252E+01  0.72461537573E+02  0.69999957375E+02 0.  0.
         12    1    1    2    0    0  0.16257500405E+02  0.19207849347E+01 -0.90931106252E+01  0.18726462427E+02  0.00000000000E+00 0. -1.
         11    1    3    3    0    0  0.22225722685E+02 -0.42007482363E+01 -0.20668259088E+01  0.22713449853E+02  0.51100000000E-03 0. -1.
        -11    1    3    3    0    0 -0.29353516101E+02  0.14887687336E+02  0.77174783310E+01  0.33805792607E+02  0.51100000000E-03 0.  1.
        -12    1    3    3    0    0 -0.91297069886E+01 -0.12607724035E+02  0.34424582030E+01  0.15942295114E+02  0.00000000000E+00 0.  1.
</event>
<event>
 7    1  0.1333056E-013  0.7246149E+02  0.7816164E-02  0.1226708E+00
        -11   -1    0    0    0    0  0.00000000000E+00  0.00000000000E+00  0.45593999997E+02  0.45594000000E+02  0.51100000000E-03 0.  1.
         11   -1    0    0    0    0 -0.00000000000E+00 -0.00000000000E+00 -0.45593999997E+02  0.45594000000E+02  0.51100000000E-03 0. -1.
    9900012    2    1    2    0    0 -0.11288322333E+02 -0.67670369327E+00  0.14926426280E+02  0.72461485362E+02  0.69999889360E+02 0.  0.
         12    1    1    2    0    0  0.11288322333E+02  0.67670369327E+00 -0.14926426280E+02  0.18726514638E+02  0.00000000000E+00 0. -1.
         11    1    3    3    0    0 -0.15987974306E+02  0.53185949029E+01 -0.98048811152E+01  0.19494575350E+02  0.51100000000E-03 0. -1.
        -11    1    3    3    0    0  0.20164925970E+02 -0.15951413064E+02  0.22991767302E+02  0.34491929231E+02  0.51100000000E-03 0.  1.
        -12    1    3    3    0    0 -0.15465273997E+02  0.99561144682E+01  0.17395400933E+01  0.18474980781E+02  0.00000000000E+00 0.  1.
</event>
<event>
 7    1  0.1333056E-013  0.7246152E+02  0.7816164E-02  0.1226708E+00
        -11   -1    0    0    0    0  0.00000000000E+00  0.00000000000E+00  0.45593999997E+02  0.45594000000E+02  0.51100000000E-03 0. -1.
         11   -1    0    0    0    0 -0.00000000000E+00 -0.00000000000E+00 -0.45593999997E+02  0.45594000000E+02  0.51100000000E-03 0.  1.
    9900012    2    1    2    0    0 -0.17957670446E+02 -0.29854550827E+01 -0.43920558262E+01  0.72461520772E+02  0.69999935488E+02 0.  0.
         12    1    1    2    0    0  0.17957670446E+02  0.29854550827E+01  0.43920558262E+01  0.18726479228E+02  0.00000000000E+00 0. -1.
         11    1    3    3    0    0 -0.14110725363E+02 -0.15857678365E+02  0.28491744901E+02  0.35529678596E+02  0.51100000000E-03 0. -1.
        -11    1    3    3    0    0 -0.67105060893E+01  0.87737697000E+01 -0.27226594520E+02  0.29381922608E+02  0.51100000000E-03 0.  1.
         12    1    3    3    0    0  0.28635610060E+01  0.40984535827E+01 -0.56572062068E+01  0.75499195672E+01  0.00000000000E+00 0. -1.
</event>
<event>
 7    1  0.1333056E-013  0.7246156E+02  0.7816164E-02  0.1226708E+00
        -11   -1    0    0    0    0  0.00000000000E+00  0.00000000000E+00  0.45593999997E+02  0.45594000000E+02  0.51100000000E-03 0.  1.
         11   -1    0    0    0    0 -0.00000000000E+00 -0.00000000000E+00 -0.45593999997E+02  0.45594000000E+02  0.51100000000E-03 0. -1.
    9900012    2    1    2    0    0 -0.14252781132E+02 -0.32304925051E+01  0.11709043576E+02  0.72461560047E+02  0.69999986651E+02 0.  0.
         12    1    1    2    0    0  0.14252781132E+02  0.32304925051E+01 -0.11709043576E+02  0.18726439953E+02  0.00000000000E+00 0. -1.
         11    1    3    3    0    0  0.12268103278E+02 -0.23889281032E+02  0.10682899114E+02  0.28902049062E+02  0.51100000000E-03 0.  1.
        -11    1    3    3    0    0 -0.15228172347E+02  0.18315084608E+02 -0.11570485556E+02  0.26480477592E+02  0.51100000000E-03 0. -1.
        -12    1    3    3    0    0 -0.11292712064E+02  0.23437039187E+01  0.12596630019E+02  0.17079033393E+02  0.00000000000E+00 0.  1.
</event>
<event>
 7    1  0.1333056E-013  0.7246156E+02  0.7816164E-02  0.1226708E+00
        -11   -1    0    0    0    0  0.00000000000E+00  0.00000000000E+00  0.45593999997E+02  0.45594000000E+02  0.51100000000E-03 0.  1.
         11   -1    0    0    0    0 -0.00000000000E+00 -0.00000000000E+00 -0.45593999997E+02  0.45594000000E+02  0.51100000000E-03 0. -1.
    9900012    2    1    2    0    0  0.16617868729E+02 -0.61036978022E+01  0.61049988230E+01  0.72461556169E+02  0.69999981599E+02 0.  0.
         12    1    1    2    0    0 -0.16617868729E+02  0.61036978022E+01 -0.61049988230E+01  0.18726443831E+02  0.00000000000E+00 0. -1.
         11    1    3    3    0    0  0.24095145862E+02  0.14306437674E+02  0.24542907042E+02  0.37250563746E+02  0.51100000000E-03 0. -1.
        -11    1    3    3    0    0  0.20389420051E+01 -0.17339898543E+02 -0.44516255124E+01  0.18017944831E+02  0.51100000000E-03 0.  1.
         12    1    3    3    0    0 -0.95162191384E+01 -0.30702369332E+01 -0.13986282707E+02  0.17193047591E+02  0.00000000000E+00 0. -1.
</event>
<event>
 7    1  0.1333056E-013  0.7246155E+02  0.7816164E-02  0.1226708E+00
        -11   -1    0    0    0    0  0.00000000000E+00  0.00000000000E+00  0.45593999997E+02  0.45594000000E+02  0.51100000000E-03 0.  1.
         11   -1    0    0    0    0 -0.00000000000E+00 -0.00000000000E+00 -0.45593999997E+02  0.45594000000E+02  0.51100000000E-03 0. -1.
    9900012    2    1    2    0    0 -0.11662324262E+02  0.69070899469E+01  0.12921391889E+02  0.72461546329E+02  0.69999968781E+02 0.  0.
         12    1    1    2    0    0  0.11662324262E+02 -0.69070899469E+01 -0.12921391889E+02  0.18726453671E+02  0.00000000000E+00 0. -1.
         11    1    3    3    0    0 -0.82965678047E+00 -0.21372396783E+02 -0.82088914273E+01  0.22909682961E+02  0.51100000000E-03 0. -1.
        -11    1    3    3    0    0 -0.96280851950E+01  0.25033750525E+02  0.29873946127E+02  0.40147743988E+02  0.51100000000E-03 0.  1.
         12    1    3    3    0    0 -0.12045822861E+01  0.32457362050E+01 -0.87436628099E+01  0.94041193809E+01  0.00000000000E+00 0. -1.
</event>
<event>
 7    1  0.1333056E-013  0.7246142E+02  0.7816164E-02  0.1226708E+00
        -11   -1    0    0    0    0  0.00000000000E+00  0.00000000000E+00  0.45593999997E+02  0.45594000000E+02  0.51100000000E-03 0.  1.
         11   -1    0    0    0    0 -0.00000000000E+00 -0.00000000000E+00 -0.45593999997E+02  0.45594000000E+02  0.51100000000E-03 0. -1.
    9900012    2    1    2    0    0  0.95727660800E+01  0.15860446481E+02  0.27373348599E+01  0.72461424896E+02  0.69999810591E+02 0.  0.
         12    1    1    2    0    0 -0.95727660800E+01 -0.15860446481E+02 -0.27373348599E+01  0.18726575104E+02  0.00000000000E+00 0. -1.
         11    1    3    3    0    0  0.52903411831E+01  0.44873697902E+00  0.98124281709E+00  0.53992510997E+01  0.51100000000E-03 0. -1.
        -11    1    3    3    0    0  0.10910214966E+01  0.47500864223E+01 -0.31561203541E+02  0.31935297371E+02  0.51100000000E-03 0.  1.
        -12    1    3    3    0    0  0.31914034003E+01  0.10661623080E+02  0.33317295584E+02  0.35126876425E+02  0.00000000000E+00 0.  1.
</event>
<event>
 7    1  0.1333056E-013  0.7246156E+02  0.7816164E-02  0.1226708E+00
        -11   -1    0    0    0    0  0.00000000000E+00  0.00000000000E+00  0.45593999997E+02  0.45594000000E+02  0.51100000000E-03 0.  1.
         11   -1    0    0    0    0 -0.00000000000E+00 -0.00000000000E+00 -0.45593999997E+02  0.45594000000E+02  0.51100000000E-03 0. -1.
    9900012    2    1    2    0    0 -0.10362623349E+02  0.80502520791E+01  0.13359980551E+02  0.72461558760E+02  0.69999984974E+02 0.  0.
         12    1    1    2    0    0  0.10362623349E+02 -0.80502520791E+01 -0.13359980551E+02  0.18726441240E+02  0.00000000000E+00 0. -1.
         11    1    3    3    0    0 -0.72937043451E+01  0.51030824764E+01 -0.26467347811E+02  0.27924184397E+02  0.51100000000E-03 0. -1.
        -11    1    3    3    0    0 -0.10703913546E+02  0.13562054606E+00  0.29550680954E+02  0.31429840968E+02  0.51100000000E-03 0.  1.
        -12    1    3    3    0    0  0.76349945419E+01  0.28115490566E+01  0.10276647408E+02  0.13107533395E+02  0.00000000000E+00 0.  1.
</event>
<event>
 7    1  0.1333056E-013  0.7246158E+02  0.7816164E-02  0.1226708E+00
        -11   -1    0    0    0    0  0.00000000000E+00  0.00000000000E+00  0.45593999997E+02  0.45594000000E+02  0.51100000000E-03 0.  1.
         11   -1    0    0    0    0 -0.00000000000E+00 -0.00000000000E+00 -0.45593999997E+02  0.45594000000E+02  0.51100000000E-03 0. -1.
    9900012    2    1    2    0    0 -0.27442860834E+01  0.14638639576E+02  0.11351563979E+02  0.72461578037E+02  0.70000010087E+02 0.  0.
         12    1    1    2    0    0  0.27442860834E+01 -0.14638639576E+02 -0.11351563979E+02  0.18726421963E+02  0.00000000000E+00 0. -1.
         11    1    3    3    0    0 -0.24204890524E+02  0.68097260542E+01 -0.13452981518E+02  0.28517219468E+02  0.51100000000E-03 0. -1.
        -11    1    3    3    0    0  0.15639516686E+02  0.97401207231E+00  0.29791457989E+02  0.33661166811E+02  0.51100000000E-03 0.  1.
         12    1    3    3    0    0  0.58210877547E+01  0.68549014499E+01 -0.49869124918E+01  0.10283191758E+02  0.00000000000E+00 0. -1.
</event>
<event>
 7    1  0.1333056E-013  0.7246155E+02  0.7816164E-02  0.1226708E+00
        -11   -1    0    0    0    0  0.00000000000E+00  0.00000000000E+00  0.45593999997E+02  0.45594000000E+02  0.51100000000E-03 0.  1.
         11   -1    0    0    0    0 -0.00000000000E+00 -0.00000000000E+00 -0.45593999997E+02  0.45594000000E+02  0.51100000000E-03 0. -1.
    9900012    2    1    2    0    0 -0.43994306982E+01  0.16577711549E+02  0.75169457056E+01  0.72461548563E+02  0.69999971691E+02 0.  0.
         12    1    1    2    0    0  0.43994306982E+01 -0.16577711549E+02 -0.75169457056E+01  0.18726451437E+02  0.00000000000E+00 0. -1.
         11    1    3    3    0    0 -0.12868232245E+02  0.19832482249E+02  0.20821244437E+02  0.31503062922E+02  0.51100000000E-03 0.  1.
        -11    1    3    3    0    0  0.75636507754E+01  0.49506163971E+01 -0.25033395162E+02  0.26615564795E+02  0.51100000000E-03 0. -1.
         12    1    3    3    0    0  0.90515077175E+00 -0.82053870973E+01  0.11729096430E+02  0.14342920847E+02  0.00000000000E+00 0. -1.
</event>
<event>
 7    1  0.1333056E-013  0.7246162E+02  0.7816164E-02  0.1226708E+00
        -11   -1    0    0    0    0  0.00000000000E+00  0.00000000000E+00  0.45593999997E+02  0.45594000000E+02  0.51100000000E-03 0. -1.
         11   -1    0    0    0    0 -0.00000000000E+00 -0.00000000000E+00 -0.45593999997E+02  0.45594000000E+02  0.51100000000E-03 0.  1.
    9900012    2    1    2    0    0 -0.83925477359E+01 -0.16154210198E+02 -0.43913442782E+01  0.72461621033E+02  0.70000066097E+02 0.  0.
         12    1    1    2    0    0  0.83925477359E+01  0.16154210198E+02  0.43913442782E+01  0.18726378967E+02  0.00000000000E+00 0. -1.
         11    1    3    3    0    0 -0.29817619448E+02 -0.16832279024E+02  0.25990962630E+01  0.34339064465E+02  0.51100000000E-03 0. -1.
        -11    1    3    3    0    0  0.10927861384E+02  0.13177783075E+02 -0.12162455724E+02  0.20999939302E+02  0.51100000000E-03 0.  1.
        -12    1    3    3    0    0  0.10497210328E+02 -0.12499714250E+02  0.51720151824E+01  0.17122617266E+02  0.00000000000E+00 0.  1.
</event>
<event>
 7    1  0.1333056E-013  0.7246155E+02  0.7816164E-02  0.1226708E+00
        -11   -1    0    0    0    0  0.00000000000E+00  0.00000000000E+00  0.45593999997E+02  0.45594000000E+02  0.51100000000E-03 0. -1.
         11   -1    0    0    0    0 -0.00000000000E+00 -0.00000000000E+00 -0.45593999997E+02  0.45594000000E+02  0.51100000000E-03 0.  1.
    9900012    2    1    2    0    0  0.82240081755E+01 -0.99991050119E+01 -0.13530099973E+02  0.72461547672E+02  0.69999970530E+02 0.  0.
         12    1    1    2    0    0 -0.82240081755E+01  0.99991050119E+01  0.13530099973E+02  0.18726452328E+02  0.00000000000E+00 0. -1.
         11    1    3    3    0    0 -0.55297827810E+01 -0.12711781078E+01 -0.10925420112E+02  0.12310938075E+02  0.51100000000E-03 0.  1.
        -11    1    3    3    0    0  0.35099526295E+02 -0.10592915611E+02 -0.90718855555E+01  0.37768845826E+02  0.51100000000E-03 0. -1.
        -12    1    3    3    0    0 -0.21345735338E+02  0.18649887065E+01  0.64672056952E+01  0.22381763771E+02  0.00000000000E+00 0.  1.
</event>
<event>
 7    1  0.1333056E-013  0.7246159E+02  0.7816164E-02  0.1226708E+00
        -11   -1    0    0    0    0  0.00000000000E+00  0.00000000000E+00  0.45593999997E+02  0.45594000000E+02  0.51100000000E-03 0.  1.
         11   -1    0    0    0    0 -0.00000000000E+00 -0.00000000000E+00 -0.45593999997E+02  0.45594000000E+02  0.51100000000E-03 0. -1.
    9900012    2    1    2    0    0 -0.11199898905E+02  0.70019769338E+01  0.13274523880E+02  0.72461590821E+02  0.70000026740E+02 0.  0.
         12    1    1    2    0    0  0.11199898905E+02 -0.70019769338E+01 -0.13274523880E+02  0.18726409179E+02  0.00000000000E+00 0. -1.
         11    1    3    3    0    0 -0.23894884167E+02  0.14284617849E+02  0.48217322851E+01  0.28253582055E+02  0.51100000000E-03 0.  1.
        -11    1    3    3    0    0  0.21822904707E+02 -0.57040250847E+01 -0.91304030279E+01  0.24333913202E+02  0.51100000000E-03 0. -1.
         12    1    3    3    0    0 -0.91279194452E+01 -0.15786158308E+01  0.17583194623E+02  0.19874095564E+02  0.00000000000E+00 0. -1.
</event>
<event>
 7    1  0.1333056E-013  0.7246157E+02  0.7816164E-02  0.1226708E+00
        -11   -1    0    0    0    0  0.00000000000E+00  0.00000000000E+00  0.45593999997E+02  0.45594000000E+02  0.51100000000E-03 0.  1.
         11   -1    0    0    0    0 -0.00000000000E+00 -0.00000000000E+00 -0.45593999997E+02  0.45594000000E+02  0.51100000000E-03 0. -1.
    9900012    2    1    2    0    0  0.11698440090E+02  0.13598760014E+02  0.53757998085E+01  0.72461574873E+02  0.70000005965E+02 0.  0.
         12    1    1    2    0    0 -0.11698440090E+02 -0.13598760014E+02 -0.53757998085E+01  0.18726425127E+02  0.00000000000E+00 0. -1.
         11    1    3    3    0    0  0.16158488048E+02 -0.86571911658E+01 -0.25719454281E+02  0.31583762025E+02  0.51100000000E-03 0. -1.
        -11    1    3    3    0    0  0.90469960833E+00  0.19232245702E+01  0.12888587294E+02  0.13062655045E+02  0.51100000000E-03 0.  1.
         12    1    3    3    0    0 -0.53647475667E+01  0.20332726610E+02  0.18206666795E+02  0.27815157803E+02  0.00000000000E+00 0. -1.
</event>
<event>
 7    1  0.1333056E-013  0.7246154E+02  0.7816164E-02  0.1226708E+00
        -11   -1    0    0    0    0  0.00000000000E+00  0.00000000000E+00  0.45593999997E+02  0.45594000000E+02  0.51100000000E-03 0. -1.
         11   -1    0    0    0    0 -0.00000000000E+00 -0.00000000000E+00 -0.45593999997E+02  0.45594000000E+02  0.51100000000E-03 0.  1.
    9900012    2    1    2    0    0  0.54922927604E+01  0.35977185741E+01 -0.17537718221E+02  0.72461536930E+02  0.69999956537E+02 0.  0.
         12    1    1    2    0    0 -0.54922927604E+01 -0.35977185741E+01  0.17537718221E+02  0.18726463070E+02  0.00000000000E+00 0. -1.
         11    1    3    3    0    0 -0.11161253823E+02  0.70065548243E+01  0.20452678144E+02  0.24330586530E+02  0.51100000000E-03 0. -1.
        -11    1    3    3    0    0  0.73294901638E+01  0.52925411347E+01 -0.11109791922E+01  0.91086054229E+01  0.51100000000E-03 0.  1.
         12    1    3    3    0    0  0.93240564194E+01 -0.87013773850E+01 -0.36879417173E+02  0.39022344977E+02  0.00000000000E+00 0. -1.
</event>
<event>
 7    1  0.1333056E-013  0.7246163E+02  0.7816164E-02  0.1226708E+00
        -11   -1    0    0    0    0  0.00000000000E+00  0.00000000000E+00  0.45593999997E+02  0.45594000000E+02  0.51100000000E-03 0.  1.
         11   -1    0    0    0    0 -0.00000000000E+00 -0.00000000000E+00 -0.45593999997E+02  0.45594000000E+02  0.51100000000E-03 0. -1.
    9900012    2    1    2    0    0  0.12501107042E+02 -0.10906547607E+02  0.86859932336E+01  0.72461629918E+02  0.70000077671E+02 0.  0.
         12    1    1    2    0    0 -0.12501107042E+02  0.10906547607E+02 -0.86859932336E+01  0.18726370082E+02  0.00000000000E+00 0. -1.
         11    1    3    3    0    0 -0.12013343896E+02 -0.13193066456E+02  0.34606531288E+01  0.18175630784E+02  0.51100000000E-03 0. -1.
        -11    1    3    3    0    0  0.32065977963E+02  0.52299592092E+01 -0.12487560648E+02  0.34806875574E+02  0.51100000000E-03 0.  1.
        -12    1    3    3    0    0 -0.75515270247E+01 -0.29434403601E+01  0.17712900753E+02  0.19479123560E+02  0.00000000000E+00 0.  1.
</event>
<event>
 7    1  0.1333056E-013  0.7246156E+02  0.7816164E-02  0.1226708E+00
        -11   -1    0    0    0    0  0.00000000000E+00  0.00000000000E+00  0.45593999997E+02  0.45594000000E+02  0.51100000000E-03 0.  1.
         11   -1    0    0    0    0 -0.00000000000E+00 -0.00000000000E+00 -0.45593999997E+02  0.45594000000E+02  0.51100000000E-03 0. -1.
    9900012    2    1    2    0    0 -0.39959334139E+01  0.49058630476E+01  0.17625116024E+02  0.72461556372E+02  0.69999981864E+02 0.  0.
         12    1    1    2    0    0  0.39959334139E+01 -0.49058630476E+01 -0.17625116024E+02  0.18726443628E+02  0.00000000000E+00 0. -1.
         11    1    3    3    0    0  0.70999053241E+01 -0.10053073554E+02  0.13312490600E+02  0.18129957246E+02  0.51100000000E-03 0. -1.
        -11    1    3    3    0    0 -0.29275774249E+02  0.10979364677E+02  0.12915017013E+02  0.33829204414E+02  0.51100000000E-03 0.  1.
        -12    1    3    3    0    0  0.18179935511E+02  0.39795719238E+01 -0.86023915892E+01  0.20502394712E+02  0.00000000000E+00 0.  1.
</event>
<event>
 7    1  0.1333056E-013  0.7246134E+02  0.7816164E-02  0.1226709E+00
        -11   -1    0    0    0    0  0.00000000000E+00  0.00000000000E+00  0.45593999997E+02  0.45594000000E+02  0.51100000000E-03 0. -1.
         11   -1    0    0    0    0 -0.00000000000E+00 -0.00000000000E+00 -0.45593999997E+02  0.45594000000E+02  0.51100000000E-03 0.  1.
    9900012    2    1    2    0    0  0.10324085351E+01  0.18653270167E+02 -0.12951593524E+01  0.72461340046E+02  0.69999700058E+02 0.  0.
         12    1    1    2    0    0 -0.10324085351E+01 -0.18653270167E+02  0.12951593524E+01  0.18726659954E+02  0.00000000000E+00 0. -1.
         11    1    3    3    0    0 -0.66657055758E+01  0.37784348133E+02 -0.73616555817E+01  0.39067666526E+02  0.51100000000E-03 0. -1.
        -11    1    3    3    0    0  0.15991686756E+02 -0.15498701345E+02 -0.39006431840E+00  0.22273211243E+02  0.51100000000E-03 0.  1.
         12    1    3    3    0    0 -0.82935726447E+01 -0.36323766210E+01  0.64565605477E+01  0.11120462276E+02  0.00000000000E+00 0. -1.
</event>
<event>
 7    1  0.1333056E-013  0.7246156E+02  0.7816164E-02  0.1226708E+00
        -11   -1    0    0    0    0  0.00000000000E+00  0.00000000000E+00  0.45593999997E+02  0.45594000000E+02  0.51100000000E-03 0. -1.
         11   -1    0    0    0    0 -0.00000000000E+00 -0.00000000000E+00 -0.45593999997E+02  0.45594000000E+02  0.51100000000E-03 0.  1.
    9900012    2    1    2    0    0  0.39265082955E+01 -0.11885095047E+02 -0.13928629837E+02  0.72461556643E+02  0.69999982217E+02 0.  0.
         12    1    1    2    0    0 -0.39265082955E+01  0.11885095047E+02  0.13928629837E+02  0.18726443357E+02  0.00000000000E+00 0. -1.
         11    1    3    3    0    0 -0.45719075184E+01  0.27619918194E+02 -0.36594853638E+01  0.28233916710E+02  0.51100000000E-03 0. -1.
        -11    1    3    3    0    0  0.95743915619E+01 -0.31391841232E+02 -0.24535051721E+01  0.32911037018E+02  0.51100000000E-03 0.  1.
         12    1    3    3    0    0 -0.10759757480E+01 -0.81131720087E+01 -0.78156393008E+01  0.11316602915E+02  0.00000000000E+00 0. -1.
</event>
<event>
 7    1  0.1333056E-013  0.7246158E+02  0.7816164E-02  0.1226708E+00
        -11   -1    0    0    0    0  0.00000000000E+00  0.00000000000E+00  0.45593999997E+02  0.45594000000E+02  0.51100000000E-03 0. -1.
         11   -1    0    0    0    0 -0.00000000000E+00 -0.00000000000E+00 -0.45593999997E+02  0.45594000000E+02  0.51100000000E-03 0.  1.
    9900012    2    1    2    0    0  0.13091810882E+01  0.12240904865E+02 -0.14111166001E+02  0.72461582485E+02  0.70000015881E+02 0.  0.
         12    1    1    2    0    0 -0.13091810882E+01 -0.12240904865E+02  0.14111166001E+02  0.18726417515E+02  0.00000000000E+00 0. -1.
         11    1    3    3    0    0  0.56714251127E+01  0.32165222934E+02  0.49447427703E+01  0.33033575503E+02  0.51100000000E-03 0. -1.
        -11    1    3    3    0    0 -0.10509672377E+02 -0.13975043626E+02 -0.23887176907E+02  0.29603247772E+02  0.51100000000E-03 0.  1.
        -12    1    3    3    0    0  0.61474283522E+01 -0.59492744426E+01  0.48312681352E+01  0.98247592099E+01  0.00000000000E+00 0.  1.
</event>
<event>
 7    1  0.1333056E-013  0.7246155E+02  0.7816164E-02  0.1226708E+00
        -11   -1    0    0    0    0  0.00000000000E+00  0.00000000000E+00  0.45593999997E+02  0.45594000000E+02  0.51100000000E-03 0.  1.
         11   -1    0    0    0    0 -0.00000000000E+00 -0.00000000000E+00 -0.45593999997E+02  0.45594000000E+02  0.51100000000E-03 0. -1.
    9900012    2    1    2    0    0 -0.17797637580E+02 -0.41922646789E+00  0.58093171620E+01  0.72461552922E+02  0.69999977369E+02 0.  0.
         12    1    1    2    0    0  0.17797637580E+02  0.41922646789E+00 -0.58093171620E+01  0.18726447078E+02  0.00000000000E+00 0. -1.
         11    1    3    3    0    0 -0.28356296765E+01 -0.23320801667E+02 -0.89220910677E+01  0.25129749210E+02  0.51100000000E-03 0.  1.
        -11    1    3    3    0    0 -0.37804367708E+01  0.28050984429E+02  0.19236883994E+02  0.34222903671E+02  0.51100000000E-03 0. -1.
         12    1    3    3    0    0 -0.11181571133E+02 -0.51494092296E+01 -0.45054757647E+01  0.13108900041E+02  0.00000000000E+00 0. -1.
</event>
<event>
 7    1  0.1333056E-013  0.7246159E+02  0.7816164E-02  0.1226708E+00
        -11   -1    0    0    0    0  0.00000000000E+00  0.00000000000E+00  0.45593999997E+02  0.45594000000E+02  0.51100000000E-03 0.  1.
         11   -1    0    0    0    0 -0.00000000000E+00 -0.00000000000E+00 -0.45593999997E+02  0.45594000000E+02  0.51100000000E-03 0. -1.
    9900012    2    1    2    0    0 -0.87145753715E+01  0.16501978471E+02  0.15554543102E+01  0.72461586689E+02  0.70000021358E+02 0.  0.
         12    1    1    2    0    0  0.87145753715E+01 -0.16501978471E+02 -0.15554543102E+01  0.18726413311E+02  0.00000000000E+00 0. -1.
         11    1    3    3    0    0 -0.21793312536E+02 -0.77524493375E+01 -0.24891148514E+01  0.23264664945E+02  0.51100000000E-03 0. -1.
        -11    1    3    3    0    0  0.92063853756E+01  0.31978275013E+02 -0.81415086227E+01  0.34258601364E+02  0.51100000000E-03 0.  1.
        -12    1    3    3    0    0  0.38723517884E+01 -0.77238472047E+01  0.12186077784E+02  0.14938320380E+02  0.00000000000E+00 0.  1.
</event>
<event>
 7    1  0.1333056E-013  0.7246155E+02  0.7816164E-02  0.1226708E+00
        -11   -1    0    0    0    0  0.00000000000E+00  0.00000000000E+00  0.45593999997E+02  0.45594000000E+02  0.51100000000E-03 0. -1.
         11   -1    0    0    0    0 -0.00000000000E+00 -0.00000000000E+00 -0.45593999997E+02  0.45594000000E+02  0.51100000000E-03 0.  1.
    9900012    2    1    2    0    0  0.13159724530E+02 -0.13044717991E+02 -0.27086798105E+01  0.72461549095E+02  0.69999972384E+02 0.  0.
         12    1    1    2    0    0 -0.13159724530E+02  0.13044717991E+02  0.27086798105E+01  0.18726450905E+02  0.00000000000E+00 0. -1.
         11    1    3    3    0    0  0.32065221332E+02 -0.89967374121E+01  0.18249408404E+02  0.37975789794E+02  0.51100000000E-03 0. -1.
        -11    1    3    3    0    0 -0.10872216489E+02  0.51917330991E+01 -0.18374889394E+02  0.21972613510E+02  0.51100000000E-03 0.  1.
         12    1    3    3    0    0 -0.80332803126E+01 -0.92397136784E+01 -0.25831988204E+01  0.12513145791E+02  0.00000000000E+00 0. -1.
</event>
<event>
 7    1  0.1333056E-013  0.7246161E+02  0.7816164E-02  0.1226708E+00
        -11   -1    0    0    0    0  0.00000000000E+00  0.00000000000E+00  0.45593999997E+02  0.45594000000E+02  0.51100000000E-03 0.  1.
         11   -1    0    0    0    0 -0.00000000000E+00 -0.00000000000E+00 -0.45593999997E+02  0.45594000000E+02  0.51100000000E-03 0. -1.
    9900012    2    1    2    0    0 -0.70164491650E+01  0.47333443019E-01  0.17362165493E+02  0.72461612470E+02  0.70000054941E+02 0.  0.
         12    1    1    2    0    0  0.70164491650E+01 -0.47333443019E-01 -0.17362165493E+02  0.18726387530E+02  0.00000000000E+00 0. -1.
         11    1    3    3    0    0 -0.19723860552E+02  0.76504048592E+01 -0.15625146945E+02  0.26300277316E+02  0.51100000000E-03 0. -1.
        -11    1    3    3    0    0  0.13306478486E+02  0.43651098016E+01  0.30997434511E+02  0.34014077965E+02  0.51100000000E-03 0.  1.
        -12    1    3    3    0    0 -0.59906709905E+00 -0.11968181218E+02  0.19898779271E+01  0.12147257189E+02  0.00000000000E+00 0.  1.
</event>
<event>
 7    1  0.1333056E-013  0.7246162E+02  0.7816164E-02  0.1226708E+00
        -11   -1    0    0    0    0  0.00000000000E+00  0.00000000000E+00  0.45593999997E+02  0.45594000000E+02  0.51100000000E-03 0.  1.
         11   -1    0    0    0    0 -0.00000000000E+00 -0.00000000000E+00 -0.45593999997E+02  0.45594000000E+02  0.51100000000E-03 0. -1.
    9900012    2    1    2    0    0 -0.10236734869E+02  0.15365943581E+02  0.31263693337E+01  0.72461624266E+02  0.70000070308E+02 0.  0.
         12    1    1    2    0    0  0.10236734869E+02 -0.15365943581E+02 -0.31263693337E+01  0.18726375734E+02  0.00000000000E+00 0. -1.
         11    1    3    3    0    0  0.88421374196E+01 -0.12026076770E+02  0.80580417370E+01  0.16962958277E+02  0.51100000000E-03 0. -1.
        -11    1    3    3    0    0 -0.19779703302E+01  0.33844878446E+02  0.56627995017E+01  0.34372306616E+02  0.51100000000E-03 0.  1.
         12    1    3    3    0    0 -0.17100901959E+02 -0.64528580952E+01 -0.10594471905E+02  0.21126359373E+02  0.00000000000E+00 0. -1.
</event>
<event>
 7    1  0.1333056E-013  0.7246154E+02  0.7816164E-02  0.1226708E+00
        -11   -1    0    0    0    0  0.00000000000E+00  0.00000000000E+00  0.45593999997E+02  0.45594000000E+02  0.51100000000E-03 0. -1.
         11   -1    0    0    0    0 -0.00000000000E+00 -0.00000000000E+00 -0.45593999997E+02  0.45594000000E+02  0.51100000000E-03 0.  1.
    9900012    2    1    2    0    0  0.11515182263E+02  0.46150233528E+01 -0.14027915316E+02  0.72461540879E+02  0.69999961681E+02 0.  0.
         12    1    1    2    0    0 -0.11515182263E+02 -0.46150233528E+01  0.14027915316E+02  0.18726459121E+02  0.00000000000E+00 0. -1.
         11    1    3    3    0    0 -0.21907121775E+02 -0.12448211096E+02  0.25884303806E+00  0.25198153582E+02  0.51100000000E-03 0. -1.
        -11    1    3    3    0    0  0.31781133501E+02  0.51049353061E+01 -0.63261450028E+01  0.32804282068E+02  0.51100000000E-03 0.  1.
         12    1    3    3    0    0  0.16411705363E+01  0.11958299143E+02 -0.79606133510E+01  0.14459105230E+02  0.00000000000E+00 0. -1.
</event>
<event>
 7    1  0.1623551E-013  0.7246156E+02  0.7816164E-02  0.1226708E+00
        -11   -1    0    0    0    0  0.00000000000E+00  0.00000000000E+00  0.45593999997E+02  0.45594000000E+02  0.51100000000E-03 0. -1.
         11   -1    0    0    0    0 -0.00000000000E+00 -0.00000000000E+00 -0.45593999997E+02  0.45594000000E+02  0.51100000000E-03 0.  1.
    9900012    2    1    2    0    0 -0.57671516165E+01 -0.22196639686E+01 -0.17677464915E+02  0.72461555818E+02  0.69999981141E+02 0.  0.
         12    1    1    2    0    0  0.57671516165E+01  0.22196639686E+01  0.17677464915E+02  0.18726444182E+02  0.00000000000E+00 0. -1.
         11    1    3    3    0    0  0.12891589006E+02 -0.77349813315E+01  0.12635160034E+02  0.19638489571E+02  0.51100000000E-03 0. -1.
        -11    1    3    3    0    0 -0.12064199945E+02 -0.20275075080E+01 -0.38175057702E+02  0.40087288981E+02  0.51100000000E-03 0.  1.
         12    1    3    3    0    0 -0.65945406768E+01  0.75428248709E+01  0.78624327525E+01  0.12735777266E+02  0.00000000000E+00 0. -1.
</event>
<event>
 7    1  0.1333056E-013  0.7246155E+02  0.7816164E-02  0.1226708E+00
        -11   -1    0    0    0    0  0.00000000000E+00  0.00000000000E+00  0.45593999997E+02  0.45594000000E+02  0.51100000000E-03 0. -1.
         11   -1    0    0    0    0 -0.00000000000E+00 -0.00000000000E+00 -0.45593999997E+02  0.45594000000E+02  0.51100000000E-03 0.  1.
    9900012    2    1    2    0    0  0.11148722927E+01  0.13367551326E+02 -0.13066965306E+02  0.72461549429E+02  0.69999972818E+02 0.  0.
         12    1    1    2    0    0 -0.11148722927E+01 -0.13367551326E+02  0.13066965306E+02  0.18726450571E+02  0.00000000000E+00 0. -1.
         11    1    3    3    0    0 -0.16624221734E+02 -0.19201998939E+02 -0.11603790986E+02  0.27923636529E+02  0.51100000000E-03 0. -1.
        -11    1    3    3    0    0 -0.47102452893E+01  0.12983900691E+02 -0.46551784804E+01  0.14575279578E+02  0.51100000000E-03 0.  1.
         12    1    3    3    0    0  0.22449339316E+02  0.19585649574E+02  0.31920041601E+01  0.29962633321E+02  0.00000000000E+00 0. -1.
</event>
<event>
 7    1  0.1333056E-013  0.7246157E+02  0.7816164E-02  0.1226708E+00
        -11   -1    0    0    0    0  0.00000000000E+00  0.00000000000E+00  0.45593999997E+02  0.45594000000E+02  0.51100000000E-03 0. -1.
         11   -1    0    0    0    0 -0.00000000000E+00 -0.00000000000E+00 -0.45593999997E+02  0.45594000000E+02  0.51100000000E-03 0.  1.
    9900012    2    1    2    0    0 -0.16185616458E+02 -0.66935552680E+01 -0.66257986684E+01  0.72461572945E+02  0.70000003453E+02 0.  0.
         12    1    1    2    0    0  0.16185616458E+02  0.66935552680E+01  0.66257986684E+01  0.18726427055E+02  0.00000000000E+00 0. -1.
         11    1    3    3    0    0 -0.22591988291E+02 -0.12427488755E+02  0.22279939180E+02  0.34076914500E+02  0.51100000000E-03 0. -1.
        -11    1    3    3    0    0  0.33686262096E+00 -0.48091459858E+01 -0.25215091148E+02  0.25671816909E+02  0.51100000000E-03 0.  1.
         12    1    3    3    0    0  0.60695092119E+01  0.10543079473E+02 -0.36906467005E+01  0.12712841536E+02  0.00000000000E+00 0. -1.
</event>
<event>
 7    1  0.1333056E-013  0.7246192E+02  0.7816164E-02  0.1226707E+00
        -11   -1    0    0    0    0  0.00000000000E+00  0.00000000000E+00  0.45593999997E+02  0.45594000000E+02  0.51100000000E-03 0.  1.
         11   -1    0    0    0    0 -0.00000000000E+00 -0.00000000000E+00 -0.45593999997E+02  0.45594000000E+02  0.51100000000E-03 0. -1.
    9900012    2    1    2    0    0 -0.15353061005E+02  0.10672237256E+02 -0.10260736941E+01  0.72461923062E+02  0.70000459544E+02 0.  0.
         12    1    1    2    0    0  0.15353061005E+02 -0.10672237256E+02  0.10260736941E+01  0.18726076938E+02  0.00000000000E+00 0. -1.
         11    1    3    3    0    0  0.23904412659E+02 -0.70312761246E+01  0.42062898968E+01  0.25269599591E+02  0.51100000000E-03 0. -1.
        -11    1    3    3    0    0 -0.34319610119E+02  0.79927449033E+01 -0.75896123900E+01  0.36046106950E+02  0.51100000000E-03 0.  1.
         12    1    3    3    0    0 -0.49378635452E+01  0.97107684778E+01  0.23572487991E+01  0.11146216520E+02  0.00000000000E+00 0. -1.
</event>
<event>
 7    1  0.1333056E-013  0.7246169E+02  0.7816164E-02  0.1226708E+00
        -11   -1    0    0    0    0  0.00000000000E+00  0.00000000000E+00  0.45593999997E+02  0.45594000000E+02  0.51100000000E-03 0. -1.
         11   -1    0    0    0    0 -0.00000000000E+00 -0.00000000000E+00 -0.45593999997E+02  0.45594000000E+02  0.51100000000E-03 0.  1.
    9900012    2    1    2    0    0  0.64858242255E+01  0.98221625626E+01 -0.14564812765E+02  0.72461693258E+02  0.70000160183E+02 0.  0.
         12    1    1    2    0    0 -0.64858242255E+01 -0.98221625626E+01  0.14564812765E+02  0.18726306742E+02  0.00000000000E+00 0. -1.
         11    1    3    3    0    0  0.70308768504E+01  0.34312703820E+01  0.42159015148E+01  0.88871070413E+01  0.51100000000E-03 0. -1.
        -11    1    3    3    0    0  0.10730336547E+02 -0.24875557295E+02 -0.47843335325E+01  0.27510422039E+02  0.51100000000E-03 0.  1.
        -12    1    3    3    0    0 -0.11275389172E+02  0.31266449476E+02 -0.13996380748E+02  0.36064164178E+02  0.00000000000E+00 0.  1.
</event>
<event>
 7    1  0.1333056E-013  0.7246154E+02  0.7816164E-02  0.1226708E+00
        -11   -1    0    0    0    0  0.00000000000E+00  0.00000000000E+00  0.45593999997E+02  0.45594000000E+02  0.51100000000E-03 0.  1.
         11   -1    0    0    0    0 -0.00000000000E+00 -0.00000000000E+00 -0.45593999997E+02  0.45594000000E+02  0.51100000000E-03 0. -1.
    9900012    2    1    2    0    0  0.12193935100E+02 -0.40710033747E+01  0.13616727325E+02  0.72461537848E+02  0.69999957732E+02 0.  0.
         12    1    1    2    0    0 -0.12193935100E+02  0.40710033747E+01 -0.13616727325E+02  0.18726462152E+02  0.00000000000E+00 0. -1.
         11    1    3    3    0    0 -0.68194277575E+01 -0.55820321034E+01 -0.19955369353E+02  0.21814684128E+02  0.51100000000E-03 0. -1.
        -11    1    3    3    0    0  0.26928822043E+02 -0.28939992069E+01  0.31134205599E+02  0.41265911435E+02  0.51100000000E-03 0.  1.
        -12    1    3    3    0    0 -0.79154591854E+01  0.44050279356E+01  0.24378910783E+01  0.93809422842E+01  0.00000000000E+00 0.  1.
</event>
<event>
 7    1  0.1333056E-013  0.7246150E+02  0.7816164E-02  0.1226708E+00
        -11   -1    0    0    0    0  0.00000000000E+00  0.00000000000E+00  0.45593999997E+02  0.45594000000E+02  0.51100000000E-03 0.  1.
         11   -1    0    0    0    0 -0.00000000000E+00 -0.00000000000E+00 -0.45593999997E+02  0.45594000000E+02  0.51100000000E-03 0. -1.
    9900012    2    1    2    0    0  0.26566464631E+01  0.12172478240E+02  0.13980508512E+02  0.72461504995E+02  0.69999914935E+02 0.  0.
         12    1    1    2    0    0 -0.26566464631E+01 -0.12172478240E+02 -0.13980508512E+02  0.18726495005E+02  0.00000000000E+00 0. -1.
         11    1    3    3    0    0 -0.60691536784E+00 -0.66190179347E+01 -0.24160205450E+02  0.25057838541E+02  0.51100000000E-03 0. -1.
        -11    1    3    3    0    0 -0.15694282360E+01  0.17761061325E+02  0.38520989183E+02  0.42447438230E+02  0.51100000000E-03 0.  1.
         12    1    3    3    0    0  0.48329900670E+01  0.10304348497E+01 -0.38027522087E+00  0.49562282242E+01  0.00000000000E+00 0. -1.
</event>
<event>
 7    1  0.1333056E-013  0.7246157E+02  0.7816164E-02  0.1226708E+00
        -11   -1    0    0    0    0  0.00000000000E+00  0.00000000000E+00  0.45593999997E+02  0.45594000000E+02  0.51100000000E-03 0.  1.
         11   -1    0    0    0    0 -0.00000000000E+00 -0.00000000000E+00 -0.45593999997E+02  0.45594000000E+02  0.51100000000E-03 0. -1.
    9900012    2    1    2    0    0 -0.69708547657E+01  0.11280818924E+02 -0.13222316879E+02  0.72461565331E+02  0.69999993535E+02 0.  0.
         12    1    1    2    0    0  0.69708547657E+01 -0.11280818924E+02  0.13222316879E+02  0.18726434669E+02  0.00000000000E+00 0. -1.
         11    1    3    3    0    0  0.11180525869E+02  0.13173052117E+02 -0.26202907350E+02  0.31386713983E+02  0.51100000000E-03 0. -1.
        -11    1    3    3    0    0  0.75735380021E+00 -0.10108638073E+02  0.17261905402E+02  0.20018279817E+02  0.51100000000E-03 0.  1.
        -12    1    3    3    0    0 -0.18908734435E+02  0.82164048806E+01 -0.42813149303E+01  0.21056571531E+02  0.00000000000E+00 0.  1.
</event>
<event>
 7    1  0.1333056E-013  0.7246169E+02  0.7816164E-02  0.1226708E+00
        -11   -1    0    0    0    0  0.00000000000E+00  0.00000000000E+00  0.45593999997E+02  0.45594000000E+02  0.51100000000E-03 0. -1.
         11   -1    0    0    0    0 -0.00000000000E+00 -0.00000000000E+00 -0.45593999997E+02  0.45594000000E+02  0.51100000000E-03 0.  1.
    9900012    2    1    2    0    0  0.15879005139E+02 -0.70112421033E+01  0.70266799345E+01  0.72461693612E+02  0.70000160644E+02 0.  0.
         12    1    1    2    0    0 -0.15879005139E+02  0.70112421033E+01 -0.70266799345E+01  0.18726306388E+02  0.00000000000E+00 0. -1.
         11    1    3    3    0    0 -0.59208895805E+01 -0.31864399456E+02  0.37141113420E+01  0.32621948278E+02  0.51100000000E-03 0. -1.
        -11    1    3    3    0    0  0.19262792890E+02  0.25549044015E+02 -0.38325164018E+01  0.32225719887E+02  0.51100000000E-03 0.  1.
         12    1    3    3    0    0  0.25371018295E+01 -0.69588666148E+00  0.71450849943E+01  0.76140254474E+01  0.00000000000E+00 0. -1.
</event>
<event>
 7    1  0.1333056E-013  0.7246153E+02  0.7816164E-02  0.1226708E+00
        -11   -1    0    0    0    0  0.00000000000E+00  0.00000000000E+00  0.45593999997E+02  0.45594000000E+02  0.51100000000E-03 0.  1.
         11   -1    0    0    0    0 -0.00000000000E+00 -0.00000000000E+00 -0.45593999997E+02  0.45594000000E+02  0.51100000000E-03 0. -1.
    9900012    2    1    2    0    0  0.61153638240E+01 -0.17087972311E+02  0.46134631057E+01  0.72461534390E+02  0.69999953228E+02 0.  0.
         12    1    1    2    0    0 -0.61153638240E+01  0.17087972311E+02 -0.46134631057E+01  0.18726465610E+02  0.00000000000E+00 0. -1.
         11    1    3    3    0    0  0.13268244034E+02 -0.34735348071E+02  0.52145916959E+00  0.37186860923E+02  0.51100000000E-03 0. -1.
        -11    1    3    3    0    0  0.63309457498E+01 -0.11567767299E+01  0.95354576473E+01  0.11504084461E+02  0.51100000000E-03 0.  1.
         12    1    3    3    0    0 -0.13483825960E+02  0.18804152490E+02 -0.54434537112E+01  0.23770589006E+02  0.00000000000E+00 0. -1.
</event>
<event>
 7    1  0.1333056E-013  0.7246157E+02  0.7816164E-02  0.1226708E+00
        -11   -1    0    0    0    0  0.00000000000E+00  0.00000000000E+00  0.45593999997E+02  0.45594000000E+02  0.51100000000E-03 0.  1.
         11   -1    0    0    0    0 -0.00000000000E+00 -0.00000000000E+00 -0.45593999997E+02  0.45594000000E+02  0.51100000000E-03 0. -1.
    9900012    2    1    2    0    0 -0.18678532124E+01 -0.16312330121E+02  0.90054482677E+01  0.72461572468E+02  0.70000002832E+02 0.  0.
         12    1    1    2    0    0  0.18678532124E+01  0.16312330121E+02 -0.90054482677E+01  0.18726427532E+02  0.00000000000E+00 0. -1.
         11    1    3    3    0    0  0.57315870579E+01 -0.22825563518E+02  0.25874584492E+02  0.34976442972E+02  0.51100000000E-03 0.  1.
        -11    1    3    3    0    0 -0.26797740676E+01 -0.11777047346E+02 -0.13729956497E+02  0.18286381241E+02  0.51100000000E-03 0. -1.
         12    1    3    3    0    0 -0.49196662026E+01  0.18290280742E+02 -0.31391797273E+01  0.19198748254E+02  0.00000000000E+00 0. -1.
</event>
<event>
 7    1  0.1333056E-013  0.7246157E+02  0.7816164E-02  0.1226708E+00
        -11   -1    0    0    0    0  0.00000000000E+00  0.00000000000E+00  0.45593999997E+02  0.45594000000E+02  0.51100000000E-03 0.  1.
         11   -1    0    0    0    0 -0.00000000000E+00 -0.00000000000E+00 -0.45593999997E+02  0.45594000000E+02  0.51100000000E-03 0. -1.
    9900012    2    1    2    0    0 -0.18455730764E+02  0.17572223257E+01 -0.26414675085E+01  0.72461570043E+02  0.69999999672E+02 0.  0.
         12    1    1    2    0    0  0.18455730764E+02 -0.17572223257E+01  0.26414675085E+01  0.18726429957E+02  0.00000000000E+00 0. -1.
         11    1    3    3    0    0  0.67525068976E+01  0.19080311158E+02  0.10448173987E+00  0.20240196145E+02  0.51100000000E-03 0. -1.
        -11    1    3    3    0    0 -0.73788995134E+01 -0.81399704928E+01 -0.21892098995E+02  0.24494311101E+02  0.51100000000E-03 0.  1.
        -12    1    3    3    0    0 -0.17829338148E+02 -0.91831183397E+01  0.19146149746E+02  0.27727062797E+02  0.00000000000E+00 0.  1.
</event>
<event>
 7    1  0.1333056E-013  0.7246183E+02  0.7816164E-02  0.1226707E+00
        -11   -1    0    0    0    0  0.00000000000E+00  0.00000000000E+00  0.45593999997E+02  0.45594000000E+02  0.51100000000E-03 0.  1.
         11   -1    0    0    0    0 -0.00000000000E+00 -0.00000000000E+00 -0.45593999997E+02  0.45594000000E+02  0.51100000000E-03 0. -1.
    9900012    2    1    2    0    0  0.11513703462E+01 -0.66456797210E+00  0.18678927072E+02  0.72461825249E+02  0.70000332125E+02 0.  0.
         12    1    1    2    0    0 -0.11513703462E+01  0.66456797210E+00 -0.18678927072E+02  0.18726174751E+02  0.00000000000E+00 0. -1.
         11    1    3    3    0    0 -0.20013209543E+00 -0.18708664371E+02 -0.23145376364E+01  0.18852354233E+02  0.51100000000E-03 0. -1.
        -11    1    3    3    0    0  0.78279379470E+01  0.22810228118E+02 -0.64898027624E+01  0.24973999669E+02  0.51100000000E-03 0.  1.
        -12    1    3    3    0    0 -0.64764355053E+01 -0.47661317192E+01  0.27483267471E+02  0.28635471347E+02  0.00000000000E+00 0.  1.
</event>
<event>
 7    1  0.1333056E-013  0.7246155E+02  0.7816164E-02  0.1226708E+00
        -11   -1    0    0    0    0  0.00000000000E+00  0.00000000000E+00  0.45593999997E+02  0.45594000000E+02  0.51100000000E-03 0. -1.
         11   -1    0    0    0    0 -0.00000000000E+00 -0.00000000000E+00 -0.45593999997E+02  0.45594000000E+02  0.51100000000E-03 0.  1.
    9900012    2    1    2    0    0  0.16566634288E+02 -0.86464003599E+01 -0.12109654528E+01  0.72461546835E+02  0.69999969439E+02 0.  0.
         12    1    1    2    0    0 -0.16566634288E+02  0.86464003599E+01  0.12109654528E+01  0.18726453165E+02  0.00000000000E+00 0. -1.
         11    1    3    3    0    0 -0.19967880518E+02 -0.84385692287E+00 -0.16903398542E+02  0.26175431791E+02  0.51100000000E-03 0. -1.
        -11    1    3    3    0    0  0.13855798307E+02 -0.14046401892E+02  0.45020410568E+01  0.20237414034E+02  0.51100000000E-03 0.  1.
         12    1    3    3    0    0  0.22678716500E+02  0.62438584551E+01  0.11190392032E+02  0.26048701010E+02  0.00000000000E+00 0. -1.
</event>
<event>
 7    1  0.1423212E-013  0.7246160E+02  0.7816164E-02  0.1226708E+00
        -11   -1    0    0    0    0  0.00000000000E+00  0.00000000000E+00  0.45593999997E+02  0.45594000000E+02  0.51100000000E-03 0. -1.
         11   -1    0    0    0    0 -0.00000000000E+00 -0.00000000000E+00 -0.45593999997E+02  0.45594000000E+02  0.51100000000E-03 0.  1.
    9900012    2    1    2    0    0 -0.21738266400E+01 -0.25447944510E+01 -0.18424887267E+02  0.72461602273E+02  0.70000041657E+02 0.  0.
         12    1    1    2    0    0  0.21738266400E+01  0.25447944510E+01  0.18424887267E+02  0.18726397727E+02  0.00000000000E+00 0. -1.
         11    1    3    3    0    0  0.34740489948E+01  0.40157844338E+01  0.87329889687E+01  0.10220598692E+02  0.51100000000E-03 0.  1.
        -11    1    3    3    0    0 -0.30629068755E+02 -0.38515843388E+01 -0.15407751320E+02  0.34501787718E+02  0.51100000000E-03 0. -1.
        -12    1    3    3    0    0  0.24981193120E+02 -0.27089945460E+01 -0.11750124915E+02  0.27739215863E+02  0.00000000000E+00 0.  1.
</event>
<event>
 7    1  0.1333056E-013  0.7246156E+02  0.7816164E-02  0.1226708E+00
        -11   -1    0    0    0    0  0.00000000000E+00  0.00000000000E+00  0.45593999997E+02  0.45594000000E+02  0.51100000000E-03 0.  1.
         11   -1    0    0    0    0 -0.00000000000E+00 -0.00000000000E+00 -0.45593999997E+02  0.45594000000E+02  0.51100000000E-03 0. -1.
    9900012    2    1    2    0    0  0.47009654836E+01 -0.15786790326E+02  0.89083017659E+01  0.72461557048E+02  0.69999982744E+02 0.  0.
         12    1    1    2    0    0 -0.47009654836E+01  0.15786790326E+02 -0.89083017659E+01  0.18726442952E+02  0.00000000000E+00 0. -1.
         11    1    3    3    0    0  0.23598007908E+02 -0.18014715969E+01 -0.75511284960E+01  0.24842117844E+02  0.51100000000E-03 0. -1.
        -11    1    3    3    0    0 -0.91411112583E+01 -0.25663297475E+02  0.17479913011E+02  0.32368381354E+02  0.51100000000E-03 0.  1.
        -12    1    3    3    0    0 -0.97559311659E+01  0.11677978746E+02 -0.10204827494E+01  0.15251057850E+02  0.00000000000E+00 0.  1.
</event>
<event>
 7    1  0.2032244E-013  0.7246159E+02  0.7816164E-02  0.1226708E+00
        -11   -1    0    0    0    0  0.00000000000E+00  0.00000000000E+00  0.45593999997E+02  0.45594000000E+02  0.51100000000E-03 0. -1.
         11   -1    0    0    0    0 -0.00000000000E+00 -0.00000000000E+00 -0.45593999997E+02  0.45594000000E+02  0.51100000000E-03 0.  1.
    9900012    2    1    2    0    0  0.12998977902E+02  0.41781329224E+00 -0.13473328755E+02  0.72461585976E+02  0.70000020429E+02 0.  0.
         12    1    1    2    0    0 -0.12998977902E+02 -0.41781329224E+00  0.13473328755E+02  0.18726414024E+02  0.00000000000E+00 0. -1.
         11    1    3    3    0    0  0.92170003154E+01 -0.21182825889E+01  0.25449040133E+02  0.27149472553E+02  0.51100000000E-03 0. -1.
        -11    1    3    3    0    0  0.11843249391E+02  0.71638888159E+01 -0.24905142378E+02  0.28492981175E+02  0.51100000000E-03 0.  1.
         12    1    3    3    0    0 -0.80612718048E+01 -0.46277929348E+01 -0.14017226510E+02  0.16819132248E+02  0.00000000000E+00 0. -1.
</event>
<event>
 7    1  0.1333056E-013  0.7246159E+02  0.7816164E-02  0.1226708E+00
        -11   -1    0    0    0    0  0.00000000000E+00  0.00000000000E+00  0.45593999997E+02  0.45594000000E+02  0.51100000000E-03 0. -1.
         11   -1    0    0    0    0 -0.00000000000E+00 -0.00000000000E+00 -0.45593999997E+02  0.45594000000E+02  0.51100000000E-03 0.  1.
    9900012    2    1    2    0    0 -0.12515607913E+02 -0.10033781478E+02 -0.96623640843E+01  0.72461588388E+02  0.70000023570E+02 0.  0.
         12    1    1    2    0    0  0.12515607913E+02  0.10033781478E+02  0.96623640843E+01  0.18726411612E+02  0.00000000000E+00 0. -1.
         11    1    3    3    0    0  0.25354488295E+01  0.44478581097E+01  0.14605857940E+02  0.15477177680E+02  0.51100000000E-03 0. -1.
        -11    1    3    3    0    0 -0.18928442795E+02 -0.30049947563E+02 -0.16700270160E+02  0.39245182110E+02  0.51100000000E-03 0.  1.
         12    1    3    3    0    0  0.38773860532E+01  0.15568307975E+02 -0.75679518646E+01  0.17739228598E+02  0.00000000000E+00 0. -1.
</event>
<event>
 7    1  0.1333056E-013  0.7246159E+02  0.7816164E-02  0.1226708E+00
        -11   -1    0    0    0    0  0.00000000000E+00  0.00000000000E+00  0.45593999997E+02  0.45594000000E+02  0.51100000000E-03 0.  1.
         11   -1    0    0    0    0 -0.00000000000E+00 -0.00000000000E+00 -0.45593999997E+02  0.45594000000E+02  0.51100000000E-03 0. -1.
    9900012    2    1    2    0    0  0.16596591709E+02  0.49310533860E+01  0.71355605356E+01  0.72461591695E+02  0.70000027879E+02 0.  0.
         12    1    1    2    0    0 -0.16596591709E+02 -0.49310533860E+01 -0.71355605356E+01  0.18726408305E+02  0.00000000000E+00 0. -1.
         11    1    3    3    0    0  0.82347483170E+01 -0.46233834047E+01 -0.27064490087E+02  0.28664845681E+02  0.51100000000E-03 0. -1.
        -11    1    3    3    0    0  0.16813535312E+02  0.46660803519E+01  0.19706725932E+02  0.26321518246E+02  0.51100000000E-03 0.  1.
        -12    1    3    3    0    0 -0.84516919201E+01  0.48883564388E+01  0.14493324691E+02  0.17475227769E+02  0.00000000000E+00 0.  1.
</event>
<event>
 7    1  0.1333056E-013  0.7246148E+02  0.7816164E-02  0.1226708E+00
        -11   -1    0    0    0    0  0.00000000000E+00  0.00000000000E+00  0.45593999997E+02  0.45594000000E+02  0.51100000000E-03 0. -1.
         11   -1    0    0    0    0 -0.00000000000E+00 -0.00000000000E+00 -0.45593999997E+02  0.45594000000E+02  0.51100000000E-03 0.  1.
    9900012    2    1    2    0    0  0.33632625436E+01  0.17874634787E+02 -0.44573982743E+01  0.72461481287E+02  0.69999884052E+02 0.  0.
         12    1    1    2    0    0 -0.33632625436E+01 -0.17874634787E+02  0.44573982743E+01  0.18726518713E+02  0.00000000000E+00 0. -1.
         11    1    3    3    0    0 -0.17256629011E+02 -0.81608918934E+01  0.54867216492E+01  0.19861911188E+02  0.51100000000E-03 0. -1.
        -11    1    3    3    0    0  0.23609770083E+02  0.78668490627E+01 -0.19720325640E+02  0.31752162150E+02  0.51100000000E-03 0.  1.
        -12    1    3    3    0    0 -0.29898785290E+01  0.18168677618E+02  0.97762057168E+01  0.20847407950E+02  0.00000000000E+00 0.  1.
</event>
<event>
 7    1  0.1333056E-013  0.7246163E+02  0.7816164E-02  0.1226708E+00
        -11   -1    0    0    0    0  0.00000000000E+00  0.00000000000E+00  0.45593999997E+02  0.45594000000E+02  0.51100000000E-03 0. -1.
         11   -1    0    0    0    0 -0.00000000000E+00 -0.00000000000E+00 -0.45593999997E+02  0.45594000000E+02  0.51100000000E-03 0.  1.
    9900012    2    1    2    0    0  0.69659926521E+01 -0.81131429516E+01 -0.15372984536E+02  0.72461633675E+02  0.70000082566E+02 0.  0.
         12    1    1    2    0    0 -0.69659926521E+01  0.81131429516E+01  0.15372984536E+02  0.18726366325E+02  0.00000000000E+00 0. -1.
         11    1    3    3    0    0 -0.74756339232E+01  0.72882733995E+01 -0.37521499381E+01  0.11094262532E+02  0.51100000000E-03 0. -1.
        -11    1    3    3    0    0  0.26582889919E+02  0.77631294190E+01  0.78241189091E+01  0.28777300981E+02  0.51100000000E-03 0.  1.
        -12    1    3    3    0    0 -0.12141263343E+02 -0.23164545770E+02 -0.19444953507E+02  0.32590070162E+02  0.00000000000E+00 0.  1.
</event>
<event>
 7    1  0.1333056E-013  0.7246083E+02  0.7816164E-02  0.1226710E+00
        -11   -1    0    0    0    0  0.00000000000E+00  0.00000000000E+00  0.45593999997E+02  0.45594000000E+02  0.51100000000E-03 0. -1.
         11   -1    0    0    0    0 -0.00000000000E+00 -0.00000000000E+00 -0.45593999997E+02  0.45594000000E+02  0.51100000000E-03 0.  1.
    9900012    2    1    2    0    0 -0.13691977816E+02  0.54179709692E+01 -0.11570742669E+02  0.72460833854E+02  0.69999040644E+02 0.  0.
         12    1    1    2    0    0  0.13691977816E+02 -0.54179709692E+01  0.11570742669E+02  0.18727166146E+02  0.00000000000E+00 0. -1.
         11    1    3    3    0    0  0.47013658547E+00 -0.16082975488E+02  0.53679498998E+01  0.16961663107E+02  0.51100000000E-03 0. -1.
        -11    1    3    3    0    0 -0.17970012627E+01  0.34687255216E+02 -0.10106843418E+02  0.36174344114E+02  0.51100000000E-03 0.  1.
        -12    1    3    3    0    0 -0.12365113138E+02 -0.13186308758E+02 -0.68318491515E+01  0.19324826634E+02  0.00000000000E+00 0.  1.
</event>
<event>
 7    1  0.1333056E-013  0.7246160E+02  0.7816164E-02  0.1226708E+00
        -11   -1    0    0    0    0  0.00000000000E+00  0.00000000000E+00  0.45593999997E+02  0.45594000000E+02  0.51100000000E-03 0. -1.
         11   -1    0    0    0    0 -0.00000000000E+00 -0.00000000000E+00 -0.45593999997E+02  0.45594000000E+02  0.51100000000E-03 0.  1.
    9900012    2    1    2    0    0  0.16702133318E+02 -0.81595660839E+01 -0.22668123141E+01  0.72461595804E+02  0.70000033231E+02 0.  0.
         12    1    1    2    0    0 -0.16702133318E+02  0.81595660839E+01  0.22668123141E+01  0.18726404196E+02  0.00000000000E+00 0. -1.
         11    1    3    3    0    0  0.25662274507E+02 -0.13880186062E+02  0.24029114457E+02  0.37796960723E+02  0.51100000000E-03 0. -1.
        -11    1    3    3    0    0 -0.86253199116E+00 -0.72471065119E+01 -0.85574644885E+01  0.11246986839E+02  0.51100000000E-03 0.  1.
         12    1    3    3    0    0 -0.80976091987E+01  0.12967726490E+02 -0.17738462283E+02  0.23417648242E+02  0.00000000000E+00 0. -1.
</event>
<event>
 7    1  0.1333056E-013  0.7246168E+02  0.7816164E-02  0.1226708E+00
        -11   -1    0    0    0    0  0.00000000000E+00  0.00000000000E+00  0.45593999997E+02  0.45594000000E+02  0.51100000000E-03 0.  1.
         11   -1    0    0    0    0 -0.00000000000E+00 -0.00000000000E+00 -0.45593999997E+02  0.45594000000E+02  0.51100000000E-03 0. -1.
    9900012    2    1    2    0    0  0.38405220081E+01  0.18190281187E+02  0.22447919683E+01  0.72461680822E+02  0.70000143983E+02 0.  0.
         12    1    1    2    0    0 -0.38405220081E+01 -0.18190281187E+02 -0.22447919683E+01  0.18726319178E+02  0.00000000000E+00 0. -1.
         11    1    3    3    0    0 -0.23395501614E+02  0.67291475340E+01  0.19754274651E+01  0.24424029894E+02  0.51100000000E-03 0. -1.
        -11    1    3    3    0    0  0.21083831062E+02  0.12269550727E+02 -0.16969602835E+02  0.29715942320E+02  0.51100000000E-03 0.  1.
        -12    1    3    3    0    0  0.61521925604E+01 -0.80841707397E+00  0.17238967338E+02  0.18321708609E+02  0.00000000000E+00 0.  1.
</event>
<event>
 7    1  0.1333056E-013  0.7246154E+02  0.7816164E-02  0.1226708E+00
        -11   -1    0    0    0    0  0.00000000000E+00  0.00000000000E+00  0.45593999997E+02  0.45594000000E+02  0.51100000000E-03 0.  1.
         11   -1    0    0    0    0 -0.00000000000E+00 -0.00000000000E+00 -0.45593999997E+02  0.45594000000E+02  0.51100000000E-03 0. -1.
    9900012    2    1    2    0    0  0.14266236586E+01  0.41417996430E+01  0.18206879292E+02  0.72461542436E+02  0.69999963709E+02 0.  0.
         12    1    1    2    0    0 -0.14266236586E+01 -0.41417996430E+01 -0.18206879292E+02  0.18726457564E+02  0.00000000000E+00 0. -1.
         11    1    3    3    0    0 -0.15383529440E+02 -0.12234612961E+02  0.28647177161E+01  0.19863165412E+02  0.51100000000E-03 0. -1.
        -11    1    3    3    0    0  0.64225807447E+00  0.28976052782E+02  0.13633680667E+02  0.32029695269E+02  0.51100000000E-03 0.  1.
         12    1    3    3    0    0  0.16167895024E+02 -0.12599640178E+02  0.17084809093E+01  0.20568681755E+02  0.00000000000E+00 0. -1.
</event>
<event>
 7    1  0.1333056E-013  0.7246158E+02  0.7816164E-02  0.1226708E+00
        -11   -1    0    0    0    0  0.00000000000E+00  0.00000000000E+00  0.45593999997E+02  0.45594000000E+02  0.51100000000E-03 0.  1.
         11   -1    0    0    0    0 -0.00000000000E+00 -0.00000000000E+00 -0.45593999997E+02  0.45594000000E+02  0.51100000000E-03 0. -1.
    9900012    2    1    2    0    0  0.92344000083E+01  0.97471978093E+01  0.13053613635E+02  0.72461579157E+02  0.70000011546E+02 0.  0.
         12    1    1    2    0    0 -0.92344000083E+01 -0.97471978093E+01 -0.13053613635E+02  0.18726420843E+02  0.00000000000E+00 0. -1.
         11    1    3    3    0    0 -0.17916364071E+02 -0.24144066793E+01 -0.99538398345E+01  0.20637451123E+02  0.51100000000E-03 0. -1.
        -11    1    3    3    0    0  0.14487181316E+02 -0.18622957269E+00  0.29594126077E+02  0.32950347532E+02  0.51100000000E-03 0.  1.
         12    1    3    3    0    0  0.12663582763E+02  0.12347834061E+02 -0.65866726080E+01  0.18873780502E+02  0.00000000000E+00 0. -1.
</event>
<event>
 7    1  0.1333056E-013  0.7246161E+02  0.7816164E-02  0.1226708E+00
        -11   -1    0    0    0    0  0.00000000000E+00  0.00000000000E+00  0.45593999997E+02  0.45594000000E+02  0.51100000000E-03 0.  1.
         11   -1    0    0    0    0 -0.00000000000E+00 -0.00000000000E+00 -0.45593999997E+02  0.45594000000E+02  0.51100000000E-03 0. -1.
    9900012    2    1    2    0    0  0.92852716427E+01 -0.84196043593E+01  0.13913008774E+02  0.72461606322E+02  0.70000046932E+02 0.  0.
         12    1    1    2    0    0 -0.92852716427E+01  0.84196043593E+01 -0.13913008774E+02  0.18726393678E+02  0.00000000000E+00 0. -1.
         11    1    3    3    0    0  0.15720266154E+02  0.63923110025E+01  0.29127166322E+02  0.33710239188E+02  0.51100000000E-03 0.  1.
        -11    1    3    3    0    0  0.95672326555E+00 -0.18637817547E+02 -0.21390224744E+02  0.28387061792E+02  0.51100000000E-03 0. -1.
        -12    1    3    3    0    0 -0.73917177765E+01  0.38259021852E+01  0.61760671962E+01  0.10364305342E+02  0.00000000000E+00 0.  1.
</event>
<event>
 7    1  0.1333056E-013  0.7246171E+02  0.7816164E-02  0.1226708E+00
        -11   -1    0    0    0    0  0.00000000000E+00  0.00000000000E+00  0.45593999997E+02  0.45594000000E+02  0.51100000000E-03 0. -1.
         11   -1    0    0    0    0 -0.00000000000E+00 -0.00000000000E+00 -0.45593999997E+02  0.45594000000E+02  0.51100000000E-03 0.  1.
    9900012    2    1    2    0    0 -0.16515361493E+02 -0.77107593048E+01 -0.42966394828E+01  0.72461706049E+02  0.70000176845E+02 0.  0.
         12    1    1    2    0    0  0.16515361493E+02  0.77107593048E+01  0.42966394828E+01  0.18726293951E+02  0.00000000000E+00 0. -1.
         11    1    3    3    0    0 -0.23673477907E+02  0.83155103217E+01 -0.11710047196E+02  0.27689465031E+02  0.51100000000E-03 0.  1.
        -11    1    3    3    0    0  0.20824535225E+02  0.26527701195E+01  0.29113976945E+01  0.21193741846E+02  0.51100000000E-03 0. -1.
         12    1    3    3    0    0 -0.13666418811E+02 -0.18679039746E+02  0.45020100185E+01  0.23578499171E+02  0.00000000000E+00 0. -1.
</event>
<event>
 7    1  0.1333056E-013  0.7246158E+02  0.7816164E-02  0.1226708E+00
        -11   -1    0    0    0    0  0.00000000000E+00  0.00000000000E+00  0.45593999997E+02  0.45594000000E+02  0.51100000000E-03 0. -1.
         11   -1    0    0    0    0 -0.00000000000E+00 -0.00000000000E+00 -0.45593999997E+02  0.45594000000E+02  0.51100000000E-03 0.  1.
    9900012    2    1    2    0    0  0.26491692760E+01 -0.26492180598E+01 -0.18347816488E+02  0.72461579518E+02  0.70000012016E+02 0.  0.
         12    1    1    2    0    0 -0.26491692760E+01  0.26492180598E+01  0.18347816488E+02  0.18726420482E+02  0.00000000000E+00 0. -1.
         11    1    3    3    0    0 -0.12394387119E+02  0.61655196669E+01  0.14134957453E+01  0.13915187217E+02  0.51100000000E-03 0. -1.
        -11    1    3    3    0    0  0.30364343295E+02 -0.19732489678E+02 -0.11454264124E+02  0.37981109245E+02  0.51100000000E-03 0.  1.
        -12    1    3    3    0    0 -0.15320786900E+02  0.10917751951E+02 -0.83070481090E+01  0.20565283056E+02  0.00000000000E+00 0.  1.
</event>
<event>
 7    1  0.1333056E-013  0.7246159E+02  0.7816164E-02  0.1226708E+00
        -11   -1    0    0    0    0  0.00000000000E+00  0.00000000000E+00  0.45593999997E+02  0.45594000000E+02  0.51100000000E-03 0.  1.
         11   -1    0    0    0    0 -0.00000000000E+00 -0.00000000000E+00 -0.45593999997E+02  0.45594000000E+02  0.51100000000E-03 0. -1.
    9900012    2    1    2    0    0  0.14948792935E+02  0.11272671230E+02  0.37294923449E+00  0.72461585020E+02  0.70000019183E+02 0.  0.
         12    1    1    2    0    0 -0.14948792935E+02 -0.11272671230E+02 -0.37294923449E+00  0.18726414980E+02  0.00000000000E+00 0. -1.
         11    1    3    3    0    0 -0.72988010903E+01  0.68650967527E+01 -0.24057837500E+01  0.10304845777E+02  0.51100000000E-03 0. -1.
        -11    1    3    3    0    0  0.40096138807E+02  0.34548498039E+01 -0.83494510868E+01  0.41101699090E+02  0.51100000000E-03 0.  1.
        -12    1    3    3    0    0 -0.17848544781E+02  0.95272467331E+00  0.11128184071E+02  0.21055040153E+02  0.00000000000E+00 0.  1.
</event>
<event>
 7    1  0.1333056E-013  0.7246153E+02  0.7816164E-02  0.1226708E+00
        -11   -1    0    0    0    0  0.00000000000E+00  0.00000000000E+00  0.45593999997E+02  0.45594000000E+02  0.51100000000E-03 0.  1.
         11   -1    0    0    0    0 -0.00000000000E+00 -0.00000000000E+00 -0.45593999997E+02  0.45594000000E+02  0.51100000000E-03 0. -1.
    9900012    2    1    2    0    0 -0.17533575911E+02 -0.31620640600E+01  0.57667657024E+01  0.72461534236E+02  0.69999953027E+02 0.  0.
         12    1    1    2    0    0  0.17533575911E+02  0.31620640600E+01 -0.57667657024E+01  0.18726465764E+02  0.00000000000E+00 0. -1.
         11    1    3    3    0    0 -0.71703337203E+01  0.47891495094E+01 -0.94810532459E+01  0.12815615849E+02  0.51100000000E-03 0. -1.
        -11    1    3    3    0    0 -0.27361657610E+02 -0.13724234131E+02  0.24722204774E+02  0.39347202172E+02  0.51100000000E-03 0.  1.
        -12    1    3    3    0    0  0.16998415420E+02  0.57730205617E+01 -0.94743858253E+01  0.20298716214E+02  0.00000000000E+00 0.  1.
</event>
<event>
 7    1  0.1333056E-013  0.7246154E+02  0.7816164E-02  0.1226708E+00
        -11   -1    0    0    0    0  0.00000000000E+00  0.00000000000E+00  0.45593999997E+02  0.45594000000E+02  0.51100000000E-03 0. -1.
         11   -1    0    0    0    0 -0.00000000000E+00 -0.00000000000E+00 -0.45593999997E+02  0.45594000000E+02  0.51100000000E-03 0.  1.
    9900012    2    1    2    0    0  0.97696851314E+01 -0.10627047034E+02 -0.11928938350E+02  0.72461536202E+02  0.69999955589E+02 0.  0.
         12    1    1    2    0    0 -0.97696851314E+01  0.10627047034E+02  0.11928938350E+02  0.18726463798E+02  0.00000000000E+00 0. -1.
         11    1    3    3    0    0  0.10171443697E+02 -0.18830165264E+02  0.12263452252E+02  0.24666285739E+02  0.51100000000E-03 0. -1.
        -11    1    3    3    0    0  0.94468286098E+01  0.26192526752E+00 -0.31703588353E+02  0.33082150631E+02  0.51100000000E-03 0.  1.
         12    1    3    3    0    0 -0.98485871755E+01  0.79411929627E+01  0.75111977513E+01  0.14713099833E+02  0.00000000000E+00 0. -1.
</event>
<event>
 7    1  0.1333056E-013  0.7246156E+02  0.7816164E-02  0.1226708E+00
        -11   -1    0    0    0    0  0.00000000000E+00  0.00000000000E+00  0.45593999997E+02  0.45594000000E+02  0.51100000000E-03 0.  1.
         11   -1    0    0    0    0 -0.00000000000E+00 -0.00000000000E+00 -0.45593999997E+02  0.45594000000E+02  0.51100000000E-03 0. -1.
    9900012    2    1    2    0    0  0.97352645637E+00  0.15643810149E+02  0.10247096748E+02  0.72461560363E+02  0.69999987062E+02 0.  0.
         12    1    1    2    0    0 -0.97352645637E+00 -0.15643810149E+02 -0.10247096748E+02  0.18726439637E+02  0.00000000000E+00 0. -1.
         11    1    3    3    0    0  0.37676172854E+01  0.29712602052E+02 -0.21590124382E+02  0.36921093318E+02  0.51100000000E-03 0. -1.
        -11    1    3    3    0    0 -0.40345508288E+01 -0.10702689000E+02  0.18685775525E+02  0.21908522530E+02  0.51100000000E-03 0.  1.
         12    1    3    3    0    0  0.12404599997E+01 -0.33661029026E+01  0.13151445605E+02  0.13631944515E+02  0.00000000000E+00 0. -1.
</event>
<event>
 7    1  0.1333056E-013  0.7246148E+02  0.7816164E-02  0.1226708E+00
        -11   -1    0    0    0    0  0.00000000000E+00  0.00000000000E+00  0.45593999997E+02  0.45594000000E+02  0.51100000000E-03 0. -1.
         11   -1    0    0    0    0 -0.00000000000E+00 -0.00000000000E+00 -0.45593999997E+02  0.45594000000E+02  0.51100000000E-03 0.  1.
    9900012    2    1    2    0    0  0.76646691944E+01 -0.30157094986E-01 -0.17086088627E+02  0.72461481693E+02  0.69999884581E+02 0.  0.
         12    1    1    2    0    0 -0.76646691944E+01  0.30157094986E-01  0.17086088627E+02  0.18726518307E+02  0.00000000000E+00 0. -1.
         11    1    3    3    0    0  0.17031422036E+02  0.18749429454E+02  0.97242979568E+01  0.27132497350E+02  0.51100000000E-03 0.  1.
        -11    1    3    3    0    0 -0.15021244050E+02 -0.21743709901E+02 -0.11654782429E+02  0.28883570534E+02  0.51100000000E-03 0. -1.
         12    1    3    3    0    0  0.56544912084E+01  0.29641233522E+01 -0.15155604155E+02  0.16445413810E+02  0.00000000000E+00 0. -1.
</event>
<event>
 7    1  0.1333056E-013  0.7246155E+02  0.7816164E-02  0.1226708E+00
        -11   -1    0    0    0    0  0.00000000000E+00  0.00000000000E+00  0.45593999997E+02  0.45594000000E+02  0.51100000000E-03 0.  1.
         11   -1    0    0    0    0 -0.00000000000E+00 -0.00000000000E+00 -0.45593999997E+02  0.45594000000E+02  0.51100000000E-03 0. -1.
    9900012    2    1    2    0    0 -0.17346150557E+02  0.69111613562E+01 -0.14237349795E+01  0.72461545137E+02  0.69999967228E+02 0.  0.
         12    1    1    2    0    0  0.17346150557E+02 -0.69111613562E+01  0.14237349795E+01  0.18726454863E+02  0.00000000000E+00 0. -1.
         11    1    3    3    0    0 -0.30973078787E+01  0.35790923269E+01 -0.20072351370E+02  0.20622863714E+02  0.51100000000E-03 0. -1.
        -11    1    3    3    0    0 -0.29153004341E+02  0.70403524510E+00  0.18381352355E+01  0.29219378315E+02  0.51100000000E-03 0.  1.
         12    1    3    3    0    0  0.14904161662E+02  0.26280337841E+01  0.16810481155E+02  0.22619303108E+02  0.00000000000E+00 0. -1.
</event>
<event>
 7    1  0.1333056E-013  0.7246162E+02  0.7816164E-02  0.1226708E+00
        -11   -1    0    0    0    0  0.00000000000E+00  0.00000000000E+00  0.45593999997E+02  0.45594000000E+02  0.51100000000E-03 0.  1.
         11   -1    0    0    0    0 -0.00000000000E+00 -0.00000000000E+00 -0.45593999997E+02  0.45594000000E+02  0.51100000000E-03 0. -1.
    9900012    2    1    2    0    0  0.34952597482E+01 -0.15686394909E+02  0.96123560551E+01  0.72461622483E+02  0.70000067986E+02 0.  0.
         12    1    1    2    0    0 -0.34952597482E+01  0.15686394909E+02 -0.96123560551E+01  0.18726377517E+02  0.00000000000E+00 0. -1.
         11    1    3    3    0    0  0.21680849333E+02 -0.94144023376E+01  0.29046813026E+01  0.23814436229E+02  0.51100000000E-03 0.  1.
        -11    1    3    3    0    0 -0.17949899746E+02  0.11937068040E+02  0.17246636258E+02  0.27606864306E+02  0.51100000000E-03 0. -1.
         12    1    3    3    0    0 -0.23568983903E+00 -0.18209060612E+02 -0.10538961506E+02  0.21040321949E+02  0.00000000000E+00 0. -1.
</event>
<event>
 7    1  0.1333056E-013  0.7246164E+02  0.7816164E-02  0.1226708E+00
        -11   -1    0    0    0    0  0.00000000000E+00  0.00000000000E+00  0.45593999997E+02  0.45594000000E+02  0.51100000000E-03 0. -1.
         11   -1    0    0    0    0 -0.00000000000E+00 -0.00000000000E+00 -0.45593999997E+02  0.45594000000E+02  0.51100000000E-03 0.  1.
    9900012    2    1    2    0    0  0.22641847426E+01  0.16660865613E+02 -0.82441278801E+01  0.72461638366E+02  0.70000088676E+02 0.  0.
         12    1    1    2    0    0 -0.22641847426E+01 -0.16660865613E+02  0.82441278801E+01  0.18726361634E+02  0.00000000000E+00 0. -1.
         11    1    3    3    0    0  0.30434729066E+02  0.61802851205E+01 -0.28116818754E+01  0.31182915398E+02  0.51100000000E-03 0.  1.
        -11    1    3    3    0    0 -0.16203502061E+02  0.69751106262E+01  0.10894887274E+02  0.20734131674E+02  0.51100000000E-03 0. -1.
         12    1    3    3    0    0 -0.11967042262E+02  0.35054698666E+01 -0.16327333279E+02  0.20544591295E+02  0.00000000000E+00 0. -1.
</event>
<event>
 7    1  0.1333056E-013  0.7246190E+02  0.7816164E-02  0.1226707E+00
        -11   -1    0    0    0    0  0.00000000000E+00  0.00000000000E+00  0.45593999997E+02  0.45594000000E+02  0.51100000000E-03 0. -1.
         11   -1    0    0    0    0 -0.00000000000E+00 -0.00000000000E+00 -0.45593999997E+02  0.45594000000E+02  0.51100000000E-03 0.  1.
    9900012    2    1    2    0    0 -0.15128533704E+02 -0.10210329697E+02 -0.41884995907E+01  0.72461898073E+02  0.70000426991E+02 0.  0.
         12    1    1    2    0    0  0.15128533704E+02  0.10210329697E+02  0.41884995907E+01  0.18726101927E+02  0.00000000000E+00 0. -1.
         11    1    3    3    0    0  0.61427787854E+01  0.14830318855E+02 -0.21601838238E+02  0.26913035950E+02  0.51100000000E-03 0. -1.
        -11    1    3    3    0    0 -0.24588015229E+02 -0.19067943835E+02  0.51889041429E+01  0.31544915620E+02  0.51100000000E-03 0.  1.
         12    1    3    3    0    0  0.33167027394E+01 -0.59727047166E+01  0.12224434505E+02  0.14003946503E+02  0.00000000000E+00 0. -1.
</event>
<event>
 7    1  0.1333056E-013  0.7246157E+02  0.7816164E-02  0.1226708E+00
        -11   -1    0    0    0    0  0.00000000000E+00  0.00000000000E+00  0.45593999997E+02  0.45594000000E+02  0.51100000000E-03 0.  1.
         11   -1    0    0    0    0 -0.00000000000E+00 -0.00000000000E+00 -0.45593999997E+02  0.45594000000E+02  0.51100000000E-03 0. -1.
    9900012    2    1    2    0    0 -0.11634797257E+02  0.13005507560E+02  0.67946529125E+01  0.72461573691E+02  0.70000004425E+02 0.  0.
         12    1    1    2    0    0  0.11634797257E+02 -0.13005507560E+02 -0.67946529125E+01  0.18726426309E+02  0.00000000000E+00 0. -1.
         11    1    3    3    0    0 -0.74789466801E+01 -0.19175302722E+02  0.21403238658E+02  0.29693863057E+02  0.51100000000E-03 0.  1.
        -11    1    3    3    0    0 -0.10725453514E+01  0.33435409391E+02 -0.18023344424E+02  0.37998919710E+02  0.51100000000E-03 0. -1.
         12    1    3    3    0    0 -0.30833052260E+01 -0.12545991085E+01  0.34147586786E+01  0.47687909236E+01  0.00000000000E+00 0. -1.
</event>
<event>
 7    1  0.1333056E-013  0.7246161E+02  0.7816164E-02  0.1226708E+00
        -11   -1    0    0    0    0  0.00000000000E+00  0.00000000000E+00  0.45593999997E+02  0.45594000000E+02  0.51100000000E-03 0.  1.
         11   -1    0    0    0    0 -0.00000000000E+00 -0.00000000000E+00 -0.45593999997E+02  0.45594000000E+02  0.51100000000E-03 0. -1.
    9900012    2    1    2    0    0 -0.23750921098E+01  0.95213878198E+01  0.15949292350E+02  0.72461606460E+02  0.70000047112E+02 0.  0.
         12    1    1    2    0    0  0.23750921098E+01 -0.95213878198E+01 -0.15949292350E+02  0.18726393540E+02  0.00000000000E+00 0. -1.
         11    1    3    3    0    0 -0.79504732223E+01 -0.21787667462E+01 -0.24656332998E+02  0.25997919266E+02  0.51100000000E-03 0. -1.
        -11    1    3    3    0    0 -0.65250187896E+01  0.13637886324E+01  0.12403383329E+02  0.14081182760E+02  0.51100000000E-03 0.  1.
         12    1    3    3    0    0  0.12100399902E+02  0.10336365934E+02  0.28202242019E+02  0.32382504434E+02  0.00000000000E+00 0. -1.
</event>
<event>
 7    1  0.1333056E-013  0.7246156E+02  0.7816164E-02  0.1226708E+00
        -11   -1    0    0    0    0  0.00000000000E+00  0.00000000000E+00  0.45593999997E+02  0.45594000000E+02  0.51100000000E-03 0.  1.
         11   -1    0    0    0    0 -0.00000000000E+00 -0.00000000000E+00 -0.45593999997E+02  0.45594000000E+02  0.51100000000E-03 0. -1.
    9900012    2    1    2    0    0  0.16604468010E+02 -0.53116794705E+01  0.68379221049E+01  0.72461562127E+02  0.69999989360E+02 0.  0.
         12    1    1    2    0    0 -0.16604468010E+02  0.53116794705E+01 -0.68379221049E+01  0.18726437873E+02  0.00000000000E+00 0. -1.
         11    1    3    3    0    0  0.31041814010E+02 -0.27629016167E+02  0.61718453154E+00  0.41561252007E+02  0.51100000000E-03 0. -1.
        -11    1    3    3    0    0  0.50605703950E+00  0.47600154588E+01  0.62148385284E+01  0.78446197544E+01  0.51100000000E-03 0.  1.
         12    1    3    3    0    0 -0.14943403039E+02  0.17557321238E+02  0.58990449752E-02  0.23055690365E+02  0.00000000000E+00 0. -1.
</event>
<event>
 7    1  0.1333056E-013  0.7246155E+02  0.7816164E-02  0.1226708E+00
        -11   -1    0    0    0    0  0.00000000000E+00  0.00000000000E+00  0.45593999997E+02  0.45594000000E+02  0.51100000000E-03 0.  1.
         11   -1    0    0    0    0 -0.00000000000E+00 -0.00000000000E+00 -0.45593999997E+02  0.45594000000E+02  0.51100000000E-03 0. -1.
    9900012    2    1    2    0    0  0.12568827355E+02 -0.48314679931E+01 -0.13013890426E+02  0.72461552177E+02  0.69999976399E+02 0.  0.
         12    1    1    2    0    0 -0.12568827355E+02  0.48314679931E+01  0.13013890426E+02  0.18726447823E+02  0.00000000000E+00 0. -1.
         11    1    3    3    0    0 -0.11366856732E+02 -0.12930869817E+02  0.13164185310E+01  0.17266898511E+02  0.51100000000E-03 0. -1.
        -11    1    3    3    0    0  0.29460160931E+02  0.22660475072E+00  0.82979124333E+01  0.30607315838E+02  0.51100000000E-03 0.  1.
         12    1    3    3    0    0 -0.55244768438E+01  0.78727970727E+01 -0.22628221390E+02  0.24587337827E+02  0.00000000000E+00 0. -1.
</event>
<event>
 7    1  0.1333056E-013  0.7246156E+02  0.7816164E-02  0.1226708E+00
        -11   -1    0    0    0    0  0.00000000000E+00  0.00000000000E+00  0.45593999997E+02  0.45594000000E+02  0.51100000000E-03 0.  1.
         11   -1    0    0    0    0 -0.00000000000E+00 -0.00000000000E+00 -0.45593999997E+02  0.45594000000E+02  0.51100000000E-03 0. -1.
    9900012    2    1    2    0    0  0.90357409017E+01 -0.98368595800E+01  0.13125211212E+02  0.72461559083E+02  0.69999985396E+02 0.  0.
         12    1    1    2    0    0 -0.90357409017E+01  0.98368595800E+01 -0.13125211212E+02  0.18726440917E+02  0.00000000000E+00 0. -1.
         11    1    3    3    0    0 -0.11201828954E+02  0.20953034905E+02 -0.76633332200E+00  0.23771788126E+02  0.51100000000E-03 0. -1.
        -11    1    3    3    0    0  0.11994991759E+02  0.20465157603E+01  0.19740827856E+00  0.12169922939E+02  0.51100000000E-03 0.  1.
         12    1    3    3    0    0  0.82425780967E+01 -0.32836410246E+02  0.13694136256E+02  0.36519848019E+02  0.00000000000E+00 0. -1.
</event>
<event>
 7    1  0.1333056E-013  0.7246185E+02  0.7816164E-02  0.1226707E+00
        -11   -1    0    0    0    0  0.00000000000E+00  0.00000000000E+00  0.45593999997E+02  0.45594000000E+02  0.51100000000E-03 0.  1.
         11   -1    0    0    0    0 -0.00000000000E+00 -0.00000000000E+00 -0.45593999997E+02  0.45594000000E+02  0.51100000000E-03 0. -1.
    9900012    2    1    2    0    0 -0.60375749509E+00 -0.18692299574E+02  0.94987449545E+00  0.72461845883E+02  0.70000359004E+02 0.  0.
         12    1    1    2    0    0  0.60375749509E+00  0.18692299574E+02 -0.94987449545E+00  0.18726154117E+02  0.00000000000E+00 0. -1.
         11    1    3    3    0    0 -0.16242764961E+02  0.21946380337E+02  0.67194873136E+01  0.28118010838E+02  0.51100000000E-03 0.  1.
        -11    1    3    3    0    0  0.99696645385E+01 -0.28549547904E+02 -0.13183150811E+01  0.30268942027E+02  0.51100000000E-03 0. -1.
        -12    1    3    3    0    0  0.56693429278E+01 -0.12089132007E+02 -0.44512977370E+01  0.14074893017E+02  0.00000000000E+00 0.  1.
</event>
<event>
 7    1  0.1333056E-013  0.7246142E+02  0.7816164E-02  0.1226708E+00
        -11   -1    0    0    0    0  0.00000000000E+00  0.00000000000E+00  0.45593999997E+02  0.45594000000E+02  0.51100000000E-03 0.  1.
         11   -1    0    0    0    0 -0.00000000000E+00 -0.00000000000E+00 -0.45593999997E+02  0.45594000000E+02  0.51100000000E-03 0. -1.
    9900012    2    1    2    0    0 -0.14849828786E+02  0.44118915218E+01  0.10521522628E+02  0.72461424226E+02  0.69999809719E+02 0.  0.
         12    1    1    2    0    0  0.14849828786E+02 -0.44118915218E+01 -0.10521522628E+02  0.18726575774E+02  0.00000000000E+00 0. -1.
         11    1    3    3    0    0  0.13326707212E+02 -0.78149436208E+01 -0.11682854056E+01  0.15493203670E+02  0.51100000000E-03 0. -1.
        -11    1    3    3    0    0 -0.38433530878E+02  0.12368459632E+02  0.18749372280E+02  0.44515773054E+02  0.51100000000E-03 0.  1.
        -12    1    3    3    0    0  0.10256994880E+02 -0.14162448938E+00 -0.70595642456E+01  0.12452447502E+02  0.00000000000E+00 0.  1.
</event>
<event>
 7    1  0.1333056E-013  0.7246160E+02  0.7816164E-02  0.1226708E+00
        -11   -1    0    0    0    0  0.00000000000E+00  0.00000000000E+00  0.45593999997E+02  0.45594000000E+02  0.51100000000E-03 0. -1.
         11   -1    0    0    0    0 -0.00000000000E+00 -0.00000000000E+00 -0.45593999997E+02  0.45594000000E+02  0.51100000000E-03 0.  1.
    9900012    2    1    2    0    0 -0.14740778258E+02  0.65865260953E+00 -0.11530558444E+02  0.72461597650E+02  0.70000035636E+02 0.  0.
         12    1    1    2    0    0  0.14740778258E+02 -0.65865260953E+00  0.11530558444E+02  0.18726402350E+02  0.00000000000E+00 0. -1.
         11    1    3    3    0    0 -0.13062184029E+02 -0.22813195522E+02  0.10059717007E+02  0.28147121488E+02  0.51100000000E-03 0. -1.
        -11    1    3    3    0    0 -0.14777407870E+02  0.41470926937E+01 -0.89196995513E+01  0.17751935148E+02  0.51100000000E-03 0.  1.
         12    1    3    3    0    0  0.13098813640E+02  0.19324755438E+02 -0.12670575900E+02  0.26562541015E+02  0.00000000000E+00 0. -1.
</event>
<event>
 7    1  0.1333056E-013  0.7246169E+02  0.7816164E-02  0.1226708E+00
        -11   -1    0    0    0    0  0.00000000000E+00  0.00000000000E+00  0.45593999997E+02  0.45594000000E+02  0.51100000000E-03 0.  1.
         11   -1    0    0    0    0 -0.00000000000E+00 -0.00000000000E+00 -0.45593999997E+02  0.45594000000E+02  0.51100000000E-03 0. -1.
    9900012    2    1    2    0    0 -0.80498603285E+01  0.37442604786E+01  0.16488024196E+02  0.72461690173E+02  0.70000156164E+02 0.  0.
         12    1    1    2    0    0  0.80498603285E+01 -0.37442604786E+01 -0.16488024196E+02  0.18726309827E+02  0.00000000000E+00 0. -1.
         11    1    3    3    0    0  0.16655803327E+02  0.20465908041E+02  0.11878303541E+00  0.26387180336E+02  0.51100000000E-03 0. -1.
        -11    1    3    3    0    0 -0.15898134495E+02  0.26331665100E+01  0.18696644114E+02  0.24682964726E+02  0.51100000000E-03 0.  1.
         12    1    3    3    0    0 -0.88075291604E+01 -0.19354814073E+02 -0.23274029527E+01  0.21391545110E+02  0.00000000000E+00 0. -1.
</event>
<event>
 7    1  0.1333056E-013  0.7246161E+02  0.7816164E-02  0.1226708E+00
        -11   -1    0    0    0    0  0.00000000000E+00  0.00000000000E+00  0.45593999997E+02  0.45594000000E+02  0.51100000000E-03 0.  1.
         11   -1    0    0    0    0 -0.00000000000E+00 -0.00000000000E+00 -0.45593999997E+02  0.45594000000E+02  0.51100000000E-03 0. -1.
    9900012    2    1    2    0    0 -0.71857752882E+01 -0.15226058361E+02 -0.81981307397E+01  0.72461613073E+02  0.70000055727E+02 0.  0.
         12    1    1    2    0    0  0.71857752882E+01  0.15226058361E+02  0.81981307397E+01  0.18726386927E+02  0.00000000000E+00 0. -1.
         11    1    3    3    0    0  0.13269308256E+02  0.48562290507E+01 -0.10195073785E+02  0.17424036040E+02  0.51100000000E-03 0. -1.
        -11    1    3    3    0    0 -0.21807705403E+02 -0.17162723152E+02  0.21603449183E+02  0.35168794375E+02  0.51100000000E-03 0.  1.
        -12    1    3    3    0    0  0.13526218594E+01 -0.29195642602E+01 -0.19606506138E+02  0.19868782658E+02  0.00000000000E+00 0.  1.
</event>
<event>
 7    1  0.1333056E-013  0.7246161E+02  0.7816164E-02  0.1226708E+00
        -11   -1    0    0    0    0  0.00000000000E+00  0.00000000000E+00  0.45593999997E+02  0.45594000000E+02  0.51100000000E-03 0.  1.
         11   -1    0    0    0    0 -0.00000000000E+00 -0.00000000000E+00 -0.45593999997E+02  0.45594000000E+02  0.51100000000E-03 0. -1.
    9900012    2    1    2    0    0  0.70094520888E+01  0.13296216647E+02 -0.11169424167E+02  0.72461606008E+02  0.70000046524E+02 0.  0.
         12    1    1    2    0    0 -0.70094520888E+01 -0.13296216647E+02  0.11169424167E+02  0.18726393992E+02  0.00000000000E+00 0. -1.
         11    1    3    3    0    0  0.14730896671E+02  0.12951215872E+02 -0.38196499093E+02  0.42938396017E+02  0.51100000000E-03 0. -1.
        -11    1    3    3    0    0  0.97485331326E+00  0.15155299882E+01  0.11897732112E+02  0.12033420120E+02  0.51100000000E-03 0.  1.
         12    1    3    3    0    0 -0.86962978955E+01 -0.11705292132E+01  0.15129342814E+02  0.17489789871E+02  0.00000000000E+00 0. -1.
</event>
<event>
 7    1  0.1333056E-013  0.7246160E+02  0.7816164E-02  0.1226708E+00
        -11   -1    0    0    0    0  0.00000000000E+00  0.00000000000E+00  0.45593999997E+02  0.45594000000E+02  0.51100000000E-03 0. -1.
         11   -1    0    0    0    0 -0.00000000000E+00 -0.00000000000E+00 -0.45593999997E+02  0.45594000000E+02  0.51100000000E-03 0.  1.
    9900012    2    1    2    0    0  0.42430429377E+01  0.75390881038E+01 -0.16608338702E+02  0.72461596788E+02  0.70000034513E+02 0.  0.
         12    1    1    2    0    0 -0.42430429377E+01 -0.75390881038E+01  0.16608338702E+02  0.18726403212E+02  0.00000000000E+00 0. -1.
         11    1    3    3    0    0 -0.21797817125E+02 -0.15115175760E+00  0.16001767232E+02  0.27041158131E+02  0.51100000000E-03 0. -1.
        -11    1    3    3    0    0  0.63976149609E+01 -0.91624673055E+00 -0.87568272157E-01  0.64634861896E+01  0.51100000000E-03 0.  1.
         12    1    3    3    0    0  0.19643245102E+02  0.86064865919E+01 -0.32522537662E+02  0.38956952467E+02  0.00000000000E+00 0. -1.
</event>
<event>
 7    1  0.1333056E-013  0.7246170E+02  0.7816164E-02  0.1226708E+00
        -11   -1    0    0    0    0  0.00000000000E+00  0.00000000000E+00  0.45593999997E+02  0.45594000000E+02  0.51100000000E-03 0.  1.
         11   -1    0    0    0    0 -0.00000000000E+00 -0.00000000000E+00 -0.45593999997E+02  0.45594000000E+02  0.51100000000E-03 0. -1.
    9900012    2    1    2    0    0 -0.80945039991E+01  0.11539757490E+02  0.12328318320E+02  0.72461696827E+02  0.70000164833E+02 0.  0.
         12    1    1    2    0    0  0.80945039991E+01 -0.11539757490E+02 -0.12328318320E+02  0.18726303173E+02  0.00000000000E+00 0. -1.
         11    1    3    3    0    0 -0.48655383043E+01 -0.20261163306E+02 -0.65068599867E+01  0.21829508209E+02  0.51100000000E-03 0. -1.
        -11    1    3    3    0    0  0.42512432949E+01  0.54496446221E+01  0.21997565677E+02  0.23057853153E+02  0.51100000000E-03 0.  1.
         12    1    3    3    0    0 -0.74802089896E+01  0.26351276173E+02 -0.31623873702E+01  0.27574335465E+02  0.00000000000E+00 0. -1.
</event>
<event>
 7    1  0.1333056E-013  0.7246154E+02  0.7816164E-02  0.1226708E+00
        -11   -1    0    0    0    0  0.00000000000E+00  0.00000000000E+00  0.45593999997E+02  0.45594000000E+02  0.51100000000E-03 0. -1.
         11   -1    0    0    0    0 -0.00000000000E+00 -0.00000000000E+00 -0.45593999997E+02  0.45594000000E+02  0.51100000000E-03 0.  1.
    9900012    2    1    2    0    0  0.18288658959E+02 -0.35789998580E+01  0.18427917590E+01  0.72461543635E+02  0.69999965271E+02 0.  0.
         12    1    1    2    0    0 -0.18288658959E+02  0.35789998580E+01 -0.18427917590E+01  0.18726456365E+02  0.00000000000E+00 0. -1.
         11    1    3    3    0    0 -0.88961916950E+01 -0.12653285818E+02 -0.69070289735E+01  0.16939743746E+02  0.51100000000E-03 0. -1.
        -11    1    3    3    0    0  0.21401365620E+02  0.27880131763E+02  0.59972488424E+01  0.35655114521E+02  0.51100000000E-03 0.  1.
        -12    1    3    3    0    0  0.57834850341E+01 -0.18805845803E+02  0.27525718901E+01  0.19866685368E+02  0.00000000000E+00 0.  1.
</event>
<event>
 7    1  0.1333056E-013  0.7246164E+02  0.7816164E-02  0.1226708E+00
        -11   -1    0    0    0    0  0.00000000000E+00  0.00000000000E+00  0.45593999997E+02  0.45594000000E+02  0.51100000000E-03 0. -1.
         11   -1    0    0    0    0 -0.00000000000E+00 -0.00000000000E+00 -0.45593999997E+02  0.45594000000E+02  0.51100000000E-03 0.  1.
    9900012    2    1    2    0    0 -0.29150391713E+01 -0.18015403747E+02 -0.41981143231E+01  0.72461644524E+02  0.70000096698E+02 0.  0.
         12    1    1    2    0    0  0.29150391713E+01  0.18015403747E+02  0.41981143231E+01  0.18726355476E+02  0.00000000000E+00 0. -1.
         11    1    3    3    0    0  0.79984923371E+01  0.13762209871E+02 -0.39373631715E+00  0.15922604333E+02  0.51100000000E-03 0. -1.
        -11    1    3    3    0    0  0.90216194649E+01 -0.32263261025E+02  0.64496089359E+01  0.34116053192E+02  0.51100000000E-03 0.  1.
        -12    1    3    3    0    0 -0.19935150973E+02  0.48564740594E+00 -0.10253986942E+02  0.22422986998E+02  0.00000000000E+00 0.  1.
</event>
<event>
 7    1  0.1333056E-013  0.7246157E+02  0.7816164E-02  0.1226708E+00
        -11   -1    0    0    0    0  0.00000000000E+00  0.00000000000E+00  0.45593999997E+02  0.45594000000E+02  0.51100000000E-03 0.  1.
         11   -1    0    0    0    0 -0.00000000000E+00 -0.00000000000E+00 -0.45593999997E+02  0.45594000000E+02  0.51100000000E-03 0. -1.
    9900012    2    1    2    0    0  0.75210948339E+01 -0.15856110184E+02 -0.65342246865E+01  0.72461569749E+02  0.69999999290E+02 0.  0.
         12    1    1    2    0    0 -0.75210948339E+01  0.15856110184E+02  0.65342246865E+01  0.18726430251E+02  0.00000000000E+00 0. -1.
         11    1    3    3    0    0  0.79197578144E+01 -0.22776260848E+02 -0.15726166042E+02  0.28788763793E+02  0.51100000000E-03 0. -1.
        -11    1    3    3    0    0 -0.14637937461E+02  0.18863968727E+02  0.29061922324E+01  0.24053367390E+02  0.51100000000E-03 0.  1.
        -12    1    3    3    0    0  0.14239274480E+02 -0.11943818063E+02  0.62857491230E+01  0.19619438567E+02  0.00000000000E+00 0.  1.
</event>
<event>
 7    1  0.1333056E-013  0.7246159E+02  0.7816164E-02  0.1226708E+00
        -11   -1    0    0    0    0  0.00000000000E+00  0.00000000000E+00  0.45593999997E+02  0.45594000000E+02  0.51100000000E-03 0. -1.
         11   -1    0    0    0    0 -0.00000000000E+00 -0.00000000000E+00 -0.45593999997E+02  0.45594000000E+02  0.51100000000E-03 0.  1.
    9900012    2    1    2    0    0 -0.39615750358E+01 -0.18274072008E+02  0.10211699614E+01  0.72461586232E+02  0.70000020762E+02 0.  0.
         12    1    1    2    0    0  0.39615750358E+01  0.18274072008E+02 -0.10211699614E+01  0.18726413768E+02  0.00000000000E+00 0. -1.
         11    1    3    3    0    0  0.17336635403E+02  0.18973688142E+02  0.23752894783E+01  0.25810884704E+02  0.51100000000E-03 0. -1.
        -11    1    3    3    0    0 -0.12856114859E+02 -0.27017610607E+02 -0.91216678535E+01  0.31279958390E+02  0.51100000000E-03 0.  1.
        -12    1    3    3    0    0 -0.84420955805E+01 -0.10230149543E+02  0.77675483366E+01  0.15370743138E+02  0.00000000000E+00 0.  1.
</event>
<event>
 7    1  0.1333056E-013  0.7246157E+02  0.7816164E-02  0.1226708E+00
        -11   -1    0    0    0    0  0.00000000000E+00  0.00000000000E+00  0.45593999997E+02  0.45594000000E+02  0.51100000000E-03 0. -1.
         11   -1    0    0    0    0 -0.00000000000E+00 -0.00000000000E+00 -0.45593999997E+02  0.45594000000E+02  0.51100000000E-03 0.  1.
    9900012    2    1    2    0    0 -0.59488685167E+01  0.41890431638E+01 -0.17255200927E+02  0.72461572730E+02  0.70000003173E+02 0.  0.
         12    1    1    2    0    0  0.59488685167E+01 -0.41890431638E+01  0.17255200927E+02  0.18726427270E+02  0.00000000000E+00 0. -1.
         11    1    3    3    0    0 -0.15875255575E+02  0.10161169896E+02  0.13533532579E+02  0.23204086226E+02  0.51100000000E-03 0. -1.
        -11    1    3    3    0    0  0.13353233973E+02 -0.17288262504E+02 -0.74246559057E+01  0.23072026212E+02  0.51100000000E-03 0.  1.
         12    1    3    3    0    0 -0.34268469147E+01  0.11316135772E+02 -0.23364077601E+02  0.26185460292E+02  0.00000000000E+00 0. -1.
</event>
<event>
 7    1  0.1333056E-013  0.7246156E+02  0.7816164E-02  0.1226708E+00
        -11   -1    0    0    0    0  0.00000000000E+00  0.00000000000E+00  0.45593999997E+02  0.45594000000E+02  0.51100000000E-03 0.  1.
         11   -1    0    0    0    0 -0.00000000000E+00 -0.00000000000E+00 -0.45593999997E+02  0.45594000000E+02  0.51100000000E-03 0. -1.
    9900012    2    1    2    0    0 -0.14147061657E+02  0.11924732306E+02  0.28881034458E+01  0.72461555180E+02  0.69999980311E+02 0.  0.
         12    1    1    2    0    0  0.14147061657E+02 -0.11924732306E+02 -0.28881034458E+01  0.18726444820E+02  0.00000000000E+00 0. -1.
         11    1    3    3    0    0 -0.27130434339E+02 -0.30287383669E+00  0.20242024693E+01  0.27207528295E+02  0.51100000000E-03 0. -1.
        -11    1    3    3    0    0  0.87848149762E+01  0.26473024751E+02 -0.65555758453E+01  0.28652566876E+02  0.51100000000E-03 0.  1.
        -12    1    3    3    0    0  0.41985577066E+01 -0.14245418609E+02  0.74194768218E+01  0.16601460010E+02  0.00000000000E+00 0.  1.
</event>
<event>
 7    1  0.1333056E-013  0.7246167E+02  0.7816164E-02  0.1226708E+00
        -11   -1    0    0    0    0  0.00000000000E+00  0.00000000000E+00  0.45593999997E+02  0.45594000000E+02  0.51100000000E-03 0.  1.
         11   -1    0    0    0    0 -0.00000000000E+00 -0.00000000000E+00 -0.45593999997E+02  0.45594000000E+02  0.51100000000E-03 0. -1.
    9900012    2    1    2    0    0  0.33605512078E+01  0.17022150761E+02  0.70447462310E+01  0.72461671732E+02  0.70000132141E+02 0.  0.
         12    1    1    2    0    0 -0.33605512078E+01 -0.17022150761E+02 -0.70447462310E+01  0.18726328268E+02  0.00000000000E+00 0. -1.
         11    1    3    3    0    0 -0.56083303234E+01 -0.79095675350E+01 -0.27097922493E+02  0.28780410548E+02  0.51100000000E-03 0. -1.
        -11    1    3    3    0    0  0.38868472795E+00  0.12526177463E+01  0.49733316863E+01  0.51433603179E+01  0.51100000000E-03 0.  1.
         12    1    3    3    0    0  0.85801968032E+01  0.23679100549E+02  0.29169337037E+02  0.38537900867E+02  0.00000000000E+00 0. -1.
</event>
<event>
 8    1  0.1333056E-013  0.7246143E+02  0.7816164E-02  0.1226708E+00
        -11   -1    0    0    0    0  0.00000000000E+00  0.00000000000E+00  0.45593999997E+02  0.45594000000E+02  0.51100000000E-03 0. -1.
         11   -1    0    0    0    0 -0.00000000000E+00 -0.00000000000E+00 -0.45593999997E+02  0.45594000000E+02  0.51100000000E-03 0.  1.
    9900012    2    1    2    0    0  0.35372044963E+01 -0.13584187087E+02 -0.12395263326E+02  0.72461427773E+02  0.69999814339E+02 0.  0.
         24    2    3    3    0    0 -0.81956009574E+01 -0.10912187487E+02 -0.22312792473E+02  0.56867977536E+02  0.50496162728E+02 0.  0.
         12    1    1    2    0    0 -0.35372044963E+01  0.13584187087E+02  0.12395263326E+02  0.18726572227E+02  0.00000000000E+00 0. -1.
         11    1    3    3    0    0  0.11732805454E+02 -0.26719995990E+01  0.99175291468E+01  0.15593450237E+02  0.51100000000E-03 0. -1.
        -11    1    4    4    0    0 -0.21985112697E+02 -0.24347431459E+02 -0.16718841820E+02  0.36819319263E+02  0.51100000000E-03 0.  1.
         12    1    4    4    0    0  0.13789511740E+02  0.13435243971E+02 -0.55939506532E+01  0.20048658272E+02  0.00000000000E+00 0. -1.
</event>
<event>
 7    1  0.1333056E-013  0.7246158E+02  0.7816164E-02  0.1226708E+00
        -11   -1    0    0    0    0  0.00000000000E+00  0.00000000000E+00  0.45593999997E+02  0.45594000000E+02  0.51100000000E-03 0.  1.
         11   -1    0    0    0    0 -0.00000000000E+00 -0.00000000000E+00 -0.45593999997E+02  0.45594000000E+02  0.51100000000E-03 0. -1.
    9900012    2    1    2    0    0  0.42694503063E+01  0.53772752606E+01  0.17422274887E+02  0.72461575958E+02  0.70000007379E+02 0.  0.
         12    1    1    2    0    0 -0.42694503063E+01 -0.53772752606E+01 -0.17422274887E+02  0.18726424042E+02  0.00000000000E+00 0. -1.
         11    1    3    3    0    0  0.76755664447E+01 -0.14774362822E+02  0.97322711353E+01  0.19285051692E+02  0.51100000000E-03 0. -1.
        -11    1    3    3    0    0 -0.17624240237E+02  0.30195809726E+02  0.75458470122E+01  0.35767870727E+02  0.51100000000E-03 0.  1.
        -12    1    3    3    0    0  0.14218124099E+02 -0.10044171644E+02  0.14415673948E+00  0.17408653540E+02  0.00000000000E+00 0.  1.
</event>
<event>
 7    1  0.1333056E-013  0.7246148E+02  0.7816164E-02  0.1226708E+00
        -11   -1    0    0    0    0  0.00000000000E+00  0.00000000000E+00  0.45593999997E+02  0.45594000000E+02  0.51100000000E-03 0.  1.
         11   -1    0    0    0    0 -0.00000000000E+00 -0.00000000000E+00 -0.45593999997E+02  0.45594000000E+02  0.51100000000E-03 0. -1.
    9900012    2    1    2    0    0 -0.15507757672E+02 -0.66480459787E+01  0.81237578591E+01  0.72461481233E+02  0.69999883982E+02 0.  0.
         12    1    1    2    0    0  0.15507757672E+02  0.66480459787E+01 -0.81237578591E+01  0.18726518767E+02  0.00000000000E+00 0. -1.
         11    1    3    3    0    0 -0.25140570865E+02 -0.26246829115E+01 -0.22407846123E+02  0.33779414322E+02  0.51100000000E-03 0. -1.
        -11    1    3    3    0    0 -0.13524608910E+01 -0.49168700017E+01  0.26437262651E+02  0.26924591321E+02  0.51100000000E-03 0.  1.
         12    1    3    3    0    0  0.10985274084E+02  0.89350693444E+00  0.40943413311E+01  0.11757475591E+02  0.00000000000E+00 0. -1.
</event>
<event>
 7    1  0.1333056E-013  0.7246133E+02  0.7816164E-02  0.1226709E+00
        -11   -1    0    0    0    0  0.00000000000E+00  0.00000000000E+00  0.45593999997E+02  0.45594000000E+02  0.51100000000E-03 0. -1.
         11   -1    0    0    0    0 -0.00000000000E+00 -0.00000000000E+00 -0.45593999997E+02  0.45594000000E+02  0.51100000000E-03 0.  1.
    9900012    2    1    2    0    0 -0.87366462513E+00 -0.18058909096E+02  0.48785781278E+01  0.72461334196E+02  0.69999692437E+02 0.  0.
         12    1    1    2    0    0  0.87366462513E+00  0.18058909096E+02 -0.48785781278E+01  0.18726665804E+02  0.00000000000E+00 0. -1.
         11    1    3    3    0    0  0.80494479854E+01 -0.51659709829E+01  0.16800647582E+02  0.19332424279E+02  0.51100000000E-03 0. -1.
        -11    1    3    3    0    0 -0.21627083608E+01 -0.24840326529E+02 -0.24174095882E+02  0.34729037440E+02  0.51100000000E-03 0.  1.
        -12    1    3    3    0    0 -0.67604042497E+01  0.11947388416E+02  0.12252026427E+02  0.18399872477E+02  0.00000000000E+00 0.  1.
</event>
<event>
 7    1  0.1333056E-013  0.7246160E+02  0.7816164E-02  0.1226708E+00
        -11   -1    0    0    0    0  0.00000000000E+00  0.00000000000E+00  0.45593999997E+02  0.45594000000E+02  0.51100000000E-03 0. -1.
         11   -1    0    0    0    0 -0.00000000000E+00 -0.00000000000E+00 -0.45593999997E+02  0.45594000000E+02  0.51100000000E-03 0.  1.
    9900012    2    1    2    0    0 -0.65130391911E+01  0.17504931706E+02 -0.13549626048E+01  0.72461595188E+02  0.70000032428E+02 0.  0.
         12    1    1    2    0    0  0.65130391911E+01 -0.17504931706E+02  0.13549626048E+01  0.18726404812E+02  0.00000000000E+00 0. -1.
         11    1    3    3    0    0  0.14904785053E+02 -0.26378574462E+00  0.39769957852E+01  0.15428502718E+02  0.51100000000E-03 0. -1.
        -11    1    3    3    0    0 -0.20607730417E+02  0.71865760173E+01 -0.25911426169E+02  0.33878126190E+02  0.51100000000E-03 0.  1.
        -12    1    3    3    0    0 -0.81009382742E+00  0.10582141433E+02  0.20579467779E+02  0.23154966279E+02  0.00000000000E+00 0.  1.
</event>
<event>
 7    1  0.1333056E-013  0.7246156E+02  0.7816164E-02  0.1226708E+00
        -11   -1    0    0    0    0  0.00000000000E+00  0.00000000000E+00  0.45593999997E+02  0.45594000000E+02  0.51100000000E-03 0. -1.
         11   -1    0    0    0    0 -0.00000000000E+00 -0.00000000000E+00 -0.45593999997E+02  0.45594000000E+02  0.51100000000E-03 0.  1.
    9900012    2    1    2    0    0  0.16310684886E+02  0.19329797449E+01  0.89947112087E+01  0.72461556615E+02  0.69999982180E+02 0.  0.
         12    1    1    2    0    0 -0.16310684886E+02 -0.19329797449E+01 -0.89947112087E+01  0.18726443385E+02  0.00000000000E+00 0. -1.
         11    1    3    3    0    0  0.30990504213E+02  0.74329490850E+01  0.10521929059E+02  0.33561452216E+02  0.51100000000E-03 0. -1.
        -11    1    3    3    0    0 -0.77774952745E+01 -0.17426609323E+02 -0.11141470372E+02  0.22097703672E+02  0.51100000000E-03 0.  1.
        -12    1    3    3    0    0 -0.69023240527E+01  0.11926639983E+02  0.96142525221E+01  0.16802400727E+02  0.00000000000E+00 0.  1.
</event>
<event>
 7    1  0.1333056E-013  0.7246155E+02  0.7816164E-02  0.1226708E+00
        -11   -1    0    0    0    0  0.00000000000E+00  0.00000000000E+00  0.45593999997E+02  0.45594000000E+02  0.51100000000E-03 0.  1.
         11   -1    0    0    0    0 -0.00000000000E+00 -0.00000000000E+00 -0.45593999997E+02  0.45594000000E+02  0.51100000000E-03 0. -1.
    9900012    2    1    2    0    0 -0.48933636227E+01  0.32929086620E+01  0.17773341231E+02  0.72461550429E+02  0.69999974122E+02 0.  0.
         12    1    1    2    0    0  0.48933636227E+01 -0.32929086620E+01 -0.17773341231E+02  0.18726449571E+02  0.00000000000E+00 0. -1.
         11    1    3    3    0    0  0.48359736885E+01  0.42724950222E+01 -0.68676070101E+01  0.94236342001E+01  0.51100000000E-03 0. -1.
        -11    1    3    3    0    0 -0.13366310981E+02 -0.13420693952E+02  0.39205239508E+02  0.43541062235E+02  0.51100000000E-03 0.  1.
        -12    1    3    3    0    0  0.36369736701E+01  0.12441107592E+02 -0.14564291267E+02  0.19496853994E+02  0.00000000000E+00 0.  1.
</event>
<event>
 7    1  0.1333056E-013  0.7246152E+02  0.7816164E-02  0.1226708E+00
        -11   -1    0    0    0    0  0.00000000000E+00  0.00000000000E+00  0.45593999997E+02  0.45594000000E+02  0.51100000000E-03 0.  1.
         11   -1    0    0    0    0 -0.00000000000E+00 -0.00000000000E+00 -0.45593999997E+02  0.45594000000E+02  0.51100000000E-03 0. -1.
    9900012    2    1    2    0    0  0.65841956323E+01  0.12393328622E+02  0.12398980183E+02  0.72461523128E+02  0.69999938557E+02 0.  0.
         12    1    1    2    0    0 -0.65841956323E+01 -0.12393328622E+02 -0.12398980183E+02  0.18726476872E+02  0.00000000000E+00 0. -1.
         11    1    3    3    0    0  0.14619740102E+02  0.34762900205E+02  0.24163610838E+02  0.44789241122E+02  0.51100000000E-03 0.  1.
        -11    1    3    3    0    0 -0.52946738126E+01 -0.16926991212E+02 -0.47106620027E+01  0.18350665901E+02  0.51100000000E-03 0. -1.
        -12    1    3    3    0    0 -0.27408706576E+01 -0.54425803714E+01 -0.70539686522E+01  0.93216161049E+01  0.00000000000E+00 0.  1.
</event>
<event>
 7    1  0.1333056E-013  0.7246154E+02  0.7816164E-02  0.1226708E+00
        -11   -1    0    0    0    0  0.00000000000E+00  0.00000000000E+00  0.45593999997E+02  0.45594000000E+02  0.51100000000E-03 0.  1.
         11   -1    0    0    0    0 -0.00000000000E+00 -0.00000000000E+00 -0.45593999997E+02  0.45594000000E+02  0.51100000000E-03 0. -1.
    9900012    2    1    2    0    0  0.10690315041E+02 -0.57153474094E+01  0.14273483681E+02  0.72461538293E+02  0.69999958312E+02 0.  0.
         12    1    1    2    0    0 -0.10690315041E+02  0.57153474094E+01 -0.14273483681E+02  0.18726461707E+02  0.00000000000E+00 0. -1.
         11    1    3    3    0    0 -0.21563437134E+01 -0.82341085194E+01 -0.24194518367E+02  0.25648100916E+02  0.51100000000E-03 0. -1.
        -11    1    3    3    0    0 -0.82059437592E+00  0.10682805050E+02  0.14174103676E+02  0.17767974396E+02  0.51100000000E-03 0.  1.
         12    1    3    3    0    0  0.13667253131E+02 -0.81640439404E+01  0.24293898372E+02  0.29045462980E+02  0.00000000000E+00 0. -1.
</event>
<event>
 7    1  0.1333056E-013  0.7246158E+02  0.7816164E-02  0.1226708E+00
        -11   -1    0    0    0    0  0.00000000000E+00  0.00000000000E+00  0.45593999997E+02  0.45594000000E+02  0.51100000000E-03 0. -1.
         11   -1    0    0    0    0 -0.00000000000E+00 -0.00000000000E+00 -0.45593999997E+02  0.45594000000E+02  0.51100000000E-03 0.  1.
    9900012    2    1    2    0    0  0.18473227262E+02  0.19977153094E+01  0.23297588091E+01  0.72461581014E+02  0.70000013965E+02 0.  0.
         12    1    1    2    0    0 -0.18473227262E+02 -0.19977153094E+01 -0.23297588091E+01  0.18726418986E+02  0.00000000000E+00 0. -1.
         11    1    3    3    0    0  0.17239527482E+02 -0.25500944360E+02 -0.16623427648E+02  0.34983393461E+02  0.51100000000E-03 0. -1.
        -11    1    3    3    0    0  0.78865968548E+01  0.89180780663E+01  0.34898940360E+01  0.12406042358E+02  0.51100000000E-03 0.  1.
         12    1    3    3    0    0 -0.66528970748E+01  0.18580581603E+02  0.15463292421E+02  0.25072145195E+02  0.00000000000E+00 0. -1.
</event>
<event>
 7    1  0.1333056E-013  0.7246156E+02  0.7816164E-02  0.1226708E+00
        -11   -1    0    0    0    0  0.00000000000E+00  0.00000000000E+00  0.45593999997E+02  0.45594000000E+02  0.51100000000E-03 0.  1.
         11   -1    0    0    0    0 -0.00000000000E+00 -0.00000000000E+00 -0.45593999997E+02  0.45594000000E+02  0.51100000000E-03 0. -1.
    9900012    2    1    2    0    0  0.85956309426E+01  0.54818196248E+01  0.15708093232E+02  0.72461563855E+02  0.69999991612E+02 0.  0.
         12    1    1    2    0    0 -0.85956309426E+01 -0.54818196248E+01 -0.15708093232E+02  0.18726436145E+02  0.00000000000E+00 0. -1.
         11    1    3    3    0    0  0.13961888650E+02 -0.54272650923E+01 -0.15942789036E+02  0.21876061427E+02  0.51100000000E-03 0. -1.
        -11    1    3    3    0    0  0.19256458040E+01  0.26327918038E+01  0.37811099366E+02  0.37951534093E+02  0.51100000000E-03 0.  1.
         12    1    3    3    0    0 -0.72919035110E+01  0.82762929133E+01 -0.61602170979E+01  0.12633968335E+02  0.00000000000E+00 0. -1.
</event>
<event>
 7    1  0.1347352E-013  0.7246157E+02  0.7816164E-02  0.1226708E+00
        -11   -1    0    0    0    0  0.00000000000E+00  0.00000000000E+00  0.45593999997E+02  0.45594000000E+02  0.51100000000E-03 0.  1.
         11   -1    0    0    0    0 -0.00000000000E+00 -0.00000000000E+00 -0.45593999997E+02  0.45594000000E+02  0.51100000000E-03 0. -1.
    9900012    2    1    2    0    0 -0.11593873500E+02 -0.14298873519E+02  0.34356235964E+01  0.72461569584E+02  0.69999999074E+02 0.  0.
         12    1    1    2    0    0  0.11593873500E+02  0.14298873519E+02 -0.34356235964E+01  0.18726430416E+02  0.00000000000E+00 0. -1.
         11    1    3    3    0    0  0.48088624936E+01  0.54749685733E+01 -0.20128715171E+02  0.21407139324E+02  0.51100000000E-03 0. -1.
        -11    1    3    3    0    0 -0.53299504943E+00 -0.81201498253E+00  0.26172720109E+02  0.26190737489E+02  0.51100000000E-03 0.  1.
        -12    1    3    3    0    0 -0.15869740944E+02 -0.18961827110E+02 -0.26083813413E+01  0.24863692771E+02  0.00000000000E+00 0.  1.
</event>
<event>
 7    1  0.1333056E-013  0.7246157E+02  0.7816164E-02  0.1226708E+00
        -11   -1    0    0    0    0  0.00000000000E+00  0.00000000000E+00  0.45593999997E+02  0.45594000000E+02  0.51100000000E-03 0.  1.
         11   -1    0    0    0    0 -0.00000000000E+00 -0.00000000000E+00 -0.45593999997E+02  0.45594000000E+02  0.51100000000E-03 0. -1.
    9900012    2    1    2    0    0 -0.12243374589E+02 -0.24468873026E+01 -0.13956773226E+02  0.72461574882E+02  0.70000005977E+02 0.  0.
         12    1    1    2    0    0  0.12243374589E+02  0.24468873026E+01  0.13956773226E+02  0.18726425118E+02  0.00000000000E+00 0. -1.
         11    1    3    3    0    0  0.35079033674E+01  0.23884255178E+01 -0.61100659928E+01  0.74392788082E+01  0.51100000000E-03 0. -1.
        -11    1    3    3    0    0 -0.25488563680E+02 -0.49937871703E+01  0.21742031194E+02  0.33872122895E+02  0.51100000000E-03 0.  1.
        -12    1    3    3    0    0  0.97372857232E+01  0.15847434990E+00 -0.29588738427E+02  0.31150173179E+02  0.00000000000E+00 0.  1.
</event>
<event>
 7    1  0.1333056E-013  0.7246161E+02  0.7816164E-02  0.1226708E+00
        -11   -1    0    0    0    0  0.00000000000E+00  0.00000000000E+00  0.45593999997E+02  0.45594000000E+02  0.51100000000E-03 0.  1.
         11   -1    0    0    0    0 -0.00000000000E+00 -0.00000000000E+00 -0.45593999997E+02  0.45594000000E+02  0.51100000000E-03 0. -1.
    9900012    2    1    2    0    0 -0.16865819757E+01 -0.14367705102E+02  0.11891271561E+02  0.72461605579E+02  0.70000045965E+02 0.  0.
         12    1    1    2    0    0  0.16865819757E+01  0.14367705102E+02 -0.11891271561E+02  0.18726394421E+02  0.00000000000E+00 0. -1.
         11    1    3    3    0    0 -0.11331055991E+02 -0.28078103238E+02 -0.16018086792E+02  0.34254223332E+02  0.51100000000E-03 0. -1.
        -11    1    3    3    0    0  0.10339522298E+02  0.18523509724E+02  0.22161438868E+02  0.30678257884E+02  0.51100000000E-03 0.  1.
        -12    1    3    3    0    0 -0.69504828219E+00 -0.48131115884E+01  0.57479194852E+01  0.75291243638E+01  0.00000000000E+00 0.  1.
</event>
<event>
 7    1  0.1333056E-013  0.7246151E+02  0.7816164E-02  0.1226708E+00
        -11   -1    0    0    0    0  0.00000000000E+00  0.00000000000E+00  0.45593999997E+02  0.45594000000E+02  0.51100000000E-03 0. -1.
         11   -1    0    0    0    0 -0.00000000000E+00 -0.00000000000E+00 -0.45593999997E+02  0.45594000000E+02  0.51100000000E-03 0.  1.
    9900012    2    1    2    0    0 -0.46898336235E+01 -0.13092868500E+02 -0.12540488484E+02  0.72461505496E+02  0.69999915589E+02 0.  0.
         12    1    1    2    0    0  0.46898336235E+01  0.13092868500E+02  0.12540488484E+02  0.18726494504E+02  0.00000000000E+00 0. -1.
         11    1    3    3    0    0 -0.23897345528E+02  0.93834375681E+01  0.76335289112E+01  0.26784375814E+02  0.51100000000E-03 0. -1.
        -11    1    3    3    0    0  0.11008773956E+02 -0.11824934197E+02  0.51919499382E+01  0.16969929794E+02  0.51100000000E-03 0.  1.
         12    1    3    3    0    0  0.81987379479E+01 -0.10651371871E+02 -0.25365967333E+02  0.28707199888E+02  0.00000000000E+00 0. -1.
</event>
<event>
 7    1  0.1333056E-013  0.7246164E+02  0.7816164E-02  0.1226708E+00
        -11   -1    0    0    0    0  0.00000000000E+00  0.00000000000E+00  0.45593999997E+02  0.45594000000E+02  0.51100000000E-03 0.  1.
         11   -1    0    0    0    0 -0.00000000000E+00 -0.00000000000E+00 -0.45593999997E+02  0.45594000000E+02  0.51100000000E-03 0. -1.
    9900012    2    1    2    0    0  0.76218923650E+00 -0.16849975926E+02 -0.81347334278E+01  0.72461641329E+02  0.70000092536E+02 0.  0.
         12    1    1    2    0    0 -0.76218923650E+00  0.16849975926E+02  0.81347334278E+01  0.18726358671E+02  0.00000000000E+00 0. -1.
         11    1    3    3    0    0  0.19417420849E+02  0.17909800564E+01 -0.34692291450E+01  0.19806044358E+02  0.51100000000E-03 0. -1.
        -11    1    3    3    0    0 -0.11957042495E+02 -0.29055508435E+02  0.10453527050E+02  0.33112983310E+02  0.51100000000E-03 0.  1.
        -12    1    3    3    0    0 -0.66981891171E+01  0.10414552453E+02 -0.15119031333E+02  0.19542613661E+02  0.00000000000E+00 0.  1.
</event>
<event>
 7    1  0.1333056E-013  0.7246148E+02  0.7816164E-02  0.1226708E+00
        -11   -1    0    0    0    0  0.00000000000E+00  0.00000000000E+00  0.45593999997E+02  0.45594000000E+02  0.51100000000E-03 0.  1.
         11   -1    0    0    0    0 -0.00000000000E+00 -0.00000000000E+00 -0.45593999997E+02  0.45594000000E+02  0.51100000000E-03 0. -1.
    9900012    2    1    2    0    0  0.14246023377E+02 -0.23384703673E+01  0.11927493390E+02  0.72461475382E+02  0.69999876358E+02 0.  0.
         12    1    1    2    0    0 -0.14246023377E+02  0.23384703673E+01 -0.11927493390E+02  0.18726524618E+02  0.00000000000E+00 0. -1.
         11    1    3    3    0    0 -0.36663304444E+01  0.81521823173E+01  0.33016005379E+02  0.34204629319E+02  0.51100000000E-03 0.  1.
        -11    1    3    3    0    0  0.22984224054E+00 -0.49148490180E+01 -0.18967340345E+02  0.19595115931E+02  0.51100000000E-03 0. -1.
        -12    1    3    3    0    0  0.17682511581E+02 -0.55758036666E+01 -0.21211716435E+01  0.18661730131E+02  0.00000000000E+00 0.  1.
</event>
<event>
 7    1  0.1333056E-013  0.7246156E+02  0.7816164E-02  0.1226708E+00
        -11   -1    0    0    0    0  0.00000000000E+00  0.00000000000E+00  0.45593999997E+02  0.45594000000E+02  0.51100000000E-03 0. -1.
         11   -1    0    0    0    0 -0.00000000000E+00 -0.00000000000E+00 -0.45593999997E+02  0.45594000000E+02  0.51100000000E-03 0.  1.
    9900012    2    1    2    0    0 -0.11864943578E+02  0.13044585111E+02 -0.63040909605E+01  0.72461557474E+02  0.69999983299E+02 0.  0.
         12    1    1    2    0    0  0.11864943578E+02 -0.13044585111E+02  0.63040909605E+01  0.18726442526E+02  0.00000000000E+00 0. -1.
         11    1    3    3    0    0  0.13022168413E+02 -0.78888284799E+01 -0.81375163889E+01  0.17263535507E+02  0.51100000000E-03 0. -1.
        -11    1    3    3    0    0 -0.31305054465E+02  0.30456293422E+02  0.10727892581E+01  0.43689164802E+02  0.51100000000E-03 0.  1.
        -12    1    3    3    0    0  0.64179424746E+01 -0.95228798303E+01  0.76063617022E+00  0.11508857165E+02  0.00000000000E+00 0.  1.
</event>
<event>
 7    1  0.1333056E-013  0.7246169E+02  0.7816164E-02  0.1226708E+00
        -11   -1    0    0    0    0  0.00000000000E+00  0.00000000000E+00  0.45593999997E+02  0.45594000000E+02  0.51100000000E-03 0. -1.
         11   -1    0    0    0    0 -0.00000000000E+00 -0.00000000000E+00 -0.45593999997E+02  0.45594000000E+02  0.51100000000E-03 0.  1.
    9900012    2    1    2    0    0 -0.26542446727E+01  0.48003623382E+00 -0.18531037469E+02  0.72461686982E+02  0.70000152007E+02 0.  0.
         12    1    1    2    0    0  0.26542446727E+01 -0.48003623382E+00  0.18531037469E+02  0.18726313018E+02  0.00000000000E+00 0. -1.
         11    1    3    3    0    0 -0.22670009210E+02 -0.32834431701E+01  0.96112881076E+01  0.24841239421E+02  0.51100000000E-03 0. -1.
        -11    1    3    3    0    0  0.21953493751E+02  0.90525340459E+01 -0.56175923458E+01  0.24402081972E+02  0.51100000000E-03 0.  1.
         12    1    3    3    0    0 -0.19377292136E+01 -0.52890546420E+01 -0.22524733231E+02  0.23218365589E+02  0.00000000000E+00 0. -1.
</event>
<event>
 7    1  0.1333056E-013  0.7246158E+02  0.7816164E-02  0.1226708E+00
        -11   -1    0    0    0    0  0.00000000000E+00  0.00000000000E+00  0.45593999997E+02  0.45594000000E+02  0.51100000000E-03 0.  1.
         11   -1    0    0    0    0 -0.00000000000E+00 -0.00000000000E+00 -0.45593999997E+02  0.45594000000E+02  0.51100000000E-03 0. -1.
    9900012    2    1    2    0    0  0.82699864795E+01 -0.13781780122E+02  0.96098132942E+01  0.72461584132E+02  0.70000018027E+02 0.  0.
         12    1    1    2    0    0 -0.82699864795E+01  0.13781780122E+02 -0.96098132942E+01  0.18726415868E+02  0.00000000000E+00 0. -1.
         11    1    3    3    0    0  0.19180004920E+02  0.53781631626E+01 -0.22863948010E+01  0.20050556830E+02  0.51100000000E-03 0. -1.
        -11    1    3    3    0    0 -0.27484259165E+02 -0.14055844235E+02  0.15735084597E+02  0.34648869340E+02  0.51100000000E-03 0.  1.
        -12    1    3    3    0    0  0.16574240724E+02 -0.51040990498E+01 -0.38388765020E+01  0.17762157963E+02  0.00000000000E+00 0.  1.
</event>
<event>
 7    1  0.1333056E-013  0.7246161E+02  0.7816164E-02  0.1226708E+00
        -11   -1    0    0    0    0  0.00000000000E+00  0.00000000000E+00  0.45593999997E+02  0.45594000000E+02  0.51100000000E-03 0.  1.
         11   -1    0    0    0    0 -0.00000000000E+00 -0.00000000000E+00 -0.45593999997E+02  0.45594000000E+02  0.51100000000E-03 0. -1.
    9900012    2    1    2    0    0  0.15184561069E+02 -0.53621865951E+01  0.95579137623E+01  0.72461610721E+02  0.70000052663E+02 0.  0.
         12    1    1    2    0    0 -0.15184561069E+02  0.53621865951E+01 -0.95579137623E+01  0.18726389279E+02  0.00000000000E+00 0. -1.
         11    1    3    3    0    0 -0.17774744638E+02 -0.12015127435E+02 -0.17175951725E+02  0.27483052089E+02  0.51100000000E-03 0. -1.
        -11    1    3    3    0    0  0.17105504537E+02  0.76164361522E+00  0.21053299063E+02  0.27137055628E+02  0.51100000000E-03 0.  1.
         12    1    3    3    0    0  0.15853801170E+02  0.58912972242E+01  0.56805664241E+01  0.17841503004E+02  0.00000000000E+00 0. -1.
</event>
<event>
 7    1  0.1333056E-013  0.7246159E+02  0.7816164E-02  0.1226708E+00
        -11   -1    0    0    0    0  0.00000000000E+00  0.00000000000E+00  0.45593999997E+02  0.45594000000E+02  0.51100000000E-03 0.  1.
         11   -1    0    0    0    0 -0.00000000000E+00 -0.00000000000E+00 -0.45593999997E+02  0.45594000000E+02  0.51100000000E-03 0. -1.
    9900012    2    1    2    0    0 -0.64236099966E+01 -0.12896110996E+02  0.11962693353E+02  0.72461588799E+02  0.70000024106E+02 0.  0.
         12    1    1    2    0    0  0.64236099966E+01  0.12896110996E+02 -0.11962693353E+02  0.18726411201E+02  0.00000000000E+00 0. -1.
         11    1    3    3    0    0 -0.23085481624E+02 -0.18994156548E+01 -0.95379288519E+01  0.25050335899E+02  0.51100000000E-03 0.  1.
        -11    1    3    3    0    0  0.26369373671E+02 -0.46062368509E+01  0.50049495478E+01  0.27232532126E+02  0.51100000000E-03 0. -1.
        -12    1    3    3    0    0 -0.97075020440E+01 -0.63904584902E+01  0.16495672657E+02  0.20178720774E+02  0.00000000000E+00 0.  1.
</event>
<event>
 7    1  0.1333056E-013  0.7246156E+02  0.7816164E-02  0.1226708E+00
        -11   -1    0    0    0    0  0.00000000000E+00  0.00000000000E+00  0.45593999997E+02  0.45594000000E+02  0.51100000000E-03 0.  1.
         11   -1    0    0    0    0 -0.00000000000E+00 -0.00000000000E+00 -0.45593999997E+02  0.45594000000E+02  0.51100000000E-03 0. -1.
    9900012    2    1    2    0    0  0.94468804921E+01  0.16113807376E+02  0.13346557162E+01  0.72461557598E+02  0.69999983460E+02 0.  0.
         12    1    1    2    0    0 -0.94468804921E+01 -0.16113807376E+02 -0.13346557162E+01  0.18726442402E+02  0.00000000000E+00 0. -1.
         11    1    3    3    0    0 -0.16086834397E+02 -0.97063308205E+01 -0.10269039017E+02  0.21411498348E+02  0.51100000000E-03 0. -1.
        -11    1    3    3    0    0  0.25865065884E+02  0.20280034877E+02  0.21800721871E+02  0.39440498503E+02  0.51100000000E-03 0.  1.
         12    1    3    3    0    0 -0.33135099544E+00  0.55401033189E+01 -0.10197027138E+02  0.11609560746E+02  0.00000000000E+00 0. -1.
</event>
<event>
 7    1  0.1333056E-013  0.7246156E+02  0.7816164E-02  0.1226708E+00
        -11   -1    0    0    0    0  0.00000000000E+00  0.00000000000E+00  0.45593999997E+02  0.45594000000E+02  0.51100000000E-03 0. -1.
         11   -1    0    0    0    0 -0.00000000000E+00 -0.00000000000E+00 -0.45593999997E+02  0.45594000000E+02  0.51100000000E-03 0.  1.
    9900012    2    1    2    0    0  0.14002734051E+02  0.61969659984E+01 -0.10779634678E+02  0.72461562210E+02  0.69999989469E+02 0.  0.
         12    1    1    2    0    0 -0.14002734051E+02 -0.61969659984E+01  0.10779634678E+02  0.18726437790E+02  0.00000000000E+00 0. -1.
         11    1    3    3    0    0  0.73932488067E+00 -0.28909945426E+02 -0.16079846200E+01  0.28964066714E+02  0.51100000000E-03 0. -1.
        -11    1    3    3    0    0  0.76850999434E+01  0.24283978631E+02 -0.15457847809E+02  0.29794587402E+02  0.51100000000E-03 0.  1.
         12    1    3    3    0    0  0.55783092274E+01  0.10822932793E+02  0.62861977502E+01  0.13702908094E+02  0.00000000000E+00 0. -1.
</event>
<event>
 7    1  0.1333056E-013  0.7246157E+02  0.7816164E-02  0.1226708E+00
        -11   -1    0    0    0    0  0.00000000000E+00  0.00000000000E+00  0.45593999997E+02  0.45594000000E+02  0.51100000000E-03 0.  1.
         11   -1    0    0    0    0 -0.00000000000E+00 -0.00000000000E+00 -0.45593999997E+02  0.45594000000E+02  0.51100000000E-03 0. -1.
    9900012    2    1    2    0    0  0.95278651215E+01  0.13792049214E+02  0.83473485038E+01  0.72461573156E+02  0.70000003728E+02 0.  0.
         12    1    1    2    0    0 -0.95278651215E+01 -0.13792049214E+02 -0.83473485038E+01  0.18726426844E+02  0.00000000000E+00 0. -1.
         11    1    3    3    0    0 -0.20776453932E+02  0.24803872364E+00  0.34270338323E+01  0.21058659082E+02  0.51100000000E-03 0. -1.
        -11    1    3    3    0    0  0.12430209222E+02  0.26250501349E+02  0.59928445337E+00  0.29050956344E+02  0.51100000000E-03 0.  1.
        -12    1    3    3    0    0  0.17874109832E+02 -0.12706490858E+02  0.43210302182E+01  0.22351957730E+02  0.00000000000E+00 0.  1.
</event>
<event>
 7    1  0.1333056E-013  0.7246156E+02  0.7816164E-02  0.1226708E+00
        -11   -1    0    0    0    0  0.00000000000E+00  0.00000000000E+00  0.45593999997E+02  0.45594000000E+02  0.51100000000E-03 0. -1.
         11   -1    0    0    0    0 -0.00000000000E+00 -0.00000000000E+00 -0.45593999997E+02  0.45594000000E+02  0.51100000000E-03 0.  1.
    9900012    2    1    2    0    0  0.17636408394E+02 -0.10864311459E+01 -0.62013089763E+01  0.72461562360E+02  0.69999989664E+02 0.  0.
         12    1    1    2    0    0 -0.17636408394E+02  0.10864311459E+01  0.62013089763E+01  0.18726437640E+02  0.00000000000E+00 0. -1.
         11    1    3    3    0    0  0.24337710291E+02 -0.25186898118E+02 -0.69678184120E+01  0.35710705296E+02  0.51100000000E-03 0. -1.
        -11    1    3    3    0    0  0.13090367300E+01  0.10338346256E+02 -0.12322520475E+02  0.16138137798E+02  0.51100000000E-03 0.  1.
         12    1    3    3    0    0 -0.80103386274E+01  0.13762120716E+02  0.13089029911E+02  0.20612719266E+02  0.00000000000E+00 0. -1.
</event>
<event>
 7    1  0.1333056E-013  0.7246150E+02  0.7816164E-02  0.1226708E+00
        -11   -1    0    0    0    0  0.00000000000E+00  0.00000000000E+00  0.45593999997E+02  0.45594000000E+02  0.51100000000E-03 0. -1.
         11   -1    0    0    0    0 -0.00000000000E+00 -0.00000000000E+00 -0.45593999997E+02  0.45594000000E+02  0.51100000000E-03 0.  1.
    9900012    2    1    2    0    0 -0.16193974857E+02 -0.53580412441E-01 -0.94039375389E+01  0.72461501828E+02  0.69999910810E+02 0.  0.
         12    1    1    2    0    0  0.16193974857E+02  0.53580412441E-01  0.94039375389E+01  0.18726498172E+02  0.00000000000E+00 0. -1.
         11    1    3    3    0    0  0.29877491523E+01  0.85211536662E+01  0.76623081051E+01  0.11842620933E+02  0.51100000000E-03 0. -1.
        -11    1    3    3    0    0 -0.29727699344E+02  0.12969321609E+02 -0.17028558553E+02  0.36632106382E+02  0.51100000000E-03 0.  1.
        -12    1    3    3    0    0  0.10545975335E+02 -0.21544055688E+02 -0.37687090966E-01  0.23986774514E+02  0.00000000000E+00 0.  1.
</event>
<event>
 7    1  0.1333056E-013  0.7246156E+02  0.7816164E-02  0.1226708E+00
        -11   -1    0    0    0    0  0.00000000000E+00  0.00000000000E+00  0.45593999997E+02  0.45594000000E+02  0.51100000000E-03 0.  1.
         11   -1    0    0    0    0 -0.00000000000E+00 -0.00000000000E+00 -0.45593999997E+02  0.45594000000E+02  0.51100000000E-03 0. -1.
    9900012    2    1    2    0    0  0.18613499462E+02  0.84104414444E+00 -0.18734491672E+01  0.72461560689E+02  0.69999987488E+02 0.  0.
         12    1    1    2    0    0 -0.18613499462E+02 -0.84104414444E+00  0.18734491672E+01  0.18726439311E+02  0.00000000000E+00 0. -1.
         11    1    3    3    0    0 -0.12114033936E+02 -0.10047173909E+02 -0.10425154535E+02  0.18878012848E+02  0.51100000000E-03 0. -1.
        -11    1    3    3    0    0  0.25588633528E+02  0.25659397066E+02  0.10877413187E+01  0.36254186035E+02  0.51100000000E-03 0.  1.
        -12    1    3    3    0    0  0.51388998701E+01 -0.14771179012E+02  0.74639640495E+01  0.17329361806E+02  0.00000000000E+00 0.  1.
</event>
<event>
 7    1  0.1333056E-013  0.7246161E+02  0.7816164E-02  0.1226708E+00
        -11   -1    0    0    0    0  0.00000000000E+00  0.00000000000E+00  0.45593999997E+02  0.45594000000E+02  0.51100000000E-03 0. -1.
         11   -1    0    0    0    0 -0.00000000000E+00 -0.00000000000E+00 -0.45593999997E+02  0.45594000000E+02  0.51100000000E-03 0.  1.
    9900012    2    1    2    0    0  0.69923003257E+01  0.16705280624E+02 -0.47664413147E+01  0.72461611470E+02  0.70000053639E+02 0.  0.
         12    1    1    2    0    0 -0.69923003257E+01 -0.16705280624E+02  0.47664413147E+01  0.18726388530E+02  0.00000000000E+00 0. -1.
         11    1    3    3    0    0  0.26885962621E+02 -0.12597292651E+01  0.90175898875E+01  0.28385891416E+02  0.51100000000E-03 0. -1.
        -11    1    3    3    0    0 -0.12399766354E+02  0.12325330633E+02 -0.24331463859E+02  0.29961443801E+02  0.51100000000E-03 0.  1.
         12    1    3    3    0    0 -0.74938959413E+01  0.56396792565E+01  0.10547432657E+02  0.14114276253E+02  0.00000000000E+00 0. -1.
</event>
<event>
 7    1  0.1333056E-013  0.7246164E+02  0.7816164E-02  0.1226708E+00
        -11   -1    0    0    0    0  0.00000000000E+00  0.00000000000E+00  0.45593999997E+02  0.45594000000E+02  0.51100000000E-03 0.  1.
         11   -1    0    0    0    0 -0.00000000000E+00 -0.00000000000E+00 -0.45593999997E+02  0.45594000000E+02  0.51100000000E-03 0. -1.
    9900012    2    1    2    0    0  0.48037072966E+01  0.91591065031E+01  0.15611273062E+02  0.72461636703E+02  0.70000086509E+02 0.  0.
         12    1    1    2    0    0 -0.48037072966E+01 -0.91591065031E+01 -0.15611273062E+02  0.18726363297E+02  0.00000000000E+00 0. -1.
         11    1    3    3    0    0 -0.10691070443E+02 -0.20190077741E+02  0.21660553621E+02  0.31482023598E+02  0.51100000000E-03 0. -1.
        -11    1    3    3    0    0  0.20226890491E+02  0.22083221724E+02  0.75734943171E+00  0.29956123899E+02  0.51100000000E-03 0.  1.
         12    1    3    3    0    0 -0.47321127507E+01  0.72659625197E+01 -0.68066299910E+01  0.11023489205E+02  0.00000000000E+00 0. -1.
</event>
<event>
 7    1  0.1333056E-013  0.7246161E+02  0.7816164E-02  0.1226708E+00
        -11   -1    0    0    0    0  0.00000000000E+00  0.00000000000E+00  0.45593999997E+02  0.45594000000E+02  0.51100000000E-03 0.  1.
         11   -1    0    0    0    0 -0.00000000000E+00 -0.00000000000E+00 -0.45593999997E+02  0.45594000000E+02  0.51100000000E-03 0. -1.
    9900012    2    1    2    0    0 -0.53874738886E-01 -0.10929155998E+02  0.15206197424E+02  0.72461607037E+02  0.70000047864E+02 0.  0.
         12    1    1    2    0    0  0.53874738886E-01  0.10929155998E+02 -0.15206197424E+02  0.18726392963E+02  0.00000000000E+00 0. -1.
         11    1    3    3    0    0 -0.21954359380E+02 -0.89639401608E+01 -0.63928445687E+01  0.24560427133E+02  0.51100000000E-03 0. -1.
        -11    1    3    3    0    0  0.80191221503E+01 -0.10313715363E+02  0.27672626018E+02  0.30601524074E+02  0.51100000000E-03 0.  1.
        -12    1    3    3    0    0  0.13881362491E+02  0.83484995263E+01 -0.60735840253E+01  0.17299655831E+02  0.00000000000E+00 0.  1.
</event>
<event>
 7    1  0.1333056E-013  0.7246151E+02  0.7816164E-02  0.1226708E+00
        -11   -1    0    0    0    0  0.00000000000E+00  0.00000000000E+00  0.45593999997E+02  0.45594000000E+02  0.51100000000E-03 0.  1.
         11   -1    0    0    0    0 -0.00000000000E+00 -0.00000000000E+00 -0.45593999997E+02  0.45594000000E+02  0.51100000000E-03 0. -1.
    9900012    2    1    2    0    0  0.24446160173E+01  0.12143450982E+02  0.14044278461E+02  0.72461513231E+02  0.69999925664E+02 0.  0.
         12    1    1    2    0    0 -0.24446160173E+01 -0.12143450982E+02 -0.14044278461E+02  0.18726486769E+02  0.00000000000E+00 0. -1.
         11    1    3    3    0    0  0.12522017746E+02  0.83134101079E+01 -0.12614431635E+02  0.19622375029E+02  0.51100000000E-03 0. -1.
        -11    1    3    3    0    0  0.14177254680E+00  0.23472118554E+02  0.13250370378E+02  0.26954271726E+02  0.51100000000E-03 0.  1.
         12    1    3    3    0    0 -0.10219174275E+02 -0.19642077680E+02  0.13408339718E+02  0.25884866476E+02  0.00000000000E+00 0. -1.
</event>
<event>
 7    1  0.1333056E-013  0.7246155E+02  0.7816164E-02  0.1226708E+00
        -11   -1    0    0    0    0  0.00000000000E+00  0.00000000000E+00  0.45593999997E+02  0.45594000000E+02  0.51100000000E-03 0. -1.
         11   -1    0    0    0    0 -0.00000000000E+00 -0.00000000000E+00 -0.45593999997E+02  0.45594000000E+02  0.51100000000E-03 0.  1.
    9900012    2    1    2    0    0 -0.18579537748E+02  0.79210941433E+00  0.22030307786E+01  0.72461547990E+02  0.69999970945E+02 0.  0.
         12    1    1    2    0    0  0.18579537748E+02 -0.79210941433E+00 -0.22030307786E+01  0.18726452010E+02  0.00000000000E+00 0. -1.
         11    1    3    3    0    0 -0.25682925602E+02 -0.16902031891E+02  0.17795301999E+02  0.35524134374E+02  0.51100000000E-03 0. -1.
        -11    1    3    3    0    0  0.58857049137E+01  0.17815894192E+02  0.23891220879E+01  0.18914426050E+02  0.51100000000E-03 0.  1.
         12    1    3    3    0    0  0.12176829403E+01 -0.12175288674E+00 -0.17981393308E+02  0.18022987566E+02  0.00000000000E+00 0. -1.
</event>
<event>
 7    1  0.1333056E-013  0.7246174E+02  0.7816164E-02  0.1226708E+00
        -11   -1    0    0    0    0  0.00000000000E+00  0.00000000000E+00  0.45593999997E+02  0.45594000000E+02  0.51100000000E-03 0.  1.
         11   -1    0    0    0    0 -0.00000000000E+00 -0.00000000000E+00 -0.45593999997E+02  0.45594000000E+02  0.51100000000E-03 0. -1.
    9900012    2    1    2    0    0  0.80707349919E+01  0.16318776154E+02  0.43856202300E+01  0.72461738139E+02  0.70000218649E+02 0.  0.
         12    1    1    2    0    0 -0.80707349919E+01 -0.16318776154E+02 -0.43856202300E+01  0.18726261861E+02  0.00000000000E+00 0. -1.
         11    1    3    3    0    0 -0.19677433946E+02  0.68885233614E+01 -0.94596574690E+01  0.22894066491E+02  0.51100000000E-03 0. -1.
        -11    1    3    3    0    0  0.29269808083E+02  0.96486278859E+01 -0.45106834410E+01  0.31147454963E+02  0.51100000000E-03 0.  1.
         12    1    3    3    0    0 -0.15216391454E+01 -0.21837509346E+00  0.18355961140E+02  0.18420216686E+02  0.00000000000E+00 0. -1.
</event>
<event>
 7    1  0.1333056E-013  0.7246159E+02  0.7816164E-02  0.1226708E+00
        -11   -1    0    0    0    0  0.00000000000E+00  0.00000000000E+00  0.45593999997E+02  0.45594000000E+02  0.51100000000E-03 0.  1.
         11   -1    0    0    0    0 -0.00000000000E+00 -0.00000000000E+00 -0.45593999997E+02  0.45594000000E+02  0.51100000000E-03 0. -1.
    9900012    2    1    2    0    0  0.20467658857E+01  0.91716744444E+01  0.16197826647E+02  0.72461589485E+02  0.70000024999E+02 0.  0.
         12    1    1    2    0    0 -0.20467658857E+01 -0.91716744444E+01 -0.16197826647E+02  0.18726410515E+02  0.00000000000E+00 0. -1.
         11    1    3    3    0    0  0.32403275581E+02  0.85715223819E+01  0.20932035560E+02  0.39517001117E+02  0.51100000000E-03 0.  1.
        -11    1    3    3    0    0 -0.26624590619E+02 -0.30760046730E+01 -0.61908175973E+01  0.27507396336E+02  0.51100000000E-03 0. -1.
        -12    1    3    3    0    0 -0.37319190764E+01  0.36761567355E+01  0.14566086839E+01  0.54371920322E+01  0.00000000000E+00 0.  1.
</event>
<event>
 7    1  0.1333056E-013  0.7246152E+02  0.7816164E-02  0.1226708E+00
        -11   -1    0    0    0    0  0.00000000000E+00  0.00000000000E+00  0.45593999997E+02  0.45594000000E+02  0.51100000000E-03 0. -1.
         11   -1    0    0    0    0 -0.00000000000E+00 -0.00000000000E+00 -0.45593999997E+02  0.45594000000E+02  0.51100000000E-03 0.  1.
    9900012    2    1    2    0    0 -0.46857426909E+01 -0.43686447885E+01 -0.17596580489E+02  0.72461524443E+02  0.69999940271E+02 0.  0.
         12    1    1    2    0    0  0.46857426909E+01  0.43686447885E+01  0.17596580489E+02  0.18726475557E+02  0.00000000000E+00 0. -1.
         11    1    3    3    0    0 -0.14447547323E+00 -0.17353913024E+02 -0.14631628729E+01  0.17416084987E+02  0.51100000000E-03 0. -1.
        -11    1    3    3    0    0  0.23138336328E+02  0.79923108698E+01 -0.83011245470E+01  0.25848951818E+02  0.51100000000E-03 0.  1.
        -12    1    3    3    0    0 -0.27679603546E+02  0.49929573658E+01 -0.78322930694E+01  0.29196487639E+02  0.00000000000E+00 0.  1.
</event>
<event>
 7    1  0.1333056E-013  0.7246160E+02  0.7816164E-02  0.1226708E+00
        -11   -1    0    0    0    0  0.00000000000E+00  0.00000000000E+00  0.45593999997E+02  0.45594000000E+02  0.51100000000E-03 0. -1.
         11   -1    0    0    0    0 -0.00000000000E+00 -0.00000000000E+00 -0.45593999997E+02  0.45594000000E+02  0.51100000000E-03 0.  1.
    9900012    2    1    2    0    0  0.16886259123E+02  0.76903314077E+01  0.25280811446E+01  0.72461597820E+02  0.70000035857E+02 0.  0.
         12    1    1    2    0    0 -0.16886259123E+02 -0.76903314077E+01 -0.25280811446E+01  0.18726402180E+02  0.00000000000E+00 0. -1.
         11    1    3    3    0    0  0.23145734603E+02  0.38773040820E+01  0.22287103422E+01  0.23573834378E+02  0.51100000000E-03 0. -1.
        -11    1    3    3    0    0 -0.47564825327E+01  0.76763168173E+01  0.23575243580E+02  0.25245634793E+02  0.51100000000E-03 0.  1.
        -12    1    3    3    0    0 -0.15029929471E+01 -0.38632894916E+01 -0.23275872778E+02  0.23642128649E+02  0.00000000000E+00 0.  1.
</event>
<event>
 7    1  0.1333056E-013  0.7246157E+02  0.7816164E-02  0.1226708E+00
        -11   -1    0    0    0    0  0.00000000000E+00  0.00000000000E+00  0.45593999997E+02  0.45594000000E+02  0.51100000000E-03 0.  1.
         11   -1    0    0    0    0 -0.00000000000E+00 -0.00000000000E+00 -0.45593999997E+02  0.45594000000E+02  0.51100000000E-03 0. -1.
    9900012    2    1    2    0    0  0.54434439623E+01  0.72721930117E+01  0.16375698094E+02  0.72461565170E+02  0.69999993325E+02 0.  0.
         12    1    1    2    0    0 -0.54434439623E+01 -0.72721930117E+01 -0.16375698094E+02  0.18726434830E+02  0.00000000000E+00 0. -1.
         11    1    3    3    0    0  0.31484600169E+02  0.87084551532E+01  0.10278583536E+01  0.32682927225E+02  0.51100000000E-03 0. -1.
        -11    1    3    3    0    0 -0.22568589356E+02  0.88575454253E+01  0.15743464089E+02  0.28907680610E+02  0.51100000000E-03 0.  1.
         12    1    3    3    0    0 -0.34725668503E+01 -0.10293807567E+02 -0.39562434827E+00  0.10870957335E+02  0.00000000000E+00 0. -1.
</event>
<event>
 7    1  0.1333056E-013  0.7246155E+02  0.7816164E-02  0.1226708E+00
        -11   -1    0    0    0    0  0.00000000000E+00  0.00000000000E+00  0.45593999997E+02  0.45594000000E+02  0.51100000000E-03 0. -1.
         11   -1    0    0    0    0 -0.00000000000E+00 -0.00000000000E+00 -0.45593999997E+02  0.45594000000E+02  0.51100000000E-03 0.  1.
    9900012    2    1    2    0    0  0.12265020501E+02 -0.13973944188E+02  0.22312038930E+01  0.72461545053E+02  0.69999967119E+02 0.  0.
         12    1    1    2    0    0 -0.12265020501E+02  0.13973944188E+02 -0.22312038930E+01  0.18726454947E+02  0.00000000000E+00 0. -1.
         11    1    3    3    0    0  0.80246066647E+01  0.18654486757E+02  0.43177860697E+01  0.20761200955E+02  0.51100000000E-03 0. -1.
        -11    1    3    3    0    0  0.18231900185E+02 -0.21250444385E+02 -0.12732368482E+02  0.30758686226E+02  0.51100000000E-03 0.  1.
         12    1    3    3    0    0 -0.13991486348E+02 -0.11377986560E+02  0.10645786305E+02  0.20941657873E+02  0.00000000000E+00 0. -1.
</event>
<event>
 7    1  0.1333056E-013  0.7246158E+02  0.7816164E-02  0.1226708E+00
        -11   -1    0    0    0    0  0.00000000000E+00  0.00000000000E+00  0.45593999997E+02  0.45594000000E+02  0.51100000000E-03 0.  1.
         11   -1    0    0    0    0 -0.00000000000E+00 -0.00000000000E+00 -0.45593999997E+02  0.45594000000E+02  0.51100000000E-03 0. -1.
    9900012    2    1    2    0    0 -0.18261469006E+02 -0.41080007120E+01 -0.56747599274E+00  0.72461576180E+02  0.70000007667E+02 0.  0.
         12    1    1    2    0    0  0.18261469006E+02  0.41080007120E+01  0.56747599274E+00  0.18726423820E+02  0.00000000000E+00 0. -1.
         11    1    3    3    0    0 -0.48399272490E+01 -0.16235527062E+02  0.12990474835E+02  0.21348762762E+02  0.51100000000E-03 0.  1.
        -11    1    3    3    0    0 -0.11244764477E+02  0.28808619734E+02 -0.25965496103E+01  0.31034228994E+02  0.51100000000E-03 0. -1.
         12    1    3    3    0    0 -0.21767772798E+01 -0.16681093384E+02 -0.10961401217E+02  0.20078584424E+02  0.00000000000E+00 0. -1.
</event>
<event>
 7    1  0.1333056E-013  0.7246160E+02  0.7816164E-02  0.1226708E+00
        -11   -1    0    0    0    0  0.00000000000E+00  0.00000000000E+00  0.45593999997E+02  0.45594000000E+02  0.51100000000E-03 0.  1.
         11   -1    0    0    0    0 -0.00000000000E+00 -0.00000000000E+00 -0.45593999997E+02  0.45594000000E+02  0.51100000000E-03 0. -1.
    9900012    2    1    2    0    0 -0.14804636333E+02 -0.70455163822E+01  0.90477432926E+01  0.72461595734E+02  0.70000033140E+02 0.  0.
         12    1    1    2    0    0  0.14804636333E+02  0.70455163822E+01 -0.90477432926E+01  0.18726404266E+02  0.00000000000E+00 0. -1.
         11    1    3    3    0    0  0.24772449780E+01 -0.14322343071E+00 -0.17938969192E+02  0.18109772819E+02  0.51100000000E-03 0. -1.
        -11    1    3    3    0    0 -0.27088482160E+02 -0.17875945443E+02  0.18988534960E+02  0.37601858350E+02  0.51100000000E-03 0.  1.
        -12    1    3    3    0    0  0.98066008487E+01  0.10973652492E+02  0.79981775248E+01  0.16749964565E+02  0.00000000000E+00 0.  1.
</event>
<event>
 7    1  0.1333056E-013  0.7246159E+02  0.7816164E-02  0.1226708E+00
        -11   -1    0    0    0    0  0.00000000000E+00  0.00000000000E+00  0.45593999997E+02  0.45594000000E+02  0.51100000000E-03 0. -1.
         11   -1    0    0    0    0 -0.00000000000E+00 -0.00000000000E+00 -0.45593999997E+02  0.45594000000E+02  0.51100000000E-03 0.  1.
    9900012    2    1    2    0    0  0.13986739854E+02 -0.15565004768E+01 -0.12354228026E+02  0.72461587220E+02  0.70000022049E+02 0.  0.
         12    1    1    2    0    0 -0.13986739854E+02  0.15565004768E+01  0.12354228026E+02  0.18726412780E+02  0.00000000000E+00 0. -1.
         11    1    3    3    0    0 -0.23272244666E+02  0.10335052332E+02 -0.42579019516E+00  0.25467468976E+02  0.51100000000E-03 0. -1.
        -11    1    3    3    0    0  0.64541437566E+01 -0.13071631432E+02 -0.48573081625E+01  0.15366097838E+02  0.51100000000E-03 0.  1.
         12    1    3    3    0    0  0.30804840763E+02  0.11800786228E+01 -0.70711296683E+01  0.31628020406E+02  0.00000000000E+00 0. -1.
</event>
<event>
 7    1  0.1333056E-013  0.7246159E+02  0.7816164E-02  0.1226708E+00
        -11   -1    0    0    0    0  0.00000000000E+00  0.00000000000E+00  0.45593999997E+02  0.45594000000E+02  0.51100000000E-03 0. -1.
         11   -1    0    0    0    0 -0.00000000000E+00 -0.00000000000E+00 -0.45593999997E+02  0.45594000000E+02  0.51100000000E-03 0.  1.
    9900012    2    1    2    0    0  0.13180236315E+01 -0.12379062770E+02 -0.13989279260E+02  0.72461593095E+02  0.70000029703E+02 0.  0.
         12    1    1    2    0    0 -0.13180236315E+01  0.12379062770E+02  0.13989279260E+02  0.18726406905E+02  0.00000000000E+00 0. -1.
         11    1    3    3    0    0  0.15623245648E+02 -0.24946992685E+01  0.14155968960E+02  0.21229714705E+02  0.51100000000E-03 0. -1.
        -11    1    3    3    0    0 -0.18757935980E+02 -0.71264793703E+01 -0.36336717777E+02  0.41509082494E+02  0.51100000000E-03 0.  1.
        -12    1    3    3    0    0  0.44527139634E+01 -0.27578841308E+01  0.81914695576E+01  0.97227958958E+01  0.00000000000E+00 0.  1.
</event>
<event>
 7    1  0.1333056E-013  0.7246165E+02  0.7816164E-02  0.1226708E+00
        -11   -1    0    0    0    0  0.00000000000E+00  0.00000000000E+00  0.45593999997E+02  0.45594000000E+02  0.51100000000E-03 0.  1.
         11   -1    0    0    0    0 -0.00000000000E+00 -0.00000000000E+00 -0.45593999997E+02  0.45594000000E+02  0.51100000000E-03 0. -1.
    9900012    2    1    2    0    0 -0.18073875617E+01  0.10837556837E+02 -0.15164327394E+02  0.72461651896E+02  0.70000106301E+02 0.  0.
         12    1    1    2    0    0  0.18073875617E+01 -0.10837556837E+02  0.15164327394E+02  0.18726348104E+02  0.00000000000E+00 0. -1.
         11    1    3    3    0    0  0.86083714615E+01  0.17220406205E+02  0.19939729306E+01  0.19355164102E+02  0.51100000000E-03 0. -1.
        -11    1    3    3    0    0 -0.28633500194E+02 -0.85521177176E+01 -0.32008192569E+01  0.30054305765E+02  0.51100000000E-03 0.  1.
        -12    1    3    3    0    0  0.18217741171E+02  0.21692683495E+01 -0.13957481068E+02  0.23052182029E+02  0.00000000000E+00 0.  1.
</event>
<event>
 7    1  0.1333056E-013  0.7246153E+02  0.7816164E-02  0.1226708E+00
        -11   -1    0    0    0    0  0.00000000000E+00  0.00000000000E+00  0.45593999997E+02  0.45594000000E+02  0.51100000000E-03 0. -1.
         11   -1    0    0    0    0 -0.00000000000E+00 -0.00000000000E+00 -0.45593999997E+02  0.45594000000E+02  0.51100000000E-03 0.  1.
    9900012    2    1    2    0    0  0.28116081092E+01 -0.18290661723E+02 -0.28683156401E+01  0.72461529937E+02  0.69999947427E+02 0.  0.
         12    1    1    2    0    0 -0.28116081092E+01  0.18290661723E+02  0.28683156401E+01  0.18726470063E+02  0.00000000000E+00 0. -1.
         11    1    3    3    0    0  0.14314304583E+02 -0.34499418582E+02  0.48754598650E+00  0.37354342445E+02  0.51100000000E-03 0. -1.
        -11    1    3    3    0    0 -0.54644415843E+01  0.23803366271E+02  0.10633273706E+01  0.24445675140E+02  0.51100000000E-03 0.  1.
         12    1    3    3    0    0 -0.60382548896E+01 -0.75946094122E+01 -0.44191889972E+01  0.10661512352E+02  0.00000000000E+00 0. -1.
</event>
<event>
 7    1  0.1333056E-013  0.7246188E+02  0.7816164E-02  0.1226707E+00
        -11   -1    0    0    0    0  0.00000000000E+00  0.00000000000E+00  0.45593999997E+02  0.45594000000E+02  0.51100000000E-03 0.  1.
         11   -1    0    0    0    0 -0.00000000000E+00 -0.00000000000E+00 -0.45593999997E+02  0.45594000000E+02  0.51100000000E-03 0. -1.
    9900012    2    1    2    0    0 -0.16263306596E+02  0.80550524785E+01  0.46139588648E+01  0.72461878451E+02  0.70000401430E+02 0.  0.
         12    1    1    2    0    0  0.16263306596E+02 -0.80550524785E+01 -0.46139588648E+01  0.18726121549E+02  0.00000000000E+00 0. -1.
         11    1    3    3    0    0  0.37273344144E+01  0.71809046687E+01 -0.70314775702E+01  0.10719145991E+02  0.51100000000E-03 0. -1.
        -11    1    3    3    0    0 -0.12597634554E+02 -0.12013343933E+02  0.32067696499E+02  0.36487778609E+02  0.51100000000E-03 0.  1.
        -12    1    3    3    0    0 -0.73930064559E+01  0.12887491743E+02 -0.20422260064E+02  0.25254953851E+02  0.00000000000E+00 0.  1.
</event>
<event>
 7    1  0.1333056E-013  0.7246163E+02  0.7816164E-02  0.1226708E+00
        -11   -1    0    0    0    0  0.00000000000E+00  0.00000000000E+00  0.45593999997E+02  0.45594000000E+02  0.51100000000E-03 0.  1.
         11   -1    0    0    0    0 -0.00000000000E+00 -0.00000000000E+00 -0.45593999997E+02  0.45594000000E+02  0.51100000000E-03 0. -1.
    9900012    2    1    2    0    0 -0.75962991340E+01 -0.45810547494E+01  0.16492028853E+02  0.72461632525E+02  0.70000081066E+02 0.  0.
         12    1    1    2    0    0  0.75962991340E+01  0.45810547494E+01 -0.16492028853E+02  0.18726367475E+02  0.00000000000E+00 0. -1.
         11    1    3    3    0    0  0.16702018210E+02  0.10872087730E+02  0.23025182277E+02  0.30451908365E+02  0.51100000000E-03 0.  1.
        -11    1    3    3    0    0 -0.59718983867E+01 -0.17563554278E+02 -0.12786875021E+02  0.22531004911E+02  0.51100000000E-03 0. -1.
        -12    1    3    3    0    0 -0.18326418958E+02  0.21104117988E+01  0.62537215966E+01  0.19478719249E+02  0.00000000000E+00 0.  1.
</event>
<event>
 7    1  0.1333056E-013  0.7246153E+02  0.7816164E-02  0.1226708E+00
        -11   -1    0    0    0    0  0.00000000000E+00  0.00000000000E+00  0.45593999997E+02  0.45594000000E+02  0.51100000000E-03 0. -1.
         11   -1    0    0    0    0 -0.00000000000E+00 -0.00000000000E+00 -0.45593999997E+02  0.45594000000E+02  0.51100000000E-03 0.  1.
    9900012    2    1    2    0    0  0.16907872797E+02 -0.23959270701E+01 -0.76853101736E+01  0.72461531526E+02  0.69999949496E+02 0.  0.
         12    1    1    2    0    0 -0.16907872797E+02  0.23959270701E+01  0.76853101736E+01  0.18726468474E+02  0.00000000000E+00 0. -1.
         11    1    3    3    0    0  0.43967472144E+02  0.32712537951E+01 -0.60807135479E+01  0.44506345454E+02  0.51100000000E-03 0. -1.
        -11    1    3    3    0    0 -0.13955267463E+02 -0.16759016645E+01 -0.22828917036E+01  0.14239723704E+02  0.51100000000E-03 0.  1.
         12    1    3    3    0    0 -0.13104331883E+02 -0.39912792007E+01  0.67829507798E+00  0.13715462368E+02  0.00000000000E+00 0. -1.
</event>
<event>
 7    1  0.1333056E-013  0.7246156E+02  0.7816164E-02  0.1226708E+00
        -11   -1    0    0    0    0  0.00000000000E+00  0.00000000000E+00  0.45593999997E+02  0.45594000000E+02  0.51100000000E-03 0.  1.
         11   -1    0    0    0    0 -0.00000000000E+00 -0.00000000000E+00 -0.45593999997E+02  0.45594000000E+02  0.51100000000E-03 0. -1.
    9900012    2    1    2    0    0 -0.72615386812E+01  0.15642505987E+02 -0.72980573109E+01  0.72461559385E+02  0.69999985789E+02 0.  0.
         12    1    1    2    0    0  0.72615386812E+01 -0.15642505987E+02  0.72980573109E+01  0.18726440615E+02  0.00000000000E+00 0. -1.
         11    1    3    3    0    0 -0.23705172306E+02 -0.71202702357E+01  0.19914690132E+02  0.31768354153E+02  0.51100000000E-03 0. -1.
        -11    1    3    3    0    0  0.60318390544E+01  0.75340543669E+01 -0.27140166831E+01  0.10025514670E+02  0.51100000000E-03 0.  1.
         12    1    3    3    0    0  0.10411794570E+02  0.15228721856E+02 -0.24498730760E+02  0.30667690562E+02  0.00000000000E+00 0. -1.
</event>
<event>
 7    1  0.1333056E-013  0.7246145E+02  0.7816164E-02  0.1226708E+00
        -11   -1    0    0    0    0  0.00000000000E+00  0.00000000000E+00  0.45593999997E+02  0.45594000000E+02  0.51100000000E-03 0.  1.
         11   -1    0    0    0    0 -0.00000000000E+00 -0.00000000000E+00 -0.45593999997E+02  0.45594000000E+02  0.51100000000E-03 0. -1.
    9900012    2    1    2    0    0  0.44081297868E+01 -0.79871415292E+01  0.16354128145E+02  0.72461453458E+02  0.69999847798E+02 0.  0.
         12    1    1    2    0    0 -0.44081297868E+01  0.79871415292E+01 -0.16354128145E+02  0.18726546542E+02  0.00000000000E+00 0. -1.
         11    1    3    3    0    0  0.13795021227E+02 -0.23243429534E+02  0.35799526353E+01  0.27264916803E+02  0.51100000000E-03 0. -1.
        -11    1    3    3    0    0 -0.19835941563E+02  0.14468427408E+02  0.20655278031E+02  0.32084894891E+02  0.51100000000E-03 0.  1.
         12    1    3    3    0    0  0.10449050123E+02  0.78786059706E+00 -0.78811025213E+01  0.13111641764E+02  0.00000000000E+00 0. -1.
</event>
<event>
 7    1  0.1333056E-013  0.7246166E+02  0.7816164E-02  0.1226708E+00
        -11   -1    0    0    0    0  0.00000000000E+00  0.00000000000E+00  0.45593999997E+02  0.45594000000E+02  0.51100000000E-03 0.  1.
         11   -1    0    0    0    0 -0.00000000000E+00 -0.00000000000E+00 -0.45593999997E+02  0.45594000000E+02  0.51100000000E-03 0. -1.
    9900012    2    1    2    0    0 -0.13260211774E+02 -0.11924999893E+02 -0.57128799568E+01  0.72461659297E+02  0.70000115942E+02 0.  0.
         12    1    1    2    0    0  0.13260211774E+02  0.11924999893E+02  0.57128799568E+01  0.18726340703E+02  0.00000000000E+00 0. -1.
         11    1    3    3    0    0 -0.71397177225E+01  0.16178972602E+01 -0.13568339909E+02  0.15417295770E+02  0.51100000000E-03 0. -1.
        -11    1    3    3    0    0 -0.14438643277E+02  0.12188070920E+02  0.19899804255E+02  0.27441313782E+02  0.51100000000E-03 0.  1.
        -12    1    3    3    0    0  0.83181492259E+01 -0.25730968073E+02 -0.12044344302E+02  0.29603049745E+02  0.00000000000E+00 0.  1.
</event>
<event>
 7    1  0.1333056E-013  0.7246145E+02  0.7816164E-02  0.1226708E+00
        -11   -1    0    0    0    0  0.00000000000E+00  0.00000000000E+00  0.45593999997E+02  0.45594000000E+02  0.51100000000E-03 0.  1.
         11   -1    0    0    0    0 -0.00000000000E+00 -0.00000000000E+00 -0.45593999997E+02  0.45594000000E+02  0.51100000000E-03 0. -1.
    9900012    2    1    2    0    0  0.13017551019E+02  0.25324232271E+01  0.13221715406E+02  0.72461453062E+02  0.69999847283E+02 0.  0.
         12    1    1    2    0    0 -0.13017551019E+02 -0.25324232271E+01 -0.13221715406E+02  0.18726546938E+02  0.00000000000E+00 0. -1.
         11    1    3    3    0    0 -0.19509721897E+02  0.65134668408E+01 -0.35399443605E+01  0.20870690097E+02  0.51100000000E-03 0. -1.
        -11    1    3    3    0    0  0.35652721457E+02  0.78659838183E+01  0.11767663664E+02  0.38359720503E+02  0.51100000000E-03 0.  1.
         12    1    3    3    0    0 -0.31254485410E+01 -0.11847027432E+02  0.49939961023E+01  0.13231042462E+02  0.00000000000E+00 0. -1.
</event>
<event>
 7    1  0.1333056E-013  0.7246156E+02  0.7816164E-02  0.1226708E+00
        -11   -1    0    0    0    0  0.00000000000E+00  0.00000000000E+00  0.45593999997E+02  0.45594000000E+02  0.51100000000E-03 0. -1.
         11   -1    0    0    0    0 -0.00000000000E+00 -0.00000000000E+00 -0.45593999997E+02  0.45594000000E+02  0.51100000000E-03 0.  1.
    9900012    2    1    2    0    0  0.11123879417E+02 -0.76627458676E+01 -0.12970008676E+02  0.72461561669E+02  0.69999988764E+02 0.  0.
         12    1    1    2    0    0 -0.11123879417E+02  0.76627458676E+01  0.12970008676E+02  0.18726438331E+02  0.00000000000E+00 0. -1.
         11    1    3    3    0    0  0.49612272463E+01 -0.18057005766E+02 -0.25850190930E+02  0.31920238164E+02  0.51100000000E-03 0. -1.
        -11    1    3    3    0    0  0.19143287561E+02  0.38665651312E+01 -0.21362120445E+01  0.19646353013E+02  0.51100000000E-03 0.  1.
         12    1    3    3    0    0 -0.12980635391E+02  0.65276947671E+01  0.15016394299E+02  0.20894970492E+02  0.00000000000E+00 0. -1.
</event>
<event>
 7    1  0.1333056E-013  0.7246155E+02  0.7816164E-02  0.1226708E+00
        -11   -1    0    0    0    0  0.00000000000E+00  0.00000000000E+00  0.45593999997E+02  0.45594000000E+02  0.51100000000E-03 0.  1.
         11   -1    0    0    0    0 -0.00000000000E+00 -0.00000000000E+00 -0.45593999997E+02  0.45594000000E+02  0.51100000000E-03 0. -1.
    9900012    2    1    2    0    0 -0.22274118211E+01  0.87287324115E+01  0.16417298251E+02  0.72461553066E+02  0.69999977556E+02 0.  0.
         12    1    1    2    0    0  0.22274118211E+01 -0.87287324115E+01 -0.16417298251E+02  0.18726446934E+02  0.00000000000E+00 0. -1.
         11    1    3    3    0    0  0.14339681033E+02 -0.16543340875E+02  0.30735197421E+02  0.37735406984E+02  0.51100000000E-03 0.  1.
        -11    1    3    3    0    0 -0.80067717923E+01  0.19820260910E+02 -0.11053309392E+02  0.24065053207E+02  0.51100000000E-03 0. -1.
        -12    1    3    3    0    0 -0.85603210618E+01  0.54518123768E+01 -0.32645897787E+01  0.10661092875E+02  0.00000000000E+00 0.  1.
</event>
<event>
 7    1  0.1333056E-013  0.7246156E+02  0.7816164E-02  0.1226708E+00
        -11   -1    0    0    0    0  0.00000000000E+00  0.00000000000E+00  0.45593999997E+02  0.45594000000E+02  0.51100000000E-03 0.  1.
         11   -1    0    0    0    0 -0.00000000000E+00 -0.00000000000E+00 -0.45593999997E+02  0.45594000000E+02  0.51100000000E-03 0. -1.
    9900012    2    1    2    0    0  0.10801732334E+02  0.14220142138E+02  0.56382358116E+01  0.72461559684E+02  0.69999986179E+02 0.  0.
         12    1    1    2    0    0 -0.10801732334E+02 -0.14220142138E+02 -0.56382358116E+01  0.18726440316E+02  0.00000000000E+00 0. -1.
         11    1    3    3    0    0  0.57637524235E+01  0.27126910891E+02  0.13205903464E+02  0.30716217590E+02  0.51100000000E-03 0.  1.
        -11    1    3    3    0    0 -0.63373075268E+01 -0.11830298533E+02 -0.20491190432E+02  0.24495026345E+02  0.51100000000E-03 0. -1.
         12    1    3    3    0    0  0.11375287437E+02 -0.10764702210E+01  0.12923522780E+02  0.17250315749E+02  0.00000000000E+00 0. -1.
</event>
<event>
 7    1  0.1333056E-013  0.7246170E+02  0.7816164E-02  0.1226708E+00
        -11   -1    0    0    0    0  0.00000000000E+00  0.00000000000E+00  0.45593999997E+02  0.45594000000E+02  0.51100000000E-03 0.  1.
         11   -1    0    0    0    0 -0.00000000000E+00 -0.00000000000E+00 -0.45593999997E+02  0.45594000000E+02  0.51100000000E-03 0. -1.
    9900012    2    1    2    0    0 -0.18497608785E+01  0.57828629175E+01  0.17714714524E+02  0.72461702194E+02  0.70000171824E+02 0.  0.
         12    1    1    2    0    0  0.18497608785E+01 -0.57828629175E+01 -0.17714714524E+02  0.18726297806E+02  0.00000000000E+00 0. -1.
         11    1    3    3    0    0 -0.18825615209E+02 -0.24557857405E+02 -0.15508926655E+00  0.30943758680E+02  0.51100000000E-03 0. -1.
        -11    1    3    3    0    0  0.13759606522E+02  0.10613187509E+02  0.67267441159E+01  0.18633722318E+02  0.51100000000E-03 0.  1.
         12    1    3    3    0    0  0.32162478082E+01  0.19727532813E+02  0.11143059675E+02  0.22884221197E+02  0.00000000000E+00 0. -1.
</event>
<event>
 7    1  0.1333056E-013  0.7246164E+02  0.7816164E-02  0.1226708E+00
        -11   -1    0    0    0    0  0.00000000000E+00  0.00000000000E+00  0.45593999997E+02  0.45594000000E+02  0.51100000000E-03 0.  1.
         11   -1    0    0    0    0 -0.00000000000E+00 -0.00000000000E+00 -0.45593999997E+02  0.45594000000E+02  0.51100000000E-03 0. -1.
    9900012    2    1    2    0    0 -0.84450102357E+01 -0.31562352040E+01  0.16413304499E+02  0.72461639352E+02  0.70000089960E+02 0.  0.
         12    1    1    2    0    0  0.84450102357E+01  0.31562352040E+01 -0.16413304499E+02  0.18726360648E+02  0.00000000000E+00 0. -1.
         11    1    3    3    0    0  0.14630518592E+02  0.12316778584E+02 -0.26180441153E+01  0.19303089499E+02  0.51100000000E-03 0. -1.
        -11    1    3    3    0    0 -0.22187691624E+02  0.42835891095E+01  0.23796108491E+02  0.32816117608E+02  0.51100000000E-03 0.  1.
         12    1    3    3    0    0 -0.88783720281E+00 -0.19756602898E+02 -0.47647598763E+01  0.20342432245E+02  0.00000000000E+00 0. -1.
</event>
<event>
 7    1  0.1333056E-013  0.7246159E+02  0.7816164E-02  0.1226708E+00
        -11   -1    0    0    0    0  0.00000000000E+00  0.00000000000E+00  0.45593999997E+02  0.45594000000E+02  0.51100000000E-03 0. -1.
         11   -1    0    0    0    0 -0.00000000000E+00 -0.00000000000E+00 -0.45593999997E+02  0.45594000000E+02  0.51100000000E-03 0.  1.
    9900012    2    1    2    0    0 -0.13195433748E+02 -0.10302087502E+02 -0.83920126892E+01  0.72461592025E+02  0.70000028308E+02 0.  0.
         12    1    1    2    0    0  0.13195433748E+02  0.10302087502E+02  0.83920126892E+01  0.18726407975E+02  0.00000000000E+00 0. -1.
         11    1    3    3    0    0 -0.36358706304E+01  0.12562362715E+02  0.10764912421E+02  0.16938590612E+02  0.51100000000E-03 0. -1.
        -11    1    3    3    0    0  0.88679829137E+00 -0.30627648754E+02 -0.26560071836E+02  0.40549681819E+02  0.51100000000E-03 0.  1.
        -12    1    3    3    0    0 -0.10446361409E+02  0.77631985374E+01  0.74031467262E+01  0.14973319594E+02  0.00000000000E+00 0.  1.
</event>
<event>
 7    1  0.1333056E-013  0.7246153E+02  0.7816164E-02  0.1226708E+00
        -11   -1    0    0    0    0  0.00000000000E+00  0.00000000000E+00  0.45593999997E+02  0.45594000000E+02  0.51100000000E-03 0.  1.
         11   -1    0    0    0    0 -0.00000000000E+00 -0.00000000000E+00 -0.45593999997E+02  0.45594000000E+02  0.51100000000E-03 0. -1.
    9900012    2    1    2    0    0  0.15328633248E+02 -0.10442590419E+02  0.25818573911E+01  0.72461529978E+02  0.69999947481E+02 0.  0.
         12    1    1    2    0    0 -0.15328633248E+02  0.10442590419E+02 -0.25818573911E+01  0.18726470022E+02  0.00000000000E+00 0. -1.
         11    1    3    3    0    0  0.19864825487E+02  0.78629167588E+01 -0.14901348706E+02  0.26047781961E+02  0.51100000000E-03 0. -1.
        -11    1    3    3    0    0  0.13781358124E+02 -0.17100770941E+02  0.17458836874E+02  0.28056606776E+02  0.51100000000E-03 0.  1.
         12    1    3    3    0    0 -0.18317550363E+02 -0.12047362360E+01  0.24369222636E-01  0.18357141241E+02  0.00000000000E+00 0. -1.
</event>
<event>
 7    1  0.1333056E-013  0.7246155E+02  0.7816164E-02  0.1226708E+00
        -11   -1    0    0    0    0  0.00000000000E+00  0.00000000000E+00  0.45593999997E+02  0.45594000000E+02  0.51100000000E-03 0.  1.
         11   -1    0    0    0    0 -0.00000000000E+00 -0.00000000000E+00 -0.45593999997E+02  0.45594000000E+02  0.51100000000E-03 0. -1.
    9900012    2    1    2    0    0 -0.96916982445E+01 -0.10660458120E+02  0.11962668524E+02  0.72461552915E+02  0.69999977361E+02 0.  0.
         12    1    1    2    0    0  0.96916982445E+01  0.10660458120E+02 -0.11962668524E+02  0.18726447085E+02  0.00000000000E+00 0. -1.
         11    1    3    3    0    0 -0.18661574606E+02  0.44063348787E+01 -0.15842358997E+02  0.24872685675E+02  0.51100000000E-03 0. -1.
        -11    1    3    3    0    0  0.17824989354E+01 -0.11665830351E+02  0.34956347018E+02  0.36894648627E+02  0.51100000000E-03 0.  1.
        -12    1    3    3    0    0  0.71873774262E+01 -0.34009626485E+01 -0.71513194970E+01  0.10694218613E+02  0.00000000000E+00 0.  1.
</event>
<event>
 7    1  0.1333056E-013  0.7246159E+02  0.7816164E-02  0.1226708E+00
        -11   -1    0    0    0    0  0.00000000000E+00  0.00000000000E+00  0.45593999997E+02  0.45594000000E+02  0.51100000000E-03 0. -1.
         11   -1    0    0    0    0 -0.00000000000E+00 -0.00000000000E+00 -0.45593999997E+02  0.45594000000E+02  0.51100000000E-03 0.  1.
    9900012    2    1    2    0    0  0.12528510266E+02  0.32994371364E+01 -0.13521407581E+02  0.72461593034E+02  0.70000029622E+02 0.  0.
         12    1    1    2    0    0 -0.12528510266E+02 -0.32994371364E+01  0.13521407581E+02  0.18726406966E+02  0.00000000000E+00 0. -1.
         11    1    3    3    0    0 -0.16397171421E+02  0.33256562114E+01 -0.17730733930E+02  0.24378395062E+02  0.51100000000E-03 0.  1.
        -11    1    3    3    0    0  0.25233765363E+02  0.16455343138E+02  0.70928425002E+01  0.30948823034E+02  0.51100000000E-03 0. -1.
         12    1    3    3    0    0  0.36919163235E+01 -0.16481562213E+02 -0.28835161515E+01  0.17134374938E+02  0.00000000000E+00 0. -1.
</event>
<event>
 7    1  0.1333056E-013  0.7246158E+02  0.7816164E-02  0.1226708E+00
        -11   -1    0    0    0    0  0.00000000000E+00  0.00000000000E+00  0.45593999997E+02  0.45594000000E+02  0.51100000000E-03 0. -1.
         11   -1    0    0    0    0 -0.00000000000E+00 -0.00000000000E+00 -0.45593999997E+02  0.45594000000E+02  0.51100000000E-03 0.  1.
    9900012    2    1    2    0    0  0.13314906512E+02  0.11488218786E+02 -0.64352800995E+01  0.72461581863E+02  0.70000015070E+02 0.  0.
         12    1    1    2    0    0 -0.13314906512E+02 -0.11488218786E+02  0.64352800995E+01  0.18726418137E+02  0.00000000000E+00 0. -1.
         11    1    3    3    0    0  0.34136495637E+02  0.71933867673E+01  0.50043908957E+00  0.34889763357E+02  0.51100000000E-03 0.  1.
        -11    1    3    3    0    0 -0.17666854973E+02 -0.95099263980E+00  0.94656175716E+01  0.20065394785E+02  0.51100000000E-03 0. -1.
         12    1    3    3    0    0 -0.31547341526E+01  0.52458246584E+01 -0.16401336761E+02  0.17506423720E+02  0.00000000000E+00 0. -1.
</event>
<event>
 8    1  0.1333056E-013  0.7246157E+02  0.7816164E-02  0.1226708E+00
        -11   -1    0    0    0    0  0.00000000000E+00  0.00000000000E+00  0.45593999997E+02  0.45594000000E+02  0.51100000000E-03 0.  1.
         11   -1    0    0    0    0 -0.00000000000E+00 -0.00000000000E+00 -0.45593999997E+02  0.45594000000E+02  0.51100000000E-03 0. -1.
    9900012    2    1    2    0    0  0.16378689101E+02 -0.27402058936E+00  0.90742882160E+01  0.72461568130E+02  0.69999997181E+02 0.  0.
        -24    2    3    3    0    0  0.84183848884E+01 -0.11610318702E+02 -0.57739736589E+01  0.52155190338E+02  0.49811207603E+02 0.  0.
         12    1    1    2    0    0 -0.16378689101E+02  0.27402058936E+00 -0.90742882160E+01  0.18726431870E+02  0.00000000000E+00 0. -1.
         11    1    4    4    0    0 -0.14460165469E+02 -0.76830585928E+01 -0.19282914161E+02  0.25297362580E+02  0.51100000000E-03 0. -1.
        -11    1    3    3    0    0  0.79603042125E+01  0.11336298113E+02  0.14848261875E+02  0.20306377792E+02  0.51100000000E-03 0.  1.
        -12    1    4    4    0    0  0.22878550357E+02 -0.39272601096E+01  0.13508940502E+02  0.26857827758E+02  0.00000000000E+00 0.  1.
</event>
<event>
 7    1  0.1333056E-013  0.7246160E+02  0.7816164E-02  0.1226708E+00
        -11   -1    0    0    0    0  0.00000000000E+00  0.00000000000E+00  0.45593999997E+02  0.45594000000E+02  0.51100000000E-03 0.  1.
         11   -1    0    0    0    0 -0.00000000000E+00 -0.00000000000E+00 -0.45593999997E+02  0.45594000000E+02  0.51100000000E-03 0. -1.
    9900012    2    1    2    0    0 -0.16753041373E+02 -0.44479058926E+01 -0.70873005463E+01  0.72461599088E+02  0.70000037509E+02 0.  0.
         12    1    1    2    0    0  0.16753041373E+02  0.44479058926E+01  0.70873005463E+01  0.18726400912E+02  0.00000000000E+00 0. -1.
         11    1    3    3    0    0  0.15785737545E+02  0.21115261070E+01 -0.12696976054E+02  0.20368143104E+02  0.51100000000E-03 0. -1.
        -11    1    3    3    0    0 -0.38673571688E+02  0.46893148544E+01  0.48576430782E+01  0.39258521590E+02  0.51100000000E-03 0.  1.
        -12    1    3    3    0    0  0.61347927697E+01 -0.11248746854E+02  0.75203242920E+00  0.12834934394E+02  0.00000000000E+00 0.  1.
</event>
<event>
 7    1  0.1333056E-013  0.7246158E+02  0.7816164E-02  0.1226708E+00
        -11   -1    0    0    0    0  0.00000000000E+00  0.00000000000E+00  0.45593999997E+02  0.45594000000E+02  0.51100000000E-03 0.  1.
         11   -1    0    0    0    0 -0.00000000000E+00 -0.00000000000E+00 -0.45593999997E+02  0.45594000000E+02  0.51100000000E-03 0. -1.
    9900012    2    1    2    0    0 -0.77843532362E+00 -0.18704000603E+02  0.48275547114E+00  0.72461584087E+02  0.70000017968E+02 0.  0.
         12    1    1    2    0    0  0.77843532362E+00  0.18704000603E+02 -0.48275547114E+00  0.18726415913E+02  0.00000000000E+00 0. -1.
         11    1    3    3    0    0  0.21782432904E+02 -0.37715414087E+01  0.17966026160E+02  0.28486435440E+02  0.51100000000E-03 0. -1.
        -11    1    3    3    0    0 -0.15108673241E+01 -0.18871492990E+02 -0.79329272349E+01  0.20526746029E+02  0.51100000000E-03 0.  1.
         12    1    3    3    0    0 -0.21050000903E+02  0.39390337967E+01 -0.95503434539E+01  0.23448402619E+02  0.00000000000E+00 0. -1.
</event>
<event>
 7    1  0.1333056E-013  0.7246154E+02  0.7816164E-02  0.1226708E+00
        -11   -1    0    0    0    0  0.00000000000E+00  0.00000000000E+00  0.45593999997E+02  0.45594000000E+02  0.51100000000E-03 0. -1.
         11   -1    0    0    0    0 -0.00000000000E+00 -0.00000000000E+00 -0.45593999997E+02  0.45594000000E+02  0.51100000000E-03 0.  1.
    9900012    2    1    2    0    0 -0.42223904032E+01  0.44443644228E+01 -0.17694612303E+02  0.72461541168E+02  0.69999962057E+02 0.  0.
         12    1    1    2    0    0  0.42223904032E+01 -0.44443644228E+01  0.17694612303E+02  0.18726458832E+02  0.00000000000E+00 0. -1.
         11    1    3    3    0    0 -0.31495207993E+02  0.46758390730E+01  0.19348258177E+01  0.31899140251E+02  0.51100000000E-03 0. -1.
        -11    1    3    3    0    0  0.19759453556E+02 -0.10188802534E+02 -0.16545677606E+02  0.27712941915E+02  0.51100000000E-03 0.  1.
        -12    1    3    3    0    0  0.75133640344E+01  0.99573278843E+01 -0.30837605152E+01  0.12849459001E+02  0.00000000000E+00 0.  1.
</event>
<event>
 7    1  0.1333056E-013  0.7246156E+02  0.7816164E-02  0.1226708E+00
        -11   -1    0    0    0    0  0.00000000000E+00  0.00000000000E+00  0.45593999997E+02  0.45594000000E+02  0.51100000000E-03 0.  1.
         11   -1    0    0    0    0 -0.00000000000E+00 -0.00000000000E+00 -0.45593999997E+02  0.45594000000E+02  0.51100000000E-03 0. -1.
    9900012    2    1    2    0    0  0.18988209304E+01 -0.12452393764E+02  0.13856835804E+02  0.72461560673E+02  0.69999987466E+02 0.  0.
         12    1    1    2    0    0 -0.18988209304E+01  0.12452393764E+02 -0.13856835804E+02  0.18726439327E+02  0.00000000000E+00 0. -1.
         11    1    3    3    0    0 -0.13361236246E+01 -0.22395400171E+02 -0.66456219141E+01  0.23398791978E+02  0.51100000000E-03 0. -1.
        -11    1    3    3    0    0  0.23259233098E+02  0.50495232412E+01  0.13046549210E+02  0.27142255909E+02  0.51100000000E-03 0.  1.
        -12    1    3    3    0    0 -0.20024288543E+02  0.48934831658E+01  0.74559085079E+01  0.21920512786E+02  0.00000000000E+00 0.  1.
</event>
<event>
 7    1  0.1333056E-013  0.7246160E+02  0.7816164E-02  0.1226708E+00
        -11   -1    0    0    0    0  0.00000000000E+00  0.00000000000E+00  0.45593999997E+02  0.45594000000E+02  0.51100000000E-03 0.  1.
         11   -1    0    0    0    0 -0.00000000000E+00 -0.00000000000E+00 -0.45593999997E+02  0.45594000000E+02  0.51100000000E-03 0. -1.
    9900012    2    1    2    0    0  0.96081187160E+01  0.57097870590E+00  0.16063497320E+02  0.72461603975E+02  0.70000043875E+02 0.  0.
         12    1    1    2    0    0 -0.96081187160E+01 -0.57097870590E+00 -0.16063497320E+02  0.18726396025E+02  0.00000000000E+00 0. -1.
         11    1    3    3    0    0 -0.23778612191E+01 -0.43737737219E+01 -0.21271882545E+02  0.21846672694E+02  0.51100000000E-03 0. -1.
        -11    1    3    3    0    0 -0.38614675077E+01 -0.68048130878E+01  0.27460717790E+02  0.28553588816E+02  0.51100000000E-03 0.  1.
         12    1    3    3    0    0  0.15847447443E+02  0.11749565516E+02  0.98746620740E+01  0.22061342464E+02  0.00000000000E+00 0. -1.
</event>
<event>
 7    1  0.1333056E-013  0.7246151E+02  0.7816164E-02  0.1226708E+00
        -11   -1    0    0    0    0  0.00000000000E+00  0.00000000000E+00  0.45593999997E+02  0.45594000000E+02  0.51100000000E-03 0.  1.
         11   -1    0    0    0    0 -0.00000000000E+00 -0.00000000000E+00 -0.45593999997E+02  0.45594000000E+02  0.51100000000E-03 0. -1.
    9900012    2    1    2    0    0  0.11363759499E+02 -0.61346433499E+01  0.13561438702E+02  0.72461508106E+02  0.69999918988E+02 0.  0.
         12    1    1    2    0    0 -0.11363759499E+02  0.61346433499E+01 -0.13561438702E+02  0.18726491894E+02  0.00000000000E+00 0. -1.
         11    1    3    3    0    0  0.53811096775E+01 -0.27875554054E+00 -0.14147008358E+02  0.15138424348E+02  0.51100000000E-03 0. -1.
        -11    1    3    3    0    0  0.19249299724E+02  0.14389466887E+02  0.59096249351E+01  0.24749059867E+02  0.51100000000E-03 0.  1.
        -12    1    3    3    0    0 -0.13266649903E+02 -0.20245354696E+02  0.21798822124E+02  0.32574023891E+02  0.00000000000E+00 0.  1.
</event>
<event>
 7    1  0.1333056E-013  0.7246172E+02  0.7816164E-02  0.1226708E+00
        -11   -1    0    0    0    0  0.00000000000E+00  0.00000000000E+00  0.45593999997E+02  0.45594000000E+02  0.51100000000E-03 0.  1.
         11   -1    0    0    0    0 -0.00000000000E+00 -0.00000000000E+00 -0.45593999997E+02  0.45594000000E+02  0.51100000000E-03 0. -1.
    9900012    2    1    2    0    0 -0.14661614259E+02  0.10330715212E+02  0.53839390722E+01  0.72461724092E+02  0.70000200349E+02 0.  0.
         12    1    1    2    0    0  0.14661614259E+02 -0.10330715212E+02 -0.53839390722E+01  0.18726275908E+02  0.00000000000E+00 0. -1.
         11    1    3    3    0    0 -0.40141945919E+01  0.28974922718E+02  0.88158419897E+01  0.30551251611E+02  0.51100000000E-03 0. -1.
        -11    1    3    3    0    0  0.10358592663E+02 -0.10472650607E+02 -0.10724482436E+02  0.18220630518E+02  0.51100000000E-03 0.  1.
        -12    1    3    3    0    0 -0.21006012330E+02 -0.81715568991E+01  0.72925795189E+01  0.23689841962E+02  0.00000000000E+00 0.  1.
</event>
<event>
 7    1  0.1333056E-013  0.7246224E+02  0.7816164E-02  0.1226706E+00
        -11   -1    0    0    0    0  0.00000000000E+00  0.00000000000E+00  0.45593999997E+02  0.45594000000E+02  0.51100000000E-03 0.  1.
         11   -1    0    0    0    0 -0.00000000000E+00 -0.00000000000E+00 -0.45593999997E+02  0.45594000000E+02  0.51100000000E-03 0. -1.
    9900012    2    1    2    0    0 -0.94253629555E+01 -0.46193230780E+01  0.15507363547E+02  0.72462244028E+02  0.70000877658E+02 0.  0.
         12    1    1    2    0    0  0.94253629555E+01  0.46193230780E+01 -0.15507363547E+02  0.18725755972E+02  0.00000000000E+00 0. -1.
         11    1    3    3    0    0 -0.35069854916E+02  0.35908405778E+01  0.15013024468E+02  0.38316833948E+02  0.51100000000E-03 0. -1.
        -11    1    3    3    0    0  0.16989350659E+02  0.54139288162E+01 -0.14394504454E+01  0.17889121803E+02  0.51100000000E-03 0.  1.
         12    1    3    3    0    0  0.86551413012E+01 -0.13624092472E+02  0.19337895244E+01  0.16256288277E+02  0.00000000000E+00 0. -1.
</event>
<event>
 7    1  0.1333056E-013  0.7246157E+02  0.7816164E-02  0.1226708E+00
        -11   -1    0    0    0    0  0.00000000000E+00  0.00000000000E+00  0.45593999997E+02  0.45594000000E+02  0.51100000000E-03 0.  1.
         11   -1    0    0    0    0 -0.00000000000E+00 -0.00000000000E+00 -0.45593999997E+02  0.45594000000E+02  0.51100000000E-03 0. -1.
    9900012    2    1    2    0    0 -0.27534051123E+00 -0.17980847519E+01  0.18637873622E+02  0.72461568030E+02  0.69999997050E+02 0.  0.
         12    1    1    2    0    0  0.27534051123E+00  0.17980847519E+01 -0.18637873622E+02  0.18726431970E+02  0.00000000000E+00 0. -1.
         11    1    3    3    0    0 -0.10989600117E+02  0.63100809744E+01 -0.12091871521E+02  0.17515758327E+02  0.51100000000E-03 0. -1.
        -11    1    3    3    0    0  0.59980133168E+01 -0.17375361851E+02  0.38030993127E+02  0.42240215455E+02  0.51100000000E-03 0.  1.
        -12    1    3    3    0    0  0.47162462891E+01  0.92671961242E+01 -0.73012479835E+01  0.12705594247E+02  0.00000000000E+00 0.  1.
</event>
<event>
 7    1  0.1333056E-013  0.7246150E+02  0.7816164E-02  0.1226708E+00
        -11   -1    0    0    0    0  0.00000000000E+00  0.00000000000E+00  0.45593999997E+02  0.45594000000E+02  0.51100000000E-03 0.  1.
         11   -1    0    0    0    0 -0.00000000000E+00 -0.00000000000E+00 -0.45593999997E+02  0.45594000000E+02  0.51100000000E-03 0. -1.
    9900012    2    1    2    0    0  0.11197404959E+02 -0.14128145662E+02  0.50690652684E+01  0.72461500050E+02  0.69999908494E+02 0.  0.
         12    1    1    2    0    0 -0.11197404959E+02  0.14128145662E+02 -0.50690652684E+01  0.18726499950E+02  0.00000000000E+00 0. -1.
         11    1    3    3    0    0  0.45197045524E+01  0.60224617285E+01 -0.17491211083E+02  0.19043115289E+02  0.51100000000E-03 0. -1.
        -11    1    3    3    0    0  0.25007776204E+02 -0.89416917556E+01  0.15759687889E+02  0.30882203366E+02  0.51100000000E-03 0.  1.
        -12    1    3    3    0    0 -0.18330075798E+02 -0.11208915635E+02  0.68005884622E+01  0.22536181396E+02  0.00000000000E+00 0.  1.
</event>
<event>
 7    1  0.1333056E-013  0.7246158E+02  0.7816164E-02  0.1226708E+00
        -11   -1    0    0    0    0  0.00000000000E+00  0.00000000000E+00  0.45593999997E+02  0.45594000000E+02  0.51100000000E-03 0.  1.
         11   -1    0    0    0    0 -0.00000000000E+00 -0.00000000000E+00 -0.45593999997E+02  0.45594000000E+02  0.51100000000E-03 0. -1.
    9900012    2    1    2    0    0 -0.17334649059E+02  0.27325625984E+01 -0.65361932958E+01  0.72461580717E+02  0.70000013578E+02 0.  0.
         12    1    1    2    0    0  0.17334649059E+02 -0.27325625984E+01  0.65361932958E+01  0.18726419283E+02  0.00000000000E+00 0. -1.
         11    1    3    3    0    0 -0.20197655133E+02  0.40361185387E+01 -0.76015799031E+01  0.21954943475E+02  0.51100000000E-03 0. -1.
        -11    1    3    3    0    0 -0.31170869780E+01 -0.65676680071E+01  0.24604398610E+02  0.25655933534E+02  0.51100000000E-03 0.  1.
        -12    1    3    3    0    0  0.59800930519E+01  0.52641120668E+01 -0.23539012002E+02  0.24850703708E+02  0.00000000000E+00 0.  1.
</event>
<event>
 7    1  0.1333056E-013  0.7246155E+02  0.7816164E-02  0.1226708E+00
        -11   -1    0    0    0    0  0.00000000000E+00  0.00000000000E+00  0.45593999997E+02  0.45594000000E+02  0.51100000000E-03 0. -1.
         11   -1    0    0    0    0 -0.00000000000E+00 -0.00000000000E+00 -0.45593999997E+02  0.45594000000E+02  0.51100000000E-03 0.  1.
    9900012    2    1    2    0    0  0.59728936516E+01  0.14750228214E+02 -0.98709271738E+01  0.72461550945E+02  0.69999974793E+02 0.  0.
         12    1    1    2    0    0 -0.59728936516E+01 -0.14750228214E+02  0.98709271738E+01  0.18726449055E+02  0.00000000000E+00 0. -1.
         11    1    3    3    0    0 -0.16794522313E+02  0.43843711317E+01  0.98592800820E+01  0.19962066375E+02  0.51100000000E-03 0. -1.
        -11    1    3    3    0    0  0.12170751154E+02  0.21340204544E+02 -0.26211372224E+02  0.35924470041E+02  0.51100000000E-03 0.  1.
        -12    1    3    3    0    0  0.10596664811E+02 -0.10974347461E+02  0.64811649679E+01  0.16575014529E+02  0.00000000000E+00 0.  1.
</event>
<event>
 7    1  0.1333056E-013  0.7246146E+02  0.7816164E-02  0.1226708E+00
        -11   -1    0    0    0    0  0.00000000000E+00  0.00000000000E+00  0.45593999997E+02  0.45594000000E+02  0.51100000000E-03 0. -1.
         11   -1    0    0    0    0 -0.00000000000E+00 -0.00000000000E+00 -0.45593999997E+02  0.45594000000E+02  0.51100000000E-03 0.  1.
    9900012    2    1    2    0    0 -0.11172615596E+02 -0.10745607015E+02 -0.10506572712E+02  0.72461455216E+02  0.69999850090E+02 0.  0.
         12    1    1    2    0    0  0.11172615596E+02  0.10745607015E+02  0.10506572712E+02  0.18726544784E+02  0.00000000000E+00 0. -1.
         11    1    3    3    0    0  0.10450808852E+02  0.33254404812E+01  0.32527865729E+01  0.11439343548E+02  0.51100000000E-03 0. -1.
        -11    1    3    3    0    0 -0.19839367816E+02  0.16503792568E+02  0.32148983789E+01  0.26005985009E+02  0.51100000000E-03 0.  1.
        -12    1    3    3    0    0 -0.17840566315E+01 -0.30574840064E+02 -0.16974257664E+02  0.35016126660E+02  0.00000000000E+00 0.  1.
</event>
<event>
 7    1  0.1333056E-013  0.7246175E+02  0.7816164E-02  0.1226708E+00
        -11   -1    0    0    0    0  0.00000000000E+00  0.00000000000E+00  0.45593999997E+02  0.45594000000E+02  0.51100000000E-03 0.  1.
         11   -1    0    0    0    0 -0.00000000000E+00 -0.00000000000E+00 -0.45593999997E+02  0.45594000000E+02  0.51100000000E-03 0. -1.
    9900012    2    1    2    0    0 -0.86649449432E+01  0.16600293178E+02  0.14652024125E+00  0.72461749103E+02  0.70000232931E+02 0.  0.
         12    1    1    2    0    0  0.86649449432E+01 -0.16600293178E+02 -0.14652024125E+00  0.18726250897E+02  0.00000000000E+00 0. -1.
         11    1    3    3    0    0 -0.20900657392E+02 -0.15388430805E+01  0.14670565162E+02  0.25581849032E+02  0.51100000000E-03 0. -1.
        -11    1    3    3    0    0  0.18644802532E+02  0.15626984782E+02  0.61474960720E+01  0.25092290112E+02  0.51100000000E-03 0.  1.
         12    1    3    3    0    0 -0.64090900832E+01  0.25121514773E+01 -0.20671540992E+02  0.21787609959E+02  0.00000000000E+00 0. -1.
</event>
<event>
 7    1  0.1333056E-013  0.7246161E+02  0.7816164E-02  0.1226708E+00
        -11   -1    0    0    0    0  0.00000000000E+00  0.00000000000E+00  0.45593999997E+02  0.45594000000E+02  0.51100000000E-03 0.  1.
         11   -1    0    0    0    0 -0.00000000000E+00 -0.00000000000E+00 -0.45593999997E+02  0.45594000000E+02  0.51100000000E-03 0. -1.
    9900012    2    1    2    0    0  0.54172956676E+01 -0.91769865745E+01  0.15398494306E+02  0.72461606812E+02  0.70000047572E+02 0.  0.
         12    1    1    2    0    0 -0.54172956676E+01  0.91769865745E+01 -0.15398494306E+02  0.18726393188E+02  0.00000000000E+00 0. -1.
         11    1    3    3    0    0  0.89247218316E+01  0.17067663372E+02 -0.35023418489E+01  0.19576061693E+02  0.51100000000E-03 0. -1.
        -11    1    3    3    0    0  0.12713390722E+02 -0.12177234280E+02  0.24989557489E+02  0.30567847849E+02  0.51100000000E-03 0.  1.
        -12    1    3    3    0    0 -0.16220816886E+02 -0.14067415666E+02 -0.60887213340E+01  0.22317697270E+02  0.00000000000E+00 0.  1.
</event>
<event>
 7    1  0.1333056E-013  0.7246150E+02  0.7816164E-02  0.1226708E+00
        -11   -1    0    0    0    0  0.00000000000E+00  0.00000000000E+00  0.45593999997E+02  0.45594000000E+02  0.51100000000E-03 0.  1.
         11   -1    0    0    0    0 -0.00000000000E+00 -0.00000000000E+00 -0.45593999997E+02  0.45594000000E+02  0.51100000000E-03 0. -1.
    9900012    2    1    2    0    0 -0.93486465521E+00  0.28343183355E+01  0.18487145092E+02  0.72461498297E+02  0.69999906211E+02 0.  0.
         12    1    1    2    0    0  0.93486465521E+00 -0.28343183355E+01 -0.18487145092E+02  0.18726501703E+02  0.00000000000E+00 0. -1.
         11    1    3    3    0    0 -0.30711347024E+02 -0.72672918117E+01  0.94536767595E+00  0.31573629608E+02  0.51100000000E-03 0. -1.
        -11    1    3    3    0    0  0.19211741463E+02  0.36533147472E+01  0.20321014574E+02  0.28202506134E+02  0.51100000000E-03 0.  1.
        -12    1    3    3    0    0  0.10564740906E+02  0.64482954000E+01 -0.27792371578E+01  0.12685362555E+02  0.00000000000E+00 0.  1.
</event>
<event>
 7    1  0.1333056E-013  0.7246169E+02  0.7816164E-02  0.1226708E+00
        -11   -1    0    0    0    0  0.00000000000E+00  0.00000000000E+00  0.45593999997E+02  0.45594000000E+02  0.51100000000E-03 0. -1.
         11   -1    0    0    0    0 -0.00000000000E+00 -0.00000000000E+00 -0.45593999997E+02  0.45594000000E+02  0.51100000000E-03 0.  1.
    9900012    2    1    2    0    0  0.22616568912E+01 -0.18298136074E+02 -0.32768399224E+01  0.72461693489E+02  0.70000160484E+02 0.  0.
         12    1    1    2    0    0 -0.22616568912E+01  0.18298136074E+02  0.32768399224E+01  0.18726306511E+02  0.00000000000E+00 0. -1.
         11    1    3    3    0    0 -0.18450044373E+00  0.66159145652E+01  0.13068812230E+02  0.14649171284E+02  0.51100000000E-03 0. -1.
        -11    1    3    3    0    0  0.21410053588E+02 -0.10904592874E+02 -0.23054908611E+02  0.33299089353E+02  0.51100000000E-03 0.  1.
        -12    1    3    3    0    0 -0.18963896253E+02 -0.14009457764E+02  0.67092564583E+01  0.24513432852E+02  0.00000000000E+00 0.  1.
</event>
<event>
 7    1  0.1333056E-013  0.7246156E+02  0.7816164E-02  0.1226708E+00
        -11   -1    0    0    0    0  0.00000000000E+00  0.00000000000E+00  0.45593999997E+02  0.45594000000E+02  0.51100000000E-03 0. -1.
         11   -1    0    0    0    0 -0.00000000000E+00 -0.00000000000E+00 -0.45593999997E+02  0.45594000000E+02  0.51100000000E-03 0.  1.
    9900012    2    1    2    0    0 -0.77271775759E+01 -0.52848287479E+01  0.16218532622E+02  0.72461561775E+02  0.69999988902E+02 0.  0.
         12    1    1    2    0    0  0.77271775759E+01  0.52848287479E+01 -0.16218532622E+02  0.18726438225E+02  0.00000000000E+00 0. -1.
         11    1    3    3    0    0  0.84751882474E+01 -0.18354185143E+02  0.10803206815E+02  0.22921915405E+02  0.51100000000E-03 0. -1.
        -11    1    3    3    0    0 -0.17140383119E+02  0.11688033854E+02 -0.17147320929E+02  0.26915302044E+02  0.51100000000E-03 0.  1.
         12    1    3    3    0    0  0.93801729550E+00  0.13813225415E+01  0.22562646736E+02  0.22624344325E+02  0.00000000000E+00 0. -1.
</event>
<event>
 7    1  0.1333056E-013  0.7246159E+02  0.7816164E-02  0.1226708E+00
        -11   -1    0    0    0    0  0.00000000000E+00  0.00000000000E+00  0.45593999997E+02  0.45594000000E+02  0.51100000000E-03 0. -1.
         11   -1    0    0    0    0 -0.00000000000E+00 -0.00000000000E+00 -0.45593999997E+02  0.45594000000E+02  0.51100000000E-03 0.  1.
    9900012    2    1    2    0    0  0.12574809593E+02  0.11331377405E+02 -0.80095131752E+01  0.72461594806E+02  0.70000031931E+02 0.  0.
         12    1    1    2    0    0 -0.12574809593E+02 -0.11331377405E+02  0.80095131752E+01  0.18726405194E+02  0.00000000000E+00 0. -1.
         11    1    3    3    0    0  0.32164406063E+02  0.38013833697E+01 -0.23740953713E+02  0.40157594753E+02  0.51100000000E-03 0.  1.
        -11    1    3    3    0    0 -0.66497593664E+01  0.28235924478E+01  0.17005087970E+02  0.18476065357E+02  0.51100000000E-03 0. -1.
        -12    1    3    3    0    0 -0.12939837103E+02  0.47064015878E+01 -0.12736474322E+01  0.13827934696E+02  0.00000000000E+00 0.  1.
</event>
<event>
 7    1  0.1333056E-013  0.7246132E+02  0.7816164E-02  0.1226709E+00
        -11   -1    0    0    0    0  0.00000000000E+00  0.00000000000E+00  0.45593999997E+02  0.45594000000E+02  0.51100000000E-03 0.  1.
         11   -1    0    0    0    0 -0.00000000000E+00 -0.00000000000E+00 -0.45593999997E+02  0.45594000000E+02  0.51100000000E-03 0. -1.
    9900012    2    1    2    0    0 -0.84820748544E+01 -0.11316309830E+02  0.12275341658E+02  0.72461321843E+02  0.69999676345E+02 0.  0.
         12    1    1    2    0    0  0.84820748544E+01  0.11316309830E+02 -0.12275341658E+02  0.18726678157E+02  0.00000000000E+00 0. -1.
         11    1    3    3    0    0  0.18245562231E+02  0.84518405809E+01  0.17415492248E+01  0.20183338284E+02  0.51100000000E-03 0. -1.
        -11    1    3    3    0    0 -0.13758561875E+02 -0.19697390644E+02  0.23734040322E+02  0.33772620468E+02  0.51100000000E-03 0.  1.
        -12    1    3    3    0    0 -0.12969075211E+02 -0.70759766296E-01 -0.13200247889E+02  0.18505363090E+02  0.00000000000E+00 0.  1.
</event>
<event>
 7    1  0.1333056E-013  0.7246169E+02  0.7816164E-02  0.1226708E+00
        -11   -1    0    0    0    0  0.00000000000E+00  0.00000000000E+00  0.45593999997E+02  0.45594000000E+02  0.51100000000E-03 0. -1.
         11   -1    0    0    0    0 -0.00000000000E+00 -0.00000000000E+00 -0.45593999997E+02  0.45594000000E+02  0.51100000000E-03 0.  1.
    9900012    2    1    2    0    0  0.11290908715E+02 -0.11858694959E+02 -0.90863234154E+01  0.72461693932E+02  0.70000161060E+02 0.  0.
         12    1    1    2    0    0 -0.11290908715E+02  0.11858694959E+02  0.90863234154E+01  0.18726306068E+02  0.00000000000E+00 0. -1.
         11    1    3    3    0    0  0.15794671803E+02  0.68391792309E+01  0.15490156566E+02  0.23155797991E+02  0.51100000000E-03 0. -1.
        -11    1    3    3    0    0 -0.26357374343E+01  0.11815603356E+02 -0.82383147941E+01  0.14643272360E+02  0.51100000000E-03 0.  1.
         12    1    3    3    0    0 -0.18680256537E+01 -0.30513477546E+02 -0.16338165187E+02  0.34662623581E+02  0.00000000000E+00 0. -1.
</event>
<event>
 7    1  0.1333056E-013  0.7246156E+02  0.7816164E-02  0.1226708E+00
        -11   -1    0    0    0    0  0.00000000000E+00  0.00000000000E+00  0.45593999997E+02  0.45594000000E+02  0.51100000000E-03 0.  1.
         11   -1    0    0    0    0 -0.00000000000E+00 -0.00000000000E+00 -0.45593999997E+02  0.45594000000E+02  0.51100000000E-03 0. -1.
    9900012    2    1    2    0    0 -0.88232827535E+01 -0.62291856107E+01  0.15297918756E+02  0.72461564403E+02  0.69999992325E+02 0.  0.
         12    1    1    2    0    0  0.88232827535E+01  0.62291856107E+01 -0.15297918756E+02  0.18726435597E+02  0.00000000000E+00 0. -1.
         11    1    3    3    0    0  0.45519865994E+01  0.15225951445E+02  0.13673851219E+02  0.20964836914E+02  0.51100000000E-03 0. -1.
        -11    1    3    3    0    0 -0.83336005552E+01 -0.35342946448E+02  0.40017658056E+01  0.36531998188E+02  0.51100000000E-03 0.  1.
        -12    1    3    3    0    0 -0.50416687977E+01  0.13887809392E+02 -0.23776982690E+01  0.14964729300E+02  0.00000000000E+00 0.  1.
</event>
<event>
 7    1  0.1333056E-013  0.7246155E+02  0.7816164E-02  0.1226708E+00
        -11   -1    0    0    0    0  0.00000000000E+00  0.00000000000E+00  0.45593999997E+02  0.45594000000E+02  0.51100000000E-03 0.  1.
         11   -1    0    0    0    0 -0.00000000000E+00 -0.00000000000E+00 -0.45593999997E+02  0.45594000000E+02  0.51100000000E-03 0. -1.
    9900012    2    1    2    0    0 -0.15641404922E+02 -0.42582672666E+01 -0.93751496098E+01  0.72461552973E+02  0.69999977436E+02 0.  0.
         12    1    1    2    0    0  0.15641404922E+02  0.42582672666E+01  0.93751496098E+01  0.18726447027E+02  0.00000000000E+00 0. -1.
         11    1    3    3    0    0  0.15213545452E+02 -0.10425668848E+02  0.17299145151E+02  0.25286497570E+02  0.51100000000E-03 0. -1.
        -11    1    3    3    0    0 -0.11235108585E+02 -0.74112087818E+01 -0.16348853436E+02  0.21176371017E+02  0.51100000000E-03 0.  1.
         12    1    3    3    0    0 -0.19619841790E+02  0.13578610364E+02 -0.10325441325E+02  0.25998684386E+02  0.00000000000E+00 0. -1.
</event>
<event>
 7    1  0.1333056E-013  0.7246154E+02  0.7816164E-02  0.1226708E+00
        -11   -1    0    0    0    0  0.00000000000E+00  0.00000000000E+00  0.45593999997E+02  0.45594000000E+02  0.51100000000E-03 0.  1.
         11   -1    0    0    0    0 -0.00000000000E+00 -0.00000000000E+00 -0.45593999997E+02  0.45594000000E+02  0.51100000000E-03 0. -1.
    9900012    2    1    2    0    0  0.76176092556E+00 -0.16494357572E+02  0.88338061345E+01  0.72461541652E+02  0.69999962688E+02 0.  0.
         12    1    1    2    0    0 -0.76176092556E+00  0.16494357572E+02 -0.88338061345E+01  0.18726458348E+02  0.00000000000E+00 0. -1.
         11    1    3    3    0    0 -0.12855867075E+02  0.19076928676E+02  0.13294542229E+02  0.26569670290E+02  0.51100000000E-03 0. -1.
        -11    1    3    3    0    0  0.19649688388E+02 -0.17861533028E+02  0.41619024905E+00  0.26557820514E+02  0.51100000000E-03 0.  1.
        -12    1    3    3    0    0 -0.60320603877E+01 -0.17709753220E+02 -0.48769263438E+01  0.19334050848E+02  0.00000000000E+00 0.  1.
</event>
<event>
 8    1  0.1333056E-013  0.7246158E+02  0.7816164E-02  0.1226708E+00
        -11   -1    0    0    0    0  0.00000000000E+00  0.00000000000E+00  0.45593999997E+02  0.45594000000E+02  0.51100000000E-03 0. -1.
         11   -1    0    0    0    0 -0.00000000000E+00 -0.00000000000E+00 -0.45593999997E+02  0.45594000000E+02  0.51100000000E-03 0.  1.
    9900012    2    1    2    0    0 -0.18710995691E+02  0.69353198058E+00 -0.31037873068E+00  0.72461583329E+02  0.70000016980E+02 0.  0.
         24    2    3    3    0    0 -0.19634343308E+02  0.57633677332E-01 -0.98911911345E+01  0.62815397345E+02  0.58842397323E+02 0.  0.
         12    1    1    2    0    0  0.18710995691E+02 -0.69353198058E+00  0.31037873068E+00  0.18726416671E+02  0.00000000000E+00 0. -1.
         11    1    3    3    0    0  0.92334761633E+00  0.63589830325E+00  0.95808124039E+01  0.96461859847E+01  0.51100000000E-03 0. -1.
        -11    1    4    4    0    0 -0.21884233801E+01 -0.88731644914E+01 -0.31994585858E+02  0.33274250848E+02  0.51100000000E-03 0.  1.
         12    1    4    4    0    0 -0.17445919927E+02  0.89307981687E+01  0.22103394724E+02  0.29541146497E+02  0.00000000000E+00 0. -1.
</event>
<event>
 7    1  0.2113397E-013  0.7246152E+02  0.7816164E-02  0.1226708E+00
        -11   -1    0    0    0    0  0.00000000000E+00  0.00000000000E+00  0.45593999997E+02  0.45594000000E+02  0.51100000000E-03 0. -1.
         11   -1    0    0    0    0 -0.00000000000E+00 -0.00000000000E+00 -0.45593999997E+02  0.45594000000E+02  0.51100000000E-03 0.  1.
    9900012    2    1    2    0    0 -0.57226043251E+01 -0.26542847323E+01 -0.17632005082E+02  0.72461520595E+02  0.69999935258E+02 0.  0.
         12    1    1    2    0    0  0.57226043251E+01  0.26542847323E+01  0.17632005082E+02  0.18726479405E+02  0.00000000000E+00 0. -1.
         11    1    3    3    0    0 -0.16010420741E+02  0.11465039380E+02  0.11260238881E+02  0.22684216544E+02  0.51100000000E-03 0. -1.
        -11    1    3    3    0    0 -0.46461407266E+01 -0.62990655713E+01 -0.31731183536E+02  0.32682301932E+02  0.51100000000E-03 0.  1.
        -12    1    3    3    0    0  0.14933957142E+02 -0.78202585408E+01  0.28389395729E+01  0.17095002120E+02  0.00000000000E+00 0.  1.
</event>
<event>
 7    1  0.1333056E-013  0.7246160E+02  0.7816164E-02  0.1226708E+00
        -11   -1    0    0    0    0  0.00000000000E+00  0.00000000000E+00  0.45593999997E+02  0.45594000000E+02  0.51100000000E-03 0. -1.
         11   -1    0    0    0    0 -0.00000000000E+00 -0.00000000000E+00 -0.45593999997E+02  0.45594000000E+02  0.51100000000E-03 0.  1.
    9900012    2    1    2    0    0  0.15381678127E+02  0.42213492916E+00 -0.10672568213E+02  0.72461603332E+02  0.70000043037E+02 0.  0.
         12    1    1    2    0    0 -0.15381678127E+02 -0.42213492916E+00  0.10672568213E+02  0.18726396668E+02  0.00000000000E+00 0. -1.
         11    1    3    3    0    0  0.20044012771E+02  0.27129396256E+02 -0.76364341941E+01  0.34584414360E+02  0.51100000000E-03 0. -1.
        -11    1    3    3    0    0 -0.14602169079E+02 -0.13194171284E+02  0.32815048107E+01  0.19951886421E+02  0.51100000000E-03 0.  1.
        -12    1    3    3    0    0  0.99398344359E+01 -0.13513090043E+02 -0.63176388294E+01  0.17925302550E+02  0.00000000000E+00 0.  1.
</event>
<event>
 7    1  0.1333056E-013  0.7246156E+02  0.7816164E-02  0.1226708E+00
        -11   -1    0    0    0    0  0.00000000000E+00  0.00000000000E+00  0.45593999997E+02  0.45594000000E+02  0.51100000000E-03 0.  1.
         11   -1    0    0    0    0 -0.00000000000E+00 -0.00000000000E+00 -0.45593999997E+02  0.45594000000E+02  0.51100000000E-03 0. -1.
    9900012    2    1    2    0    0 -0.94749290832E+01 -0.14646996293E+02  0.68096134601E+01  0.72461558346E+02  0.69999984435E+02 0.  0.
         12    1    1    2    0    0  0.94749290832E+01  0.14646996293E+02 -0.68096134601E+01  0.18726441654E+02  0.00000000000E+00 0. -1.
         11    1    3    3    0    0 -0.17176037119E+02  0.89552550142E+01  0.20945796267E+02  0.28529620134E+02  0.51100000000E-03 0.  1.
        -11    1    3    3    0    0  0.14586557480E+02 -0.25735955038E+02 -0.17911095765E+01  0.29636381605E+02  0.51100000000E-03 0. -1.
         12    1    3    3    0    0 -0.68854494445E+01  0.21337037311E+01 -0.12345073230E+02  0.14295556608E+02  0.00000000000E+00 0. -1.
</event>
<event>
 7    1  0.1333056E-013  0.7246157E+02  0.7816164E-02  0.1226708E+00
        -11   -1    0    0    0    0  0.00000000000E+00  0.00000000000E+00  0.45593999997E+02  0.45594000000E+02  0.51100000000E-03 0.  1.
         11   -1    0    0    0    0 -0.00000000000E+00 -0.00000000000E+00 -0.45593999997E+02  0.45594000000E+02  0.51100000000E-03 0. -1.
    9900012    2    1    2    0    0  0.13437225636E+02  0.12605103989E+02  0.33513667322E+01  0.72461565786E+02  0.69999994127E+02 0.  0.
         12    1    1    2    0    0 -0.13437225636E+02 -0.12605103989E+02 -0.33513667322E+01  0.18726434214E+02  0.00000000000E+00 0. -1.
         11    1    3    3    0    0  0.15086883127E+02  0.48569571415E+01 -0.18841362436E+02  0.24621149726E+02  0.51100000000E-03 0. -1.
        -11    1    3    3    0    0  0.80523773486E+01  0.70684573679E+01  0.32169808939E+02  0.33907233417E+02  0.51100000000E-03 0.  1.
        -12    1    3    3    0    0 -0.97020348392E+01  0.67968948003E+00 -0.99770797712E+01  0.13933182643E+02  0.00000000000E+00 0.  1.
</event>
<event>
 7    1  0.1333056E-013  0.7246159E+02  0.7816164E-02  0.1226708E+00
        -11   -1    0    0    0    0  0.00000000000E+00  0.00000000000E+00  0.45593999997E+02  0.45594000000E+02  0.51100000000E-03 0. -1.
         11   -1    0    0    0    0 -0.00000000000E+00 -0.00000000000E+00 -0.45593999997E+02  0.45594000000E+02  0.51100000000E-03 0.  1.
    9900012    2    1    2    0    0  0.84106943452E+00  0.18490361153E+02  0.28421047080E+01  0.72461590506E+02  0.70000026330E+02 0.  0.
         12    1    1    2    0    0 -0.84106943452E+00 -0.18490361153E+02 -0.28421047080E+01  0.18726409494E+02  0.00000000000E+00 0. -1.
         11    1    3    3    0    0  0.17627511934E+02  0.50401096952E+01  0.14651579966E+02  0.23469143113E+02  0.51100000000E-03 0. -1.
        -11    1    3    3    0    0 -0.94997066920E+01 -0.46559646747E+01 -0.23828259815E+02  0.26071217853E+02  0.51100000000E-03 0.  1.
         12    1    3    3    0    0 -0.72867358074E+01  0.18106216133E+02  0.12018784557E+02  0.22921229539E+02  0.00000000000E+00 0. -1.
</event>
<event>
 7    1  0.1333056E-013  0.7246158E+02  0.7816164E-02  0.1226708E+00
        -11   -1    0    0    0    0  0.00000000000E+00  0.00000000000E+00  0.45593999997E+02  0.45594000000E+02  0.51100000000E-03 0. -1.
         11   -1    0    0    0    0 -0.00000000000E+00 -0.00000000000E+00 -0.45593999997E+02  0.45594000000E+02  0.51100000000E-03 0.  1.
    9900012    2    1    2    0    0 -0.47469743525E+01  0.46454694129E+01 -0.17508984231E+02  0.72461583355E+02  0.70000017014E+02 0.  0.
         12    1    1    2    0    0  0.47469743525E+01 -0.46454694129E+01  0.17508984231E+02  0.18726416645E+02  0.00000000000E+00 0. -1.
         11    1    3    3    0    0 -0.55523117817E+00 -0.16237367850E+02  0.11497007473E+02  0.19903305691E+02  0.51100000000E-03 0. -1.
        -11    1    3    3    0    0 -0.11465981780E+02  0.29657125233E+02 -0.17208355578E+02  0.36154409374E+02  0.51100000000E-03 0.  1.
         12    1    3    3    0    0  0.72742386052E+01 -0.87742879704E+01 -0.11797636127E+02  0.16403868289E+02  0.00000000000E+00 0. -1.
</event>
<event>
 7    1  0.1333056E-013  0.7246154E+02  0.7816164E-02  0.1226708E+00
        -11   -1    0    0    0    0  0.00000000000E+00  0.00000000000E+00  0.45593999997E+02  0.45594000000E+02  0.51100000000E-03 0. -1.
         11   -1    0    0    0    0 -0.00000000000E+00 -0.00000000000E+00 -0.45593999997E+02  0.45594000000E+02  0.51100000000E-03 0.  1.
    9900012    2    1    2    0    0 -0.85339668297E+01 -0.11017196440E+02 -0.12508925542E+02  0.72461536760E+02  0.69999956315E+02 0.  0.
         12    1    1    2    0    0  0.85339668297E+01  0.11017196440E+02  0.12508925542E+02  0.18726463240E+02  0.00000000000E+00 0. -1.
         11    1    3    3    0    0  0.12512824247E+02 -0.21167108797E+02 -0.46241515997E+01  0.25019992880E+02  0.51100000000E-03 0. -1.
        -11    1    3    3    0    0 -0.17824610983E+02  0.15205737778E+02  0.12246238963E+02  0.26436746907E+02  0.51100000000E-03 0.  1.
        -12    1    3    3    0    0 -0.32221800941E+01 -0.50558254215E+01 -0.20131012905E+02  0.21004796972E+02  0.00000000000E+00 0.  1.
</event>
<event>
 7    1  0.1333056E-013  0.7246159E+02  0.7816164E-02  0.1226708E+00
        -11   -1    0    0    0    0  0.00000000000E+00  0.00000000000E+00  0.45593999997E+02  0.45594000000E+02  0.51100000000E-03 0. -1.
         11   -1    0    0    0    0 -0.00000000000E+00 -0.00000000000E+00 -0.45593999997E+02  0.45594000000E+02  0.51100000000E-03 0.  1.
    9900012    2    1    2    0    0  0.54324773536E+01  0.14384996987E+02  0.10688244680E+02  0.72461587560E+02  0.70000022492E+02 0.  0.
         12    1    1    2    0    0 -0.54324773536E+01 -0.14384996987E+02 -0.10688244680E+02  0.18726412440E+02  0.00000000000E+00 0. -1.
         11    1    3    3    0    0  0.88965528741E+01 -0.12636150492E+02  0.28359432571E+02  0.32296723802E+02  0.51100000000E-03 0. -1.
        -11    1    3    3    0    0  0.85675786799E+01  0.10343548325E+02 -0.13766167393E+02  0.19232778305E+02  0.51100000000E-03 0.  1.
         12    1    3    3    0    0 -0.12031654200E+02  0.16677599154E+02 -0.39050204986E+01  0.20932085454E+02  0.00000000000E+00 0. -1.
</event>
<event>
 7    1  0.1333056E-013  0.7246165E+02  0.7816164E-02  0.1226708E+00
        -11   -1    0    0    0    0  0.00000000000E+00  0.00000000000E+00  0.45593999997E+02  0.45594000000E+02  0.51100000000E-03 0.  1.
         11   -1    0    0    0    0 -0.00000000000E+00 -0.00000000000E+00 -0.45593999997E+02  0.45594000000E+02  0.51100000000E-03 0. -1.
    9900012    2    1    2    0    0 -0.16085794881E+02 -0.58532560100E+01  0.75935938363E+01  0.72461653047E+02  0.70000107800E+02 0.  0.
         12    1    1    2    0    0  0.16085794881E+02  0.58532560100E+01 -0.75935938363E+01  0.18726346953E+02  0.00000000000E+00 0. -1.
         11    1    3    3    0    0  0.60759674334E+01  0.21454412766E+02 -0.92549623013E+01  0.24142566865E+02  0.51100000000E-03 0.  1.
        -11    1    3    3    0    0 -0.28399300155E+01 -0.24974830414E+02  0.52999694941E+01  0.25688461099E+02  0.51100000000E-03 0. -1.
        -12    1    3    3    0    0 -0.19321832299E+02 -0.23328383612E+01  0.11548586643E+02  0.22630625083E+02  0.00000000000E+00 0.  1.
</event>
<event>
 7    1  0.1333056E-013  0.7246162E+02  0.7816164E-02  0.1226708E+00
        -11   -1    0    0    0    0  0.00000000000E+00  0.00000000000E+00  0.45593999997E+02  0.45594000000E+02  0.51100000000E-03 0. -1.
         11   -1    0    0    0    0 -0.00000000000E+00 -0.00000000000E+00 -0.45593999997E+02  0.45594000000E+02  0.51100000000E-03 0.  1.
    9900012    2    1    2    0    0 -0.71844355298E+01 -0.17232653006E+02 -0.14480496870E+01  0.72461620441E+02  0.70000065325E+02 0.  0.
         12    1    1    2    0    0  0.71844355298E+01  0.17232653006E+02  0.14480496870E+01  0.18726379559E+02  0.00000000000E+00 0. -1.
         11    1    3    3    0    0 -0.15985381316E+02 -0.32313340773E+02  0.12144593288E+02  0.38041760661E+02  0.51100000000E-03 0. -1.
        -11    1    3    3    0    0  0.18205459007E+02  0.10902465335E+02 -0.77849436886E+01  0.22603270483E+02  0.51100000000E-03 0.  1.
         12    1    3    3    0    0 -0.94045132207E+01  0.41782224327E+01 -0.58076992867E+01  0.11816589297E+02  0.00000000000E+00 0. -1.
</event>
<event>
 7    1  0.1333056E-013  0.7246088E+02  0.7816164E-02  0.1226710E+00
        -11   -1    0    0    0    0  0.00000000000E+00  0.00000000000E+00  0.45593999997E+02  0.45594000000E+02  0.51100000000E-03 0.  1.
         11   -1    0    0    0    0 -0.00000000000E+00 -0.00000000000E+00 -0.45593999997E+02  0.45594000000E+02  0.51100000000E-03 0. -1.
    9900012    2    1    2    0    0 -0.17012748411E+02  0.73886656110E+01 -0.25843858198E+01  0.72460879611E+02  0.69999100251E+02 0.  0.
         12    1    1    2    0    0  0.17012748411E+02 -0.73886656110E+01  0.25843858198E+01  0.18727120389E+02  0.00000000000E+00 0. -1.
         11    1    3    3    0    0  0.69296470790E+00 -0.24120252579E+01 -0.90695571452E+01  0.94103630643E+01  0.51100000000E-03 0. -1.
        -11    1    3    3    0    0 -0.76455212221E+01  0.32459204398E+02  0.15364690923E+02  0.36716858149E+02  0.51100000000E-03 0.  1.
        -12    1    3    3    0    0 -0.10060191897E+02 -0.22658513529E+02 -0.88795195977E+01  0.26333658398E+02  0.00000000000E+00 0.  1.
</event>
<event>
 7    1  0.1333056E-013  0.7246153E+02  0.7816164E-02  0.1226708E+00
        -11   -1    0    0    0    0  0.00000000000E+00  0.00000000000E+00  0.45593999997E+02  0.45594000000E+02  0.51100000000E-03 0.  1.
         11   -1    0    0    0    0 -0.00000000000E+00 -0.00000000000E+00 -0.45593999997E+02  0.45594000000E+02  0.51100000000E-03 0. -1.
    9900012    2    1    2    0    0  0.49998840123E+01  0.24857286662E+01  0.17874641763E+02  0.72461534629E+02  0.69999953539E+02 0.  0.
         12    1    1    2    0    0 -0.49998840123E+01 -0.24857286662E+01 -0.17874641763E+02  0.18726465371E+02  0.00000000000E+00 0. -1.
         11    1    3    3    0    0  0.32014804984E+02  0.42089769301E+01  0.20012270171E+02  0.37988869194E+02  0.51100000000E-03 0. -1.
        -11    1    3    3    0    0 -0.10119521819E+02 -0.78043064962E+01  0.67330911625E+01  0.14444598942E+02  0.51100000000E-03 0.  1.
         12    1    3    3    0    0 -0.16895399153E+02  0.60810582323E+01 -0.88707195703E+01  0.20028066493E+02  0.00000000000E+00 0. -1.
</event>
<event>
 7    1  0.1333056E-013  0.7246155E+02  0.7816164E-02  0.1226708E+00
        -11   -1    0    0    0    0  0.00000000000E+00  0.00000000000E+00  0.45593999997E+02  0.45594000000E+02  0.51100000000E-03 0. -1.
         11   -1    0    0    0    0 -0.00000000000E+00 -0.00000000000E+00 -0.45593999997E+02  0.45594000000E+02  0.51100000000E-03 0.  1.
    9900012    2    1    2    0    0 -0.64446503656E+01  0.14783508411E+02 -0.95181118507E+01  0.72461545651E+02  0.69999967897E+02 0.  0.
         12    1    1    2    0    0  0.64446503656E+01 -0.14783508411E+02  0.95181118507E+01  0.18726454349E+02  0.00000000000E+00 0. -1.
         11    1    3    3    0    0 -0.10105524142E+01  0.65609829766E+01  0.16884829974E+02  0.18142910387E+02  0.51100000000E-03 0. -1.
        -11    1    3    3    0    0 -0.43368408304E+01  0.27373340988E+02 -0.19684334194E+02  0.33993837650E+02  0.51100000000E-03 0.  1.
        -12    1    3    3    0    0 -0.10972571210E+01 -0.19150815553E+02 -0.67186076307E+01  0.20324797614E+02  0.00000000000E+00 0.  1.
</event>
<event>
 7    1  0.1333056E-013  0.7246157E+02  0.7816164E-02  0.1226708E+00
        -11   -1    0    0    0    0  0.00000000000E+00  0.00000000000E+00  0.45593999997E+02  0.45594000000E+02  0.51100000000E-03 0.  1.
         11   -1    0    0    0    0 -0.00000000000E+00 -0.00000000000E+00 -0.45593999997E+02  0.45594000000E+02  0.51100000000E-03 0. -1.
    9900012    2    1    2    0    0  0.13269669895E+02  0.10504273421E+02  0.80159482468E+01  0.72461566130E+02  0.69999994575E+02 0.  0.
         12    1    1    2    0    0 -0.13269669895E+02 -0.10504273421E+02 -0.80159482468E+01  0.18726433870E+02  0.00000000000E+00 0. -1.
         11    1    3    3    0    0  0.22702864541E+01  0.16911176570E+02  0.20409145907E+02  0.26602167778E+02  0.51100000000E-03 0. -1.
        -11    1    3    3    0    0  0.37508571027E+01 -0.69342664161E+00 -0.27712943950E+02  0.27974220850E+02  0.51100000000E-03 0.  1.
        -12    1    3    3    0    0  0.72485263378E+01 -0.57134765081E+01  0.15319746290E+02  0.17885177501E+02  0.00000000000E+00 0.  1.
</event>
<event>
 7    1  0.1333056E-013  0.7246159E+02  0.7816164E-02  0.1226708E+00
        -11   -1    0    0    0    0  0.00000000000E+00  0.00000000000E+00  0.45593999997E+02  0.45594000000E+02  0.51100000000E-03 0.  1.
         11   -1    0    0    0    0 -0.00000000000E+00 -0.00000000000E+00 -0.45593999997E+02  0.45594000000E+02  0.51100000000E-03 0. -1.
    9900012    2    1    2    0    0 -0.88689457122E+01 -0.15735143448E+02 -0.49422230210E+01  0.72461588017E+02  0.70000023087E+02 0.  0.
         12    1    1    2    0    0  0.88689457122E+01  0.15735143448E+02  0.49422230210E+01  0.18726411983E+02  0.00000000000E+00 0. -1.
         11    1    3    3    0    0 -0.99204088655E+01  0.12734758678E+02  0.87946980182E+01  0.18383016731E+02  0.51100000000E-03 0.  1.
        -11    1    3    3    0    0  0.20192259862E+02 -0.13549821816E+02  0.31389099117E+01  0.24518927083E+02  0.51100000000E-03 0. -1.
        -12    1    3    3    0    0 -0.19140796709E+02 -0.14920080310E+02 -0.16875830951E+02  0.29559644203E+02  0.00000000000E+00 0.  1.
</event>
<event>
 7    1  0.1333056E-013  0.7246157E+02  0.7816164E-02  0.1226708E+00
        -11   -1    0    0    0    0  0.00000000000E+00  0.00000000000E+00  0.45593999997E+02  0.45594000000E+02  0.51100000000E-03 0. -1.
         11   -1    0    0    0    0 -0.00000000000E+00 -0.00000000000E+00 -0.45593999997E+02  0.45594000000E+02  0.51100000000E-03 0.  1.
    9900012    2    1    2    0    0  0.20764897340E+01  0.18234475809E+02 -0.37243903784E+01  0.72461574784E+02  0.70000005849E+02 0.  0.
         12    1    1    2    0    0 -0.20764897340E+01 -0.18234475809E+02  0.37243903784E+01  0.18726425216E+02  0.00000000000E+00 0. -1.
         11    1    3    3    0    0 -0.90394083888E+01  0.26326429004E+02  0.24937013615E+02  0.37371732853E+02  0.51100000000E-03 0. -1.
        -11    1    3    3    0    0 -0.36759402260E+01 -0.14256315997E+01 -0.68822678715E+01  0.79316185813E+01  0.51100000000E-03 0.  1.
         12    1    3    3    0    0  0.14791838349E+02 -0.66663215953E+01 -0.21779136122E+02  0.27158223350E+02  0.00000000000E+00 0. -1.
</event>
<event>
 7    1  0.1333056E-013  0.7246157E+02  0.7816164E-02  0.1226708E+00
        -11   -1    0    0    0    0  0.00000000000E+00  0.00000000000E+00  0.45593999997E+02  0.45594000000E+02  0.51100000000E-03 0. -1.
         11   -1    0    0    0    0 -0.00000000000E+00 -0.00000000000E+00 -0.45593999997E+02  0.45594000000E+02  0.51100000000E-03 0.  1.
    9900012    2    1    2    0    0  0.11375011766E+02  0.23570426423E+01  0.14687843467E+02  0.72461567120E+02  0.69999995865E+02 0.  0.
         12    1    1    2    0    0 -0.11375011766E+02 -0.23570426423E+01 -0.14687843467E+02  0.18726432880E+02  0.00000000000E+00 0. -1.
         11    1    3    3    0    0  0.13996211540E+02  0.19085005166E+02  0.15457923174E+02  0.28267980982E+02  0.51100000000E-03 0.  1.
        -11    1    3    3    0    0 -0.99192992209E+01 -0.10752508583E+02 -0.18814485991E+02  0.23832620947E+02  0.51100000000E-03 0. -1.
         12    1    3    3    0    0  0.72980994473E+01 -0.59754539416E+01  0.18044406284E+02  0.20360965191E+02  0.00000000000E+00 0. -1.
</event>
<event>
 7    1  0.1333056E-013  0.7246159E+02  0.7816164E-02  0.1226708E+00
        -11   -1    0    0    0    0  0.00000000000E+00  0.00000000000E+00  0.45593999997E+02  0.45594000000E+02  0.51100000000E-03 0. -1.
         11   -1    0    0    0    0 -0.00000000000E+00 -0.00000000000E+00 -0.45593999997E+02  0.45594000000E+02  0.51100000000E-03 0.  1.
    9900012    2    1    2    0    0 -0.15287750794E+02  0.80248939374E+01 -0.72501124975E+01  0.72461591421E+02  0.70000027521E+02 0.  0.
         12    1    1    2    0    0  0.15287750794E+02 -0.80248939374E+01  0.72501124975E+01  0.18726408579E+02  0.00000000000E+00 0. -1.
         11    1    3    3    0    0 -0.22353271593E+02  0.23133882150E+02  0.11184407435E+02  0.34057836458E+02  0.51100000000E-03 0. -1.
        -11    1    3    3    0    0  0.58486826529E+01 -0.83597450890E+01 -0.26156589106E+02  0.28075960904E+02  0.51100000000E-03 0.  1.
        -12    1    3    3    0    0  0.12168381461E+01 -0.67492431233E+01  0.77220691737E+01  0.10327794059E+02  0.00000000000E+00 0.  1.
</event>
<event>
 7    1  0.1333056E-013  0.7246162E+02  0.7816164E-02  0.1226708E+00
        -11   -1    0    0    0    0  0.00000000000E+00  0.00000000000E+00  0.45593999997E+02  0.45594000000E+02  0.51100000000E-03 0. -1.
         11   -1    0    0    0    0 -0.00000000000E+00 -0.00000000000E+00 -0.45593999997E+02  0.45594000000E+02  0.51100000000E-03 0.  1.
    9900012    2    1    2    0    0 -0.10814415024E+02  0.14587498634E+02 -0.45750010415E+01  0.72461619591E+02  0.70000064218E+02 0.  0.
         12    1    1    2    0    0  0.10814415024E+02 -0.14587498634E+02  0.45750010415E+01  0.18726380409E+02  0.00000000000E+00 0. -1.
         11    1    3    3    0    0  0.13327565154E+02 -0.21152320279E+02  0.70489759436E+01  0.25975617571E+02  0.51100000000E-03 0. -1.
        -11    1    3    3    0    0 -0.16813830018E+02  0.23102150336E+02 -0.13093687701E+01  0.28602948744E+02  0.51100000000E-03 0.  1.
         12    1    3    3    0    0 -0.73281501599E+01  0.12637668576E+02 -0.10314608215E+02  0.17883053275E+02  0.00000000000E+00 0. -1.
</event>
<event>
 7    1  0.1333056E-013  0.7246159E+02  0.7816164E-02  0.1226708E+00
        -11   -1    0    0    0    0  0.00000000000E+00  0.00000000000E+00  0.45593999997E+02  0.45594000000E+02  0.51100000000E-03 0. -1.
         11   -1    0    0    0    0 -0.00000000000E+00 -0.00000000000E+00 -0.45593999997E+02  0.45594000000E+02  0.51100000000E-03 0.  1.
    9900012    2    1    2    0    0 -0.26511778205E+00  0.11635018241E+02 -0.14670871070E+02  0.72461590978E+02  0.70000026945E+02 0.  0.
         12    1    1    2    0    0  0.26511778205E+00 -0.11635018241E+02  0.14670871070E+02  0.18726409022E+02  0.00000000000E+00 0. -1.
         11    1    3    3    0    0 -0.39705272216E+01  0.19140162774E+02  0.23274698978E+02  0.30394449004E+02  0.51100000000E-03 0. -1.
        -11    1    3    3    0    0 -0.37766140380E+01 -0.88941556987E+01 -0.27465100130E+02  0.29115297432E+02  0.51100000000E-03 0.  1.
        -12    1    3    3    0    0  0.74820234776E+01  0.13890111652E+01 -0.10480469918E+02  0.12951844542E+02  0.00000000000E+00 0.  1.
</event>
<event>
 7    1  0.1333056E-013  0.7246158E+02  0.7816164E-02  0.1226708E+00
        -11   -1    0    0    0    0  0.00000000000E+00  0.00000000000E+00  0.45593999997E+02  0.45594000000E+02  0.51100000000E-03 0. -1.
         11   -1    0    0    0    0 -0.00000000000E+00 -0.00000000000E+00 -0.45593999997E+02  0.45594000000E+02  0.51100000000E-03 0.  1.
    9900012    2    1    2    0    0 -0.15538738172E+02 -0.10091480085E+02 -0.27182016842E+01  0.72461575497E+02  0.70000006777E+02 0.  0.
         12    1    1    2    0    0  0.15538738172E+02  0.10091480085E+02  0.27182016842E+01  0.18726424503E+02  0.00000000000E+00 0. -1.
         11    1    3    3    0    0  0.49378871447E+01 -0.33664941737E+02  0.52952242265E+01  0.34434727115E+02  0.51100000000E-03 0. -1.
        -11    1    3    3    0    0  0.35088863396E+01  0.41243994143E+01 -0.43193404902E+01  0.69267349022E+01  0.51100000000E-03 0.  1.
         12    1    3    3    0    0 -0.23985511656E+02  0.19449062237E+02 -0.36940854204E+01  0.31100113479E+02  0.00000000000E+00 0. -1.
</event>
<event>
 7    1  0.1333056E-013  0.7246161E+02  0.7816164E-02  0.1226708E+00
        -11   -1    0    0    0    0  0.00000000000E+00  0.00000000000E+00  0.45593999997E+02  0.45594000000E+02  0.51100000000E-03 0. -1.
         11   -1    0    0    0    0 -0.00000000000E+00 -0.00000000000E+00 -0.45593999997E+02  0.45594000000E+02  0.51100000000E-03 0.  1.
    9900012    2    1    2    0    0  0.10452352014E+01  0.16613157472E+02  0.85783542793E+01  0.72461610066E+02  0.70000051810E+02 0.  0.
         12    1    1    2    0    0 -0.10452352014E+01 -0.16613157472E+02 -0.85783542793E+01  0.18726389934E+02  0.00000000000E+00 0. -1.
         11    1    3    3    0    0 -0.10225325637E+02  0.83088418528E+01  0.60648749847E+01  0.14504373346E+02  0.51100000000E-03 0. -1.
        -11    1    3    3    0    0 -0.35521970920E+01 -0.22077755817E+02 -0.58878054974E+01  0.23123833159E+02  0.51100000000E-03 0.  1.
        -12    1    3    3    0    0  0.14822757931E+02  0.30382071437E+02  0.84012847920E+01  0.34833403561E+02  0.00000000000E+00 0.  1.
</event>
<event>
 7    1  0.1333056E-013  0.7246156E+02  0.7816164E-02  0.1226708E+00
        -11   -1    0    0    0    0  0.00000000000E+00  0.00000000000E+00  0.45593999997E+02  0.45594000000E+02  0.51100000000E-03 0.  1.
         11   -1    0    0    0    0 -0.00000000000E+00 -0.00000000000E+00 -0.45593999997E+02  0.45594000000E+02  0.51100000000E-03 0. -1.
    9900012    2    1    2    0    0 -0.71332892696E+01 -0.19976421267E+00  0.17313459824E+02  0.72461558464E+02  0.69999984589E+02 0.  0.
         12    1    1    2    0    0  0.71332892696E+01  0.19976421267E+00 -0.17313459824E+02  0.18726441536E+02  0.00000000000E+00 0. -1.
         11    1    3    3    0    0  0.16443172026E+02 -0.10273474309E+02 -0.11425798297E+02  0.22504911633E+02  0.51100000000E-03 0. -1.
        -11    1    3    3    0    0 -0.18585267578E+02  0.21370214717E+02  0.17740273252E+02  0.33418790273E+02  0.51100000000E-03 0.  1.
        -12    1    3    3    0    0 -0.49911937182E+01 -0.11296504621E+02  0.10998984868E+02  0.16537856557E+02  0.00000000000E+00 0.  1.
</event>
<event>
 7    1  0.1333056E-013  0.7246158E+02  0.7816164E-02  0.1226708E+00
        -11   -1    0    0    0    0  0.00000000000E+00  0.00000000000E+00  0.45593999997E+02  0.45594000000E+02  0.51100000000E-03 0.  1.
         11   -1    0    0    0    0 -0.00000000000E+00 -0.00000000000E+00 -0.45593999997E+02  0.45594000000E+02  0.51100000000E-03 0. -1.
    9900012    2    1    2    0    0  0.93616828517E+01 -0.80450484668E+01  0.14082434993E+02  0.72461577865E+02  0.70000009862E+02 0.  0.
         12    1    1    2    0    0 -0.93616828517E+01  0.80450484668E+01 -0.14082434993E+02  0.18726422135E+02  0.00000000000E+00 0. -1.
         11    1    3    3    0    0 -0.29956544557E+02 -0.85841503282E+01  0.35402636420E+01  0.31362647618E+02  0.51100000000E-03 0.  1.
        -11    1    3    3    0    0  0.24803877791E+02  0.30599081912E+01  0.67125693174E+01  0.25877673364E+02  0.51100000000E-03 0. -1.
        -12    1    3    3    0    0  0.14514349618E+02 -0.25208063298E+01  0.38296020334E+01  0.15221256883E+02  0.00000000000E+00 0.  1.
</event>
<event>
 7    1  0.1333056E-013  0.7246144E+02  0.7816164E-02  0.1226708E+00
        -11   -1    0    0    0    0  0.00000000000E+00  0.00000000000E+00  0.45593999997E+02  0.45594000000E+02  0.51100000000E-03 0. -1.
         11   -1    0    0    0    0 -0.00000000000E+00 -0.00000000000E+00 -0.45593999997E+02  0.45594000000E+02  0.51100000000E-03 0.  1.
    9900012    2    1    2    0    0 -0.62928672855E+01  0.12122966670E+02 -0.12810841432E+02  0.72461437108E+02  0.69999826499E+02 0.  0.
         12    1    1    2    0    0  0.62928672855E+01 -0.12122966670E+02  0.12810841432E+02  0.18726562892E+02  0.00000000000E+00 0. -1.
         11    1    3    3    0    0  0.36882247417E+01 -0.39108846858E+00  0.73526152506E+01  0.82351018950E+01  0.51100000000E-03 0. -1.
        -11    1    3    3    0    0 -0.24835670457E+01  0.26259656752E+02 -0.34205662641E+02  0.43194502370E+02  0.51100000000E-03 0.  1.
        -12    1    3    3    0    0 -0.74975249814E+01 -0.13745601613E+02  0.14042205958E+02  0.21031832843E+02  0.00000000000E+00 0.  1.
</event>
<event>
 7    1  0.1333056E-013  0.7246175E+02  0.7816164E-02  0.1226708E+00
        -11   -1    0    0    0    0  0.00000000000E+00  0.00000000000E+00  0.45593999997E+02  0.45594000000E+02  0.51100000000E-03 0. -1.
         11   -1    0    0    0    0 -0.00000000000E+00 -0.00000000000E+00 -0.45593999997E+02  0.45594000000E+02  0.51100000000E-03 0.  1.
    9900012    2    1    2    0    0  0.15817583091E+02 -0.58240444982E+01 -0.81582514542E+01  0.72461748481E+02  0.70000232121E+02 0.  0.
         12    1    1    2    0    0 -0.15817583091E+02  0.58240444982E+01  0.81582514542E+01  0.18726251519E+02  0.00000000000E+00 0. -1.
         11    1    3    3    0    0 -0.22681013022E+01 -0.32681933550E+02 -0.73944787327E+01  0.33584689667E+02  0.51100000000E-03 0. -1.
        -11    1    3    3    0    0  0.68724407299E+01  0.20415620139E+02 -0.92137044056E+01  0.23429048986E+02  0.51100000000E-03 0.  1.
         12    1    3    3    0    0  0.11213243663E+02  0.64422689129E+01  0.84499316841E+01  0.15448009828E+02  0.00000000000E+00 0. -1.
</event>
<event>
 7    1  0.1333056E-013  0.7246157E+02  0.7816164E-02  0.1226708E+00
        -11   -1    0    0    0    0  0.00000000000E+00  0.00000000000E+00  0.45593999997E+02  0.45594000000E+02  0.51100000000E-03 0. -1.
         11   -1    0    0    0    0 -0.00000000000E+00 -0.00000000000E+00 -0.45593999997E+02  0.45594000000E+02  0.51100000000E-03 0.  1.
    9900012    2    1    2    0    0 -0.16361893433E+01 -0.13223169559E+02 -0.13158647333E+02  0.72461566053E+02  0.69999994475E+02 0.  0.
         12    1    1    2    0    0  0.16361893433E+01  0.13223169559E+02  0.13158647333E+02  0.18726433947E+02  0.00000000000E+00 0. -1.
         11    1    3    3    0    0 -0.12167501626E+02 -0.27930018652E+02  0.11126450739E+02  0.32433500336E+02  0.51100000000E-03 0. -1.
        -11    1    3    3    0    0  0.21524116099E+01 -0.29505503007E+01 -0.19589919908E+02  0.19927458069E+02  0.51100000000E-03 0.  1.
         12    1    3    3    0    0  0.83789006727E+01  0.17657399394E+02 -0.46951781631E+01  0.20100607648E+02  0.00000000000E+00 0. -1.
</event>
<event>
 7    1  0.1333056E-013  0.7246158E+02  0.7816164E-02  0.1226708E+00
        -11   -1    0    0    0    0  0.00000000000E+00  0.00000000000E+00  0.45593999997E+02  0.45594000000E+02  0.51100000000E-03 0.  1.
         11   -1    0    0    0    0 -0.00000000000E+00 -0.00000000000E+00 -0.45593999997E+02  0.45594000000E+02  0.51100000000E-03 0. -1.
    9900012    2    1    2    0    0  0.13378044204E+02  0.36868927975E+01  0.12574315789E+02  0.72461583824E+02  0.70000017625E+02 0.  0.
         12    1    1    2    0    0 -0.13378044204E+02 -0.36868927975E+01 -0.12574315789E+02  0.18726416176E+02  0.00000000000E+00 0. -1.
         11    1    3    3    0    0  0.22917905543E+02 -0.17662588821E+02 -0.32259672426E+01  0.29113644623E+02  0.51100000000E-03 0. -1.
        -11    1    3    3    0    0 -0.24276474398E+01  0.17433887482E+02  0.25319412395E+02  0.30836772676E+02  0.51100000000E-03 0.  1.
         12    1    3    3    0    0 -0.71122138992E+01  0.39155941361E+01 -0.95191293626E+01  0.12511166525E+02  0.00000000000E+00 0. -1.
</event>
<event>
 7    1  0.1333056E-013  0.7246155E+02  0.7816164E-02  0.1226708E+00
        -11   -1    0    0    0    0  0.00000000000E+00  0.00000000000E+00  0.45593999997E+02  0.45594000000E+02  0.51100000000E-03 0. -1.
         11   -1    0    0    0    0 -0.00000000000E+00 -0.00000000000E+00 -0.45593999997E+02  0.45594000000E+02  0.51100000000E-03 0.  1.
    9900012    2    1    2    0    0 -0.15406990143E+01  0.18322566083E+02 -0.35482225895E+01  0.72461546388E+02  0.69999968858E+02 0.  0.
         12    1    1    2    0    0  0.15406990143E+01 -0.18322566083E+02  0.35482225895E+01  0.18726453612E+02  0.00000000000E+00 0. -1.
         11    1    3    3    0    0  0.30070206370E+02  0.56084076064E+01 -0.15180709171E+02  0.34148579447E+02  0.51100000000E-03 0. -1.
        -11    1    3    3    0    0 -0.12672067272E+02  0.72179268613E+01 -0.14382668649E+01  0.14654295240E+02  0.51100000000E-03 0.  1.
         12    1    3    3    0    0 -0.18938838112E+02  0.54962316158E+01  0.13070753447E+02  0.23658671702E+02  0.00000000000E+00 0. -1.
</event>
<event>
 7    1  0.1333056E-013  0.7246157E+02  0.7816164E-02  0.1226708E+00
        -11   -1    0    0    0    0  0.00000000000E+00  0.00000000000E+00  0.45593999997E+02  0.45594000000E+02  0.51100000000E-03 0.  1.
         11   -1    0    0    0    0 -0.00000000000E+00 -0.00000000000E+00 -0.45593999997E+02  0.45594000000E+02  0.51100000000E-03 0. -1.
    9900012    2    1    2    0    0  0.43182617399E+01  0.51218299298E+01  0.17487101287E+02  0.72461568474E+02  0.69999997628E+02 0.  0.
         12    1    1    2    0    0 -0.43182617399E+01 -0.51218299298E+01 -0.17487101287E+02  0.18726431526E+02  0.00000000000E+00 0. -1.
         11    1    3    3    0    0  0.25991380111E+02  0.36917881931E+01 -0.93751176697E+01  0.27876046558E+02  0.51100000000E-03 0. -1.
        -11    1    3    3    0    0 -0.10490763575E+02  0.69214491393E+01 -0.23876860187E+01  0.12793108432E+02  0.51100000000E-03 0.  1.
         12    1    3    3    0    0 -0.11182354796E+02 -0.54914074027E+01  0.29249904975E+02  0.31792413483E+02  0.00000000000E+00 0. -1.
</event>
<event>
 7    1  0.1333056E-013  0.7246156E+02  0.7816164E-02  0.1226708E+00
        -11   -1    0    0    0    0  0.00000000000E+00  0.00000000000E+00  0.45593999997E+02  0.45594000000E+02  0.51100000000E-03 0.  1.
         11   -1    0    0    0    0 -0.00000000000E+00 -0.00000000000E+00 -0.45593999997E+02  0.45594000000E+02  0.51100000000E-03 0. -1.
    9900012    2    1    2    0    0 -0.70004309305E+01 -0.14949051476E+02  0.88430425464E+01  0.72461559475E+02  0.69999985906E+02 0.  0.
         12    1    1    2    0    0  0.70004309305E+01  0.14949051476E+02 -0.88430425464E+01  0.18726440525E+02  0.00000000000E+00 0. -1.
         11    1    3    3    0    0  0.71744316386E+01 -0.23960320285E+01  0.91255175679E+01  0.11852784903E+02  0.51100000000E-03 0. -1.
        -11    1    3    3    0    0 -0.25303599473E+02  0.16306947668E+01 -0.21159287695E+02  0.33024941601E+02  0.51100000000E-03 0.  1.
        -12    1    3    3    0    0  0.11128736903E+02 -0.14183714215E+02  0.20876812674E+02  0.27583832971E+02  0.00000000000E+00 0.  1.
</event>
<event>
 7    1  0.1333056E-013  0.7246159E+02  0.7816164E-02  0.1226708E+00
        -11   -1    0    0    0    0  0.00000000000E+00  0.00000000000E+00  0.45593999997E+02  0.45594000000E+02  0.51100000000E-03 0.  1.
         11   -1    0    0    0    0 -0.00000000000E+00 -0.00000000000E+00 -0.45593999997E+02  0.45594000000E+02  0.51100000000E-03 0. -1.
    9900012    2    1    2    0    0  0.65581928993E+01 -0.13182226164E+02  0.11571412606E+02  0.72461586290E+02  0.70000020837E+02 0.  0.
         12    1    1    2    0    0 -0.65581928993E+01  0.13182226164E+02 -0.11571412606E+02  0.18726413710E+02  0.00000000000E+00 0. -1.
         11    1    3    3    0    0  0.10518543177E+02 -0.29186258583E+01 -0.17248590824E+02  0.20412545484E+02  0.51100000000E-03 0. -1.
        -11    1    3    3    0    0  0.13093866370E+02 -0.62376504809E+01  0.31160410268E+02  0.34370463895E+02  0.51100000000E-03 0.  1.
        -12    1    3    3    0    0 -0.17054216647E+02 -0.40259498247E+01 -0.23404068374E+01  0.17678576911E+02  0.00000000000E+00 0.  1.
</event>
<event>
 7    1  0.1333056E-013  0.7246154E+02  0.7816164E-02  0.1226708E+00
        -11   -1    0    0    0    0  0.00000000000E+00  0.00000000000E+00  0.45593999997E+02  0.45594000000E+02  0.51100000000E-03 0.  1.
         11   -1    0    0    0    0 -0.00000000000E+00 -0.00000000000E+00 -0.45593999997E+02  0.45594000000E+02  0.51100000000E-03 0. -1.
    9900012    2    1    2    0    0 -0.11341023876E+02 -0.62190631036E+01  0.13541960127E+02  0.72461541378E+02  0.69999962331E+02 0.  0.
         12    1    1    2    0    0  0.11341023876E+02  0.62190631036E+01 -0.13541960127E+02  0.18726458622E+02  0.00000000000E+00 0. -1.
         11    1    3    3    0    0  0.11279061364E+02 -0.11675954668E+02 -0.17056099914E+02  0.23546882749E+02  0.51100000000E-03 0. -1.
        -11    1    3    3    0    0 -0.77671641507E+01  0.85215403620E+01  0.31677325644E+02  0.33710509479E+02  0.51100000000E-03 0.  1.
        -12    1    3    3    0    0 -0.14852921089E+02 -0.30646487980E+01 -0.10792656030E+01  0.15204149150E+02  0.00000000000E+00 0.  1.
</event>
<event>
 7    1  0.1333056E-013  0.7246157E+02  0.7816164E-02  0.1226708E+00
        -11   -1    0    0    0    0  0.00000000000E+00  0.00000000000E+00  0.45593999997E+02  0.45594000000E+02  0.51100000000E-03 0.  1.
         11   -1    0    0    0    0 -0.00000000000E+00 -0.00000000000E+00 -0.45593999997E+02  0.45594000000E+02  0.51100000000E-03 0. -1.
    9900012    2    1    2    0    0 -0.15769615762E+02 -0.78824466508E+01  0.63139204320E+01  0.72461565804E+02  0.69999994150E+02 0.  0.
         12    1    1    2    0    0  0.15769615762E+02  0.78824466508E+01 -0.63139204320E+01  0.18726434196E+02  0.00000000000E+00 0. -1.
         11    1    3    3    0    0 -0.16490560221E+02  0.23512019192E+02 -0.10961861162E+01  0.28739437141E+02  0.51100000000E-03 0. -1.
        -11    1    3    3    0    0  0.13334819730E+02 -0.17930184119E+02 -0.29876578819E+01  0.22544068392E+02  0.51100000000E-03 0.  1.
        -12    1    3    3    0    0 -0.12613875271E+02 -0.13464281724E+02  0.10397764430E+02  0.21178060271E+02  0.00000000000E+00 0.  1.
</event>
<event>
 7    1  0.1333056E-013  0.7246157E+02  0.7816164E-02  0.1226708E+00
        -11   -1    0    0    0    0  0.00000000000E+00  0.00000000000E+00  0.45593999997E+02  0.45594000000E+02  0.51100000000E-03 0. -1.
         11   -1    0    0    0    0 -0.00000000000E+00 -0.00000000000E+00 -0.45593999997E+02  0.45594000000E+02  0.51100000000E-03 0.  1.
    9900012    2    1    2    0    0 -0.10552261812E+02  0.14924849422E+02  0.40715823885E+01  0.72461571009E+02  0.70000000931E+02 0.  0.
         12    1    1    2    0    0  0.10552261812E+02 -0.14924849422E+02 -0.40715823885E+01  0.18726428991E+02  0.00000000000E+00 0. -1.
         11    1    3    3    0    0 -0.51689258083E+01  0.13546576664E+02  0.19068556563E+02  0.23954903109E+02  0.51100000000E-03 0. -1.
        -11    1    3    3    0    0 -0.32732801819E+01  0.22382317745E+02 -0.15448094636E+02  0.27392081683E+02  0.51100000000E-03 0.  1.
         12    1    3    3    0    0 -0.21100558220E+01 -0.21004044988E+02  0.45112046209E+00  0.21114586216E+02  0.00000000000E+00 0. -1.
</event>
<event>
 7    1  0.1333056E-013  0.7246151E+02  0.7816164E-02  0.1226708E+00
        -11   -1    0    0    0    0  0.00000000000E+00  0.00000000000E+00  0.45593999997E+02  0.45594000000E+02  0.51100000000E-03 0.  1.
         11   -1    0    0    0    0 -0.00000000000E+00 -0.00000000000E+00 -0.45593999997E+02  0.45594000000E+02  0.51100000000E-03 0. -1.
    9900012    2    1    2    0    0  0.13970602317E+02  0.10112201899E+02 -0.72970710808E+01  0.72461505328E+02  0.69999915369E+02 0.  0.
         12    1    1    2    0    0 -0.13970602317E+02 -0.10112201899E+02  0.72970710808E+01  0.18726494672E+02  0.00000000000E+00 0. -1.
         11    1    3    3    0    0  0.10068500064E+02  0.28210174472E+01  0.32791729695E+01  0.10958367059E+02  0.51100000000E-03 0. -1.
        -11    1    3    3    0    0 -0.60067737111E+01  0.30269132544E+02  0.60673177983E+01  0.31450183798E+02  0.51100000000E-03 0.  1.
        -12    1    3    3    0    0  0.99088759640E+01 -0.22977948093E+02 -0.16643561849E+02  0.30052954471E+02  0.00000000000E+00 0.  1.
</event>
<event>
 7    1  0.1333056E-013  0.7246157E+02  0.7816164E-02  0.1226708E+00
        -11   -1    0    0    0    0  0.00000000000E+00  0.00000000000E+00  0.45593999997E+02  0.45594000000E+02  0.51100000000E-03 0.  1.
         11   -1    0    0    0    0 -0.00000000000E+00 -0.00000000000E+00 -0.45593999997E+02  0.45594000000E+02  0.51100000000E-03 0. -1.
    9900012    2    1    2    0    0  0.13576325568E+02 -0.12816604884E+02  0.14481656685E+01  0.72461570535E+02  0.70000000314E+02 0.  0.
         12    1    1    2    0    0 -0.13576325568E+02  0.12816604884E+02 -0.14481656685E+01  0.18726429465E+02  0.00000000000E+00 0. -1.
         11    1    3    3    0    0  0.18415438484E+02 -0.13452331085E+02  0.94147961462E+00  0.22824985658E+02  0.51100000000E-03 0. -1.
        -11    1    3    3    0    0 -0.13610350987E+02 -0.14509603321E+01 -0.21707489678E+02  0.25662463800E+02  0.51100000000E-03 0.  1.
        -12    1    3    3    0    0  0.87712380710E+01  0.20866865329E+01  0.22214175732E+02  0.23974121077E+02  0.00000000000E+00 0.  1.
</event>
<event>
 7    1  0.1333056E-013  0.7246161E+02  0.7816164E-02  0.1226708E+00
        -11   -1    0    0    0    0  0.00000000000E+00  0.00000000000E+00  0.45593999997E+02  0.45594000000E+02  0.51100000000E-03 0.  1.
         11   -1    0    0    0    0 -0.00000000000E+00 -0.00000000000E+00 -0.45593999997E+02  0.45594000000E+02  0.51100000000E-03 0. -1.
    9900012    2    1    2    0    0 -0.70323561171E+01 -0.11313445715E+02  0.13161668089E+02  0.72461612378E+02  0.70000054821E+02 0.  0.
         12    1    1    2    0    0  0.70323561171E+01  0.11313445715E+02 -0.13161668089E+02  0.18726387622E+02  0.00000000000E+00 0. -1.
         11    1    3    3    0    0  0.43298805052E+01  0.23368032798E+02 -0.25064636560E+01  0.23897597837E+02  0.51100000000E-03 0. -1.
        -11    1    3    3    0    0  0.91989652222E+01 -0.11082596748E+02  0.25521312720E+01  0.14627313018E+02  0.51100000000E-03 0.  1.
         12    1    3    3    0    0 -0.20561201845E+02 -0.23598881765E+02  0.13116000473E+02  0.33936701523E+02  0.00000000000E+00 0. -1.
</event>
<event>
 7    1  0.1333056E-013  0.7246158E+02  0.7816164E-02  0.1226708E+00
        -11   -1    0    0    0    0  0.00000000000E+00  0.00000000000E+00  0.45593999997E+02  0.45594000000E+02  0.51100000000E-03 0. -1.
         11   -1    0    0    0    0 -0.00000000000E+00 -0.00000000000E+00 -0.45593999997E+02  0.45594000000E+02  0.51100000000E-03 0.  1.
    9900012    2    1    2    0    0  0.13633212020E+02  0.12420559290E+02 -0.32471319524E+01  0.72461584726E+02  0.70000018800E+02 0.  0.
         12    1    1    2    0    0 -0.13633212020E+02 -0.12420559290E+02  0.32471319524E+01  0.18726415274E+02  0.00000000000E+00 0. -1.
         11    1    3    3    0    0  0.17367260578E+02  0.13277445400E+02  0.25236278124E+02  0.33388351714E+02  0.51100000000E-03 0. -1.
        -11    1    3    3    0    0 -0.12745542832E+02  0.59542923282E+01 -0.21809614387E+02  0.25953068011E+02  0.51100000000E-03 0.  1.
         12    1    3    3    0    0  0.90114942745E+01 -0.68111784380E+01 -0.66737956893E+01  0.13120165002E+02  0.00000000000E+00 0. -1.
</event>
<event>
 7    1  0.1333056E-013  0.7246158E+02  0.7816164E-02  0.1226708E+00
        -11   -1    0    0    0    0  0.00000000000E+00  0.00000000000E+00  0.45593999997E+02  0.45594000000E+02  0.51100000000E-03 0. -1.
         11   -1    0    0    0    0 -0.00000000000E+00 -0.00000000000E+00 -0.45593999997E+02  0.45594000000E+02  0.51100000000E-03 0.  1.
    9900012    2    1    2    0    0  0.13447917842E+02  0.15734483470E+01 -0.12936641156E+02  0.72461577000E+02  0.70000008736E+02 0.  0.
         12    1    1    2    0    0 -0.13447917842E+02 -0.15734483470E+01  0.12936641156E+02  0.18726423000E+02  0.00000000000E+00 0. -1.
         11    1    3    3    0    0 -0.21444464994E+02  0.43604486522E+01  0.23346314551E+01  0.22007478175E+02  0.51100000000E-03 0. -1.
        -11    1    3    3    0    0  0.17625520198E+02 -0.77530709515E+01 -0.23760089038E+02  0.30582853084E+02  0.51100000000E-03 0.  1.
         12    1    3    3    0    0  0.17266862637E+02  0.49660706463E+01  0.84888164270E+01  0.19871245742E+02  0.00000000000E+00 0. -1.
</event>
<event>
 7    1  0.1333056E-013  0.7246147E+02  0.7816164E-02  0.1226708E+00
        -11   -1    0    0    0    0  0.00000000000E+00  0.00000000000E+00  0.45593999997E+02  0.45594000000E+02  0.51100000000E-03 0. -1.
         11   -1    0    0    0    0 -0.00000000000E+00 -0.00000000000E+00 -0.45593999997E+02  0.45594000000E+02  0.51100000000E-03 0.  1.
    9900012    2    1    2    0    0 -0.13822664061E+02  0.12633094701E+02  0.14773585048E+00  0.72461469372E+02  0.69999868530E+02 0.  0.
         12    1    1    2    0    0  0.13822664061E+02 -0.12633094701E+02 -0.14773585048E+00  0.18726530628E+02  0.00000000000E+00 0. -1.
         11    1    3    3    0    0 -0.97597842077E+01  0.90575607441E+01  0.19760144173E+02  0.23827632959E+02  0.51100000000E-03 0. -1.
        -11    1    3    3    0    0  0.10972074433E+02 -0.16219528879E+02 -0.73473292667E+01  0.20915132848E+02  0.51100000000E-03 0.  1.
        -12    1    3    3    0    0 -0.15034954286E+02  0.19795062837E+02 -0.12265079056E+02  0.27718703565E+02  0.00000000000E+00 0.  1.
</event>
<event>
 7    1  0.1333056E-013  0.7246155E+02  0.7816164E-02  0.1226708E+00
        -11   -1    0    0    0    0  0.00000000000E+00  0.00000000000E+00  0.45593999997E+02  0.45594000000E+02  0.51100000000E-03 0. -1.
         11   -1    0    0    0    0 -0.00000000000E+00 -0.00000000000E+00 -0.45593999997E+02  0.45594000000E+02  0.51100000000E-03 0.  1.
    9900012    2    1    2    0    0  0.67545120157E+01 -0.15199880893E+02  0.86035048210E+01  0.72461545265E+02  0.69999967395E+02 0.  0.
         12    1    1    2    0    0 -0.67545120157E+01  0.15199880893E+02 -0.86035048210E+01  0.18726454735E+02  0.00000000000E+00 0. -1.
         11    1    3    3    0    0  0.98772468592E+01 -0.13144528899E+02  0.28899389522E+02  0.33249261052E+02  0.51100000000E-03 0. -1.
        -11    1    3    3    0    0  0.11019166099E+02 -0.22378733504E+01 -0.22254946436E+02  0.24934168119E+02  0.51100000000E-03 0.  1.
         12    1    3    3    0    0 -0.14141900943E+02  0.18252135615E+00  0.19590617350E+01  0.14278116094E+02  0.00000000000E+00 0. -1.
</event>
<event>
 7    1  0.1333056E-013  0.7246160E+02  0.7816164E-02  0.1226708E+00
        -11   -1    0    0    0    0  0.00000000000E+00  0.00000000000E+00  0.45593999997E+02  0.45594000000E+02  0.51100000000E-03 0.  1.
         11   -1    0    0    0    0 -0.00000000000E+00 -0.00000000000E+00 -0.45593999997E+02  0.45594000000E+02  0.51100000000E-03 0. -1.
    9900012    2    1    2    0    0 -0.13715443547E+02  0.87964420442E+01 -0.92296915675E+01  0.72461601768E+02  0.70000041000E+02 0.  0.
         12    1    1    2    0    0  0.13715443547E+02 -0.87964420442E+01  0.92296915675E+01  0.18726398232E+02  0.00000000000E+00 0. -1.
         11    1    3    3    0    0 -0.14197018150E+01 -0.10127687227E+02  0.25695038293E+02  0.27655389980E+02  0.51100000000E-03 0. -1.
        -11    1    3    3    0    0 -0.14697093220E+02  0.79281988499E+01 -0.22819606106E+02  0.28277116353E+02  0.51100000000E-03 0.  1.
         12    1    3    3    0    0  0.24013514884E+01  0.10995930421E+02 -0.12105123754E+02  0.16529095435E+02  0.00000000000E+00 0. -1.
</event>
<event>
 7    1  0.1333056E-013  0.7246153E+02  0.7816164E-02  0.1226708E+00
        -11   -1    0    0    0    0  0.00000000000E+00  0.00000000000E+00  0.45593999997E+02  0.45594000000E+02  0.51100000000E-03 0.  1.
         11   -1    0    0    0    0 -0.00000000000E+00 -0.00000000000E+00 -0.45593999997E+02  0.45594000000E+02  0.51100000000E-03 0. -1.
    9900012    2    1    2    0    0  0.51476372188E+01  0.27541914634E+01  0.17793172477E+02  0.72461528726E+02  0.69999945850E+02 0.  0.
         12    1    1    2    0    0 -0.51476372188E+01 -0.27541914634E+01 -0.17793172477E+02  0.18726471274E+02  0.00000000000E+00 0. -1.
         11    1    3    3    0    0 -0.92485875873E+01 -0.35546685192E+01  0.59932537289E+01  0.11579772500E+02  0.51100000000E-03 0. -1.
        -11    1    3    3    0    0  0.20373443176E+02 -0.22285012763E+02  0.91479085005E+01  0.31549694307E+02  0.51100000000E-03 0.  1.
        -12    1    3    3    0    0 -0.59772183702E+01  0.28593872745E+02  0.26520102480E+01  0.29332061918E+02  0.00000000000E+00 0.  1.
</event>
<event>
 7    1  0.1940046E-013  0.7246156E+02  0.7816164E-02  0.1226708E+00
        -11   -1    0    0    0    0  0.00000000000E+00  0.00000000000E+00  0.45593999997E+02  0.45594000000E+02  0.51100000000E-03 0. -1.
         11   -1    0    0    0    0 -0.00000000000E+00 -0.00000000000E+00 -0.45593999997E+02  0.45594000000E+02  0.51100000000E-03 0.  1.
    9900012    2    1    2    0    0  0.32729052597E+01 -0.95886517702E+01 -0.15748816383E+02  0.72461564966E+02  0.69999993059E+02 0.  0.
         12    1    1    2    0    0 -0.32729052597E+01  0.95886517702E+01  0.15748816383E+02  0.18726435034E+02  0.00000000000E+00 0. -1.
         11    1    3    3    0    0  0.17512056315E+02  0.65320818401E+01  0.88560908551E+01  0.20682614802E+02  0.51100000000E-03 0. -1.
        -11    1    3    3    0    0  0.41327911380E+01 -0.18382662269E+02 -0.27198818606E+02  0.33087429162E+02  0.51100000000E-03 0.  1.
        -12    1    3    3    0    0 -0.18371942193E+02  0.22619286590E+01  0.25939113680E+01  0.18691521003E+02  0.00000000000E+00 0.  1.
</event>
<event>
 7    1  0.1333056E-013  0.7246157E+02  0.7816164E-02  0.1226708E+00
        -11   -1    0    0    0    0  0.00000000000E+00  0.00000000000E+00  0.45593999997E+02  0.45594000000E+02  0.51100000000E-03 0. -1.
         11   -1    0    0    0    0 -0.00000000000E+00 -0.00000000000E+00 -0.45593999997E+02  0.45594000000E+02  0.51100000000E-03 0.  1.
    9900012    2    1    2    0    0  0.17603621833E+02 -0.63723286162E+01 -0.43007439565E+00  0.72461573816E+02  0.70000004587E+02 0.  0.
         12    1    1    2    0    0 -0.17603621833E+02  0.63723286162E+01  0.43007439565E+00  0.18726426184E+02  0.00000000000E+00 0. -1.
         11    1    3    3    0    0  0.37272672026E+01 -0.13201871079E+02  0.21054742192E+02  0.25129347183E+02  0.51100000000E-03 0. -1.
        -11    1    3    3    0    0 -0.72828024396E+01  0.93466249151E+01 -0.23101114732E+02  0.25962667637E+02  0.51100000000E-03 0.  1.
         12    1    3    3    0    0  0.21159157070E+02 -0.25170824522E+01  0.16162981448E+01  0.21369558996E+02  0.00000000000E+00 0. -1.
</event>
<event>
 7    1  0.1333056E-013  0.7246149E+02  0.7816164E-02  0.1226708E+00
        -11   -1    0    0    0    0  0.00000000000E+00  0.00000000000E+00  0.45593999997E+02  0.45594000000E+02  0.51100000000E-03 0. -1.
         11   -1    0    0    0    0 -0.00000000000E+00 -0.00000000000E+00 -0.45593999997E+02  0.45594000000E+02  0.51100000000E-03 0.  1.
    9900012    2    1    2    0    0  0.15224138006E+01 -0.12822875482E+02 -0.13562385501E+02  0.72461489917E+02  0.69999895293E+02 0.  0.
         12    1    1    2    0    0 -0.15224138006E+01  0.12822875482E+02  0.13562385501E+02  0.18726510083E+02  0.00000000000E+00 0. -1.
         11    1    3    3    0    0  0.60837083984E+01  0.55808530473E+01 -0.77607167630E+01  0.11330761384E+02  0.51100000000E-03 0. -1.
        -11    1    3    3    0    0  0.27278822988E+00 -0.36982205932E+02  0.75513954370E+01  0.37746278523E+02  0.51100000000E-03 0.  1.
        -12    1    3    3    0    0 -0.48340828277E+01  0.18578477402E+02 -0.13353064175E+02  0.23384450009E+02  0.00000000000E+00 0.  1.
</event>
<event>
 7    1  0.1333056E-013  0.7246160E+02  0.7816164E-02  0.1226708E+00
        -11   -1    0    0    0    0  0.00000000000E+00  0.00000000000E+00  0.45593999997E+02  0.45594000000E+02  0.51100000000E-03 0.  1.
         11   -1    0    0    0    0 -0.00000000000E+00 -0.00000000000E+00 -0.45593999997E+02  0.45594000000E+02  0.51100000000E-03 0. -1.
    9900012    2    1    2    0    0 -0.31452449935E+01  0.14616947214E+02  0.11275211122E+02  0.72461598910E+02  0.70000037277E+02 0.  0.
         12    1    1    2    0    0  0.31452449935E+01 -0.14616947214E+02 -0.11275211122E+02  0.18726401090E+02  0.00000000000E+00 0. -1.
         11    1    3    3    0    0 -0.95756039629E+01  0.31656286559E+02  0.18494210866E+02  0.37892591700E+02  0.51100000000E-03 0.  1.
        -11    1    3    3    0    0  0.52613630995E+00  0.47181494111E+01 -0.10748312798E+02  0.11750063044E+02  0.51100000000E-03 0. -1.
         12    1    3    3    0    0  0.59042226594E+01 -0.21757488756E+02  0.35293130547E+01  0.22818944165E+02  0.00000000000E+00 0. -1.
</event>
<event>
 8    1  0.1333056E-013  0.7246153E+02  0.7816164E-02  0.1226708E+00
        -11   -1    0    0    0    0  0.00000000000E+00  0.00000000000E+00  0.45593999997E+02  0.45594000000E+02  0.51100000000E-03 0. -1.
         11   -1    0    0    0    0 -0.00000000000E+00 -0.00000000000E+00 -0.45593999997E+02  0.45594000000E+02  0.51100000000E-03 0.  1.
    9900012    2    1    2    0    0 -0.39263620389E+01 -0.11220228837E+02 -0.14469645792E+02  0.72461534681E+02  0.69999953606E+02 0.  0.
         24    2    3    3    0    0  0.93639407600E+01 -0.14426232372E+01 -0.17400956587E+01  0.51622264861E+02  0.50715537542E+02 0.  0.
         12    1    1    2    0    0  0.39263620389E+01  0.11220228837E+02  0.14469645792E+02  0.18726465319E+02  0.00000000000E+00 0. -1.
         11    1    3    3    0    0 -0.13290302799E+02 -0.97776055996E+01 -0.12729550133E+02  0.20839269819E+02  0.51100000000E-03 0. -1.
        -11    1    4    4    0    0  0.19925830732E+02  0.48576841708E+01 -0.20624600845E+02  0.29086250809E+02  0.51100000000E-03 0.  1.
         12    1    4    4    0    0 -0.10561889972E+02 -0.63003074080E+01  0.18884505186E+02  0.22536014052E+02  0.00000000000E+00 0. -1.
</event>
<event>
 7    1  0.1333056E-013  0.7246186E+02  0.7816164E-02  0.1226707E+00
        -11   -1    0    0    0    0  0.00000000000E+00  0.00000000000E+00  0.45593999997E+02  0.45594000000E+02  0.51100000000E-03 0.  1.
         11   -1    0    0    0    0 -0.00000000000E+00 -0.00000000000E+00 -0.45593999997E+02  0.45594000000E+02  0.51100000000E-03 0. -1.
    9900012    2    1    2    0    0  0.72006109009E+01 -0.11937292242E+02  0.12502821020E+02  0.72461861133E+02  0.70000378870E+02 0.  0.
         12    1    1    2    0    0 -0.72006109009E+01  0.11937292242E+02 -0.12502821020E+02  0.18726138867E+02  0.00000000000E+00 0. -1.
         11    1    3    3    0    0 -0.19055178080E+02 -0.19411793121E+01  0.36467899708E+01  0.19497873374E+02  0.51100000000E-03 0. -1.
        -11    1    3    3    0    0  0.26633544343E+02 -0.25398715445E+02  0.66747774248E+01  0.37403115972E+02  0.51100000000E-03 0.  1.
        -12    1    3    3    0    0 -0.37775536223E+00  0.15402602516E+02  0.21812536247E+01  0.15560871786E+02  0.00000000000E+00 0.  1.
</event>
<event>
 7    1  0.1333056E-013  0.7246147E+02  0.7816164E-02  0.1226708E+00
        -11   -1    0    0    0    0  0.00000000000E+00  0.00000000000E+00  0.45593999997E+02  0.45594000000E+02  0.51100000000E-03 0. -1.
         11   -1    0    0    0    0 -0.00000000000E+00 -0.00000000000E+00 -0.45593999997E+02  0.45594000000E+02  0.51100000000E-03 0.  1.
    9900012    2    1    2    0    0 -0.51099765250E+01 -0.14208361532E+02  0.11076713236E+02  0.72461468724E+02  0.69999867686E+02 0.  0.
         12    1    1    2    0    0  0.51099765250E+01  0.14208361532E+02 -0.11076713236E+02  0.18726531276E+02  0.00000000000E+00 0. -1.
         11    1    3    3    0    0 -0.11005611870E+02  0.80230907308E+01  0.23842553160E+02  0.27458346982E+02  0.51100000000E-03 0. -1.
        -11    1    3    3    0    0  0.18235535885E+02 -0.18765278096E+01 -0.10415499119E+02  0.21084087549E+02  0.51100000000E-03 0.  1.
         12    1    3    3    0    0 -0.12339900540E+02 -0.20354924453E+02 -0.23503408055E+01  0.23919034193E+02  0.00000000000E+00 0. -1.
</event>
<event>
 7    1  0.1333056E-013  0.7246155E+02  0.7816164E-02  0.1226708E+00
        -11   -1    0    0    0    0  0.00000000000E+00  0.00000000000E+00  0.45593999997E+02  0.45594000000E+02  0.51100000000E-03 0.  1.
         11   -1    0    0    0    0 -0.00000000000E+00 -0.00000000000E+00 -0.45593999997E+02  0.45594000000E+02  0.51100000000E-03 0. -1.
    9900012    2    1    2    0    0  0.16293244013E+02  0.79354988334E+01  0.47157357388E+01  0.72461545296E+02  0.69999967435E+02 0.  0.
         12    1    1    2    0    0 -0.16293244013E+02 -0.79354988334E+01 -0.47157357388E+01  0.18726454704E+02  0.00000000000E+00 0. -1.
         11    1    3    3    0    0  0.16838415964E+02 -0.19908215134E+02 -0.15899658056E+02  0.30539620308E+02  0.51100000000E-03 0. -1.
        -11    1    3    3    0    0 -0.51276127874E+01  0.14580875365E+02 -0.17125077797E+01  0.15550788484E+02  0.51100000000E-03 0.  1.
         12    1    3    3    0    0  0.45824408366E+01  0.13262838602E+02  0.22327901575E+02  0.26371136505E+02  0.00000000000E+00 0. -1.
</event>
<event>
 7    1  0.1333056E-013  0.7246170E+02  0.7816164E-02  0.1226708E+00
        -11   -1    0    0    0    0  0.00000000000E+00  0.00000000000E+00  0.45593999997E+02  0.45594000000E+02  0.51100000000E-03 0.  1.
         11   -1    0    0    0    0 -0.00000000000E+00 -0.00000000000E+00 -0.45593999997E+02  0.45594000000E+02  0.51100000000E-03 0. -1.
    9900012    2    1    2    0    0  0.15878083988E+01 -0.11578265011E+02  0.14632054736E+02  0.72461698123E+02  0.70000166520E+02 0.  0.
         12    1    1    2    0    0 -0.15878083988E+01  0.11578265011E+02 -0.14632054736E+02  0.18726301877E+02  0.00000000000E+00 0. -1.
         11    1    3    3    0    0 -0.13250839855E+02 -0.23679111888E+02  0.48126813610E+01  0.27558065948E+02  0.51100000000E-03 0. -1.
        -11    1    3    3    0    0  0.18362578469E+02  0.11080349805E+02 -0.10763699992E+02  0.23996159643E+02  0.51100000000E-03 0.  1.
        -12    1    3    3    0    0 -0.35239302151E+01  0.10204970715E+01  0.20583073367E+02  0.20907472532E+02  0.00000000000E+00 0.  1.
</event>
<event>
 7    1  0.1333056E-013  0.7246149E+02  0.7816164E-02  0.1226708E+00
        -11   -1    0    0    0    0  0.00000000000E+00  0.00000000000E+00  0.45593999997E+02  0.45594000000E+02  0.51100000000E-03 0.  1.
         11   -1    0    0    0    0 -0.00000000000E+00 -0.00000000000E+00 -0.45593999997E+02  0.45594000000E+02  0.51100000000E-03 0. -1.
    9900012    2    1    2    0    0  0.32569917584E+01  0.20640404265E+00  0.18439950025E+02  0.72461485245E+02  0.69999889207E+02 0.  0.
         12    1    1    2    0    0 -0.32569917584E+01 -0.20640404265E+00 -0.18439950025E+02  0.18726514755E+02  0.00000000000E+00 0. -1.
         11    1    3    3    0    0  0.73700966811E+01 -0.12311455208E+02 -0.22614269194E+02  0.26782371551E+02  0.51100000000E-03 0. -1.
        -11    1    3    3    0    0 -0.81337251620E+01  0.31599918351E+01  0.26616823621E+02  0.28010682486E+02  0.51100000000E-03 0.  1.
        -12    1    3    3    0    0  0.40206202393E+01  0.93578674156E+01  0.14437395598E+02  0.17668431208E+02  0.00000000000E+00 0.  1.
</event>
<event>
 7    1  0.1333056E-013  0.7246157E+02  0.7816164E-02  0.1226708E+00
        -11   -1    0    0    0    0  0.00000000000E+00  0.00000000000E+00  0.45593999997E+02  0.45594000000E+02  0.51100000000E-03 0.  1.
         11   -1    0    0    0    0 -0.00000000000E+00 -0.00000000000E+00 -0.45593999997E+02  0.45594000000E+02  0.51100000000E-03 0. -1.
    9900012    2    1    2    0    0 -0.73431911881E-01 -0.18155213961E+02  0.45893514778E+01  0.72461565924E+02  0.69999994307E+02 0.  0.
         12    1    1    2    0    0  0.73431911881E-01  0.18155213961E+02 -0.45893514778E+01  0.18726434076E+02  0.00000000000E+00 0. -1.
         11    1    3    3    0    0 -0.26728516960E+02  0.62325452627E+01 -0.13323284342E+02  0.30508493002E+02  0.51100000000E-03 0. -1.
        -11    1    3    3    0    0  0.26544910187E+02 -0.19612628604E+02  0.16862748079E+02  0.37062646029E+02  0.51100000000E-03 0.  1.
         12    1    3    3    0    0  0.11017486125E+00 -0.47751306195E+01  0.10498877402E+01  0.48904268935E+01  0.00000000000E+00 0. -1.
</event>
<event>
 7    1  0.1333056E-013  0.7246158E+02  0.7816164E-02  0.1226708E+00
        -11   -1    0    0    0    0  0.00000000000E+00  0.00000000000E+00  0.45593999997E+02  0.45594000000E+02  0.51100000000E-03 0.  1.
         11   -1    0    0    0    0 -0.00000000000E+00 -0.00000000000E+00 -0.45593999997E+02  0.45594000000E+02  0.51100000000E-03 0. -1.
    9900012    2    1    2    0    0  0.54914985661E+01 -0.17354101149E+02  0.43997260475E+01  0.72461575556E+02  0.70000006854E+02 0.  0.
         12    1    1    2    0    0 -0.54914985661E+01  0.17354101149E+02 -0.43997260475E+01  0.18726424444E+02  0.00000000000E+00 0. -1.
         11    1    3    3    0    0  0.10255731706E+01 -0.30367741286E+02 -0.12732521602E+02  0.32944933111E+02  0.51100000000E-03 0. -1.
        -11    1    3    3    0    0 -0.79168475855E+01  0.71424864484E+01  0.22421095623E+02  0.24827346164E+02  0.51100000000E-03 0.  1.
         12    1    3    3    0    0  0.12382772981E+02  0.58711536885E+01 -0.52888479734E+01  0.14689296281E+02  0.00000000000E+00 0. -1.
</event>
<event>
 7    1  0.1333056E-013  0.7246155E+02  0.7816164E-02  0.1226708E+00
        -11   -1    0    0    0    0  0.00000000000E+00  0.00000000000E+00  0.45593999997E+02  0.45594000000E+02  0.51100000000E-03 0. -1.
         11   -1    0    0    0    0 -0.00000000000E+00 -0.00000000000E+00 -0.45593999997E+02  0.45594000000E+02  0.51100000000E-03 0.  1.
    9900012    2    1    2    0    0 -0.10440590195E+02  0.11956996370E+02  0.99350039232E+01  0.72461548420E+02  0.69999971505E+02 0.  0.
         12    1    1    2    0    0  0.10440590195E+02 -0.11956996370E+02 -0.99350039232E+01  0.18726451580E+02  0.00000000000E+00 0. -1.
         11    1    3    3    0    0 -0.12622495481E+02  0.10588991105E+02  0.23988733567E+02  0.29101777664E+02  0.51100000000E-03 0. -1.
        -11    1    3    3    0    0 -0.85695677464E+01 -0.16906085805E+02 -0.11066372410E+02  0.21948071150E+02  0.51100000000E-03 0.  1.
         12    1    3    3    0    0  0.10751473032E+02  0.18274091071E+02 -0.29873572339E+01  0.21411699607E+02  0.00000000000E+00 0. -1.
</event>
<event>
 8    1  0.1333056E-013  0.7246154E+02  0.7816164E-02  0.1226708E+00
        -11   -1    0    0    0    0  0.00000000000E+00  0.00000000000E+00  0.45593999997E+02  0.45594000000E+02  0.51100000000E-03 0. -1.
         11   -1    0    0    0    0 -0.00000000000E+00 -0.00000000000E+00 -0.45593999997E+02  0.45594000000E+02  0.51100000000E-03 0.  1.
    9900012    2    1    2    0    0  0.85133983375E+01 -0.14120982483E+02 -0.88769475990E+01  0.72461540212E+02  0.69999960812E+02 0.  0.
         24    2    3    3    0    0  0.22209101936E+02 -0.18913213958E+02 -0.55352179937E+01  0.57571780758E+02  0.49324612825E+02 0.  0.
         12    1    1    2    0    0 -0.85133983375E+01  0.14120982483E+02  0.88769475990E+01  0.18726459788E+02  0.00000000000E+00 0. -1.
         11    1    3    3    0    0 -0.13695703599E+02  0.47922314749E+01 -0.33417296053E+01  0.14889759454E+02  0.51100000000E-03 0. -1.
        -11    1    4    4    0    0  0.14561267075E+02 -0.30284853568E+02 -0.18795131955E+02  0.38502725098E+02  0.51100000000E-03 0.  1.
         12    1    4    4    0    0  0.76478348618E+01  0.11371639611E+02  0.13259913961E+02  0.19069055660E+02  0.00000000000E+00 0. -1.
</event>
<event>
 7    1  0.1333056E-013  0.7246156E+02  0.7816164E-02  0.1226708E+00
        -11   -1    0    0    0    0  0.00000000000E+00  0.00000000000E+00  0.45593999997E+02  0.45594000000E+02  0.51100000000E-03 0.  1.
         11   -1    0    0    0    0 -0.00000000000E+00 -0.00000000000E+00 -0.45593999997E+02  0.45594000000E+02  0.51100000000E-03 0. -1.
    9900012    2    1    2    0    0  0.81292836270E+01  0.12331462041E+02  0.11512135840E+02  0.72461562006E+02  0.69999989203E+02 0.  0.
         12    1    1    2    0    0 -0.81292836270E+01 -0.12331462041E+02 -0.11512135840E+02  0.18726437994E+02  0.00000000000E+00 0. -1.
         11    1    3    3    0    0 -0.10111743930E+02 -0.16886258420E+02 -0.15146474351E+02  0.24835635169E+02  0.51100000000E-03 0. -1.
        -11    1    3    3    0    0  0.18234648372E+02  0.11931852638E+02  0.11525429291E+02  0.24651714529E+02  0.51100000000E-03 0.  1.
         12    1    3    3    0    0  0.63791847370E-02  0.17285867822E+02  0.15133180899E+02  0.22974212308E+02  0.00000000000E+00 0. -1.
</event>
<event>
 7    1  0.1333056E-013  0.7246101E+02  0.7816164E-02  0.1226710E+00
        -11   -1    0    0    0    0  0.00000000000E+00  0.00000000000E+00  0.45593999997E+02  0.45594000000E+02  0.51100000000E-03 0.  1.
         11   -1    0    0    0    0 -0.00000000000E+00 -0.00000000000E+00 -0.45593999997E+02  0.45594000000E+02  0.51100000000E-03 0. -1.
    9900012    2    1    2    0    0 -0.85404407698E+01  0.10655193437E+02  0.12815149098E+02  0.72461005523E+02  0.69999264277E+02 0.  0.
         12    1    1    2    0    0  0.85404407698E+01 -0.10655193437E+02 -0.12815149098E+02  0.18726994477E+02  0.00000000000E+00 0. -1.
         11    1    3    3    0    0  0.66075307868E+01 -0.10103734904E+02  0.21943921133E+02  0.25045570408E+02  0.51100000000E-03 0. -1.
        -11    1    3    3    0    0 -0.21169387858E+02  0.28982716734E+02 -0.43339586681E+01  0.36151404531E+02  0.51100000000E-03 0.  1.
        -12    1    3    3    0    0  0.60214163014E+01 -0.82237883922E+01 -0.47948133663E+01  0.11264030585E+02  0.00000000000E+00 0.  1.
</event>
<event>
 7    1  0.1333056E-013  0.7246160E+02  0.7816164E-02  0.1226708E+00
        -11   -1    0    0    0    0  0.00000000000E+00  0.00000000000E+00  0.45593999997E+02  0.45594000000E+02  0.51100000000E-03 0.  1.
         11   -1    0    0    0    0 -0.00000000000E+00 -0.00000000000E+00 -0.45593999997E+02  0.45594000000E+02  0.51100000000E-03 0. -1.
    9900012    2    1    2    0    0  0.14013780324E+02 -0.94026383013E+01  0.81167869667E+01  0.72461604814E+02  0.70000044968E+02 0.  0.
         12    1    1    2    0    0 -0.14013780324E+02  0.94026383013E+01 -0.81167869667E+01  0.18726395186E+02  0.00000000000E+00 0. -1.
         11    1    3    3    0    0  0.16672374415E+02  0.24236406564E+02 -0.81308284400E+00  0.29428431419E+02  0.51100000000E-03 0. -1.
        -11    1    3    3    0    0  0.56561172126E+00 -0.36004680339E+02  0.12038381263E+02  0.37968138572E+02  0.51100000000E-03 0.  1.
        -12    1    3    3    0    0 -0.32242058123E+01  0.23656354739E+01 -0.31085114519E+01  0.50650348234E+01  0.00000000000E+00 0.  1.
</event>
<event>
 7    1  0.1333056E-013  0.7246142E+02  0.7816164E-02  0.1226708E+00
        -11   -1    0    0    0    0  0.00000000000E+00  0.00000000000E+00  0.45593999997E+02  0.45594000000E+02  0.51100000000E-03 0. -1.
         11   -1    0    0    0    0 -0.00000000000E+00 -0.00000000000E+00 -0.45593999997E+02  0.45594000000E+02  0.51100000000E-03 0.  1.
    9900012    2    1    2    0    0 -0.92783726507E+01  0.12058607775E+02 -0.10917252254E+02  0.72461424838E+02  0.69999810516E+02 0.  0.
         12    1    1    2    0    0  0.92783726507E+01 -0.12058607775E+02  0.10917252254E+02  0.18726575162E+02  0.00000000000E+00 0. -1.
         11    1    3    3    0    0 -0.12980750132E+02 -0.54812537100E+01 -0.35117046465E+02  0.37838485289E+02  0.51100000000E-03 0.  1.
        -11    1    3    3    0    0 -0.52568900204E+01  0.14247720309E+02  0.15678082781E+02  0.21827384329E+02  0.51100000000E-03 0. -1.
        -12    1    3    3    0    0  0.89592675021E+01  0.32921411759E+01  0.85217114310E+01  0.12795555221E+02  0.00000000000E+00 0.  1.
</event>
<event>
 7    1  0.1333056E-013  0.7246159E+02  0.7816164E-02  0.1226708E+00
        -11   -1    0    0    0    0  0.00000000000E+00  0.00000000000E+00  0.45593999997E+02  0.45594000000E+02  0.51100000000E-03 0. -1.
         11   -1    0    0    0    0 -0.00000000000E+00 -0.00000000000E+00 -0.45593999997E+02  0.45594000000E+02  0.51100000000E-03 0.  1.
    9900012    2    1    2    0    0  0.17226864116E+02  0.72128047536E+01  0.13743604709E+01  0.72461594408E+02  0.70000031413E+02 0.  0.
         12    1    1    2    0    0 -0.17226864116E+02 -0.72128047536E+01 -0.13743604709E+01  0.18726405592E+02  0.00000000000E+00 0. -1.
         11    1    3    3    0    0  0.99148391308E+01  0.22722783132E+02 -0.11015487068E+02  0.27128764510E+02  0.51100000000E-03 0. -1.
        -11    1    3    3    0    0  0.31775948644E+01 -0.20991511862E+02 -0.88570732357E+01  0.23004095851E+02  0.51100000000E-03 0.  1.
         12    1    3    3    0    0  0.41344301206E+01  0.54815334830E+01  0.21246920774E+02  0.22328734047E+02  0.00000000000E+00 0. -1.
</event>
<event>
 7    1  0.1333056E-013  0.7246156E+02  0.7816164E-02  0.1226708E+00
        -11   -1    0    0    0    0  0.00000000000E+00  0.00000000000E+00  0.45593999997E+02  0.45594000000E+02  0.51100000000E-03 0.  1.
         11   -1    0    0    0    0 -0.00000000000E+00 -0.00000000000E+00 -0.45593999997E+02  0.45594000000E+02  0.51100000000E-03 0. -1.
    9900012    2    1    2    0    0 -0.27194515527E+01 -0.13509402761E+02  0.12679907177E+02  0.72461563454E+02  0.69999991089E+02 0.  0.
         12    1    1    2    0    0  0.27194515527E+01  0.13509402761E+02 -0.12679907177E+02  0.18726436546E+02  0.00000000000E+00 0. -1.
         11    1    3    3    0    0  0.22611246350E+02  0.66043535662E+01  0.12352942551E+01  0.23588384847E+02  0.51100000000E-03 0. -1.
        -11    1    3    3    0    0 -0.13297683896E+02 -0.29160199600E+01  0.21618647248E+02  0.25547944703E+02  0.51100000000E-03 0.  1.
        -12    1    3    3    0    0 -0.12033014006E+02 -0.17197736367E+02 -0.10174034327E+02  0.23325233905E+02  0.00000000000E+00 0.  1.
</event>
<event>
 7    1  0.1333056E-013  0.7246155E+02  0.7816164E-02  0.1226708E+00
        -11   -1    0    0    0    0  0.00000000000E+00  0.00000000000E+00  0.45593999997E+02  0.45594000000E+02  0.51100000000E-03 0. -1.
         11   -1    0    0    0    0 -0.00000000000E+00 -0.00000000000E+00 -0.45593999997E+02  0.45594000000E+02  0.51100000000E-03 0.  1.
    9900012    2    1    2    0    0  0.43357730868E+00  0.12629849898E+02 -0.13819515826E+02  0.72461545039E+02  0.69999967101E+02 0.  0.
         12    1    1    2    0    0 -0.43357730868E+00 -0.12629849898E+02  0.13819515826E+02  0.18726454961E+02  0.00000000000E+00 0. -1.
         11    1    3    3    0    0  0.11610422985E+02  0.31212767317E+02 -0.87367982319E+00  0.33313692112E+02  0.51100000000E-03 0.  1.
        -11    1    3    3    0    0 -0.17545277170E+01 -0.24574436885E+02 -0.42626563866E+01  0.25003030925E+02  0.51100000000E-03 0. -1.
        -12    1    3    3    0    0 -0.94223179590E+01  0.59915194660E+01 -0.86831796160E+01  0.14144822002E+02  0.00000000000E+00 0.  1.
</event>
<event>
 7    1  0.1333056E-013  0.7246161E+02  0.7816164E-02  0.1226708E+00
        -11   -1    0    0    0    0  0.00000000000E+00  0.00000000000E+00  0.45593999997E+02  0.45594000000E+02  0.51100000000E-03 0.  1.
         11   -1    0    0    0    0 -0.00000000000E+00 -0.00000000000E+00 -0.45593999997E+02  0.45594000000E+02  0.51100000000E-03 0. -1.
    9900012    2    1    2    0    0  0.16000613192E+02  0.88404751831E+01 -0.40625192255E+01  0.72461609893E+02  0.70000051584E+02 0.  0.
         12    1    1    2    0    0 -0.16000613192E+02 -0.88404751831E+01  0.40625192255E+01  0.18726390107E+02  0.00000000000E+00 0. -1.
         11    1    3    3    0    0  0.29270175118E+01  0.28503931240E+02  0.69607689900E+01  0.29487180822E+02  0.51100000000E-03 0. -1.
        -11    1    3    3    0    0  0.10279696048E+02 -0.12379806473E+02  0.11078527410E+02  0.19536261899E+02  0.51100000000E-03 0.  1.
         12    1    3    3    0    0  0.27938996325E+01 -0.72836495840E+01 -0.22101815625E+02  0.23438167171E+02  0.00000000000E+00 0. -1.
</event>
<event>
 7    1  0.1333056E-013  0.7246164E+02  0.7816164E-02  0.1226708E+00
        -11   -1    0    0    0    0  0.00000000000E+00  0.00000000000E+00  0.45593999997E+02  0.45594000000E+02  0.51100000000E-03 0.  1.
         11   -1    0    0    0    0 -0.00000000000E+00 -0.00000000000E+00 -0.45593999997E+02  0.45594000000E+02  0.51100000000E-03 0. -1.
    9900012    2    1    2    0    0 -0.10985870639E+02 -0.15114935197E+02 -0.12352220905E+01  0.72461644419E+02  0.70000096562E+02 0.  0.
         12    1    1    2    0    0  0.10985870639E+02  0.15114935197E+02  0.12352220905E+01  0.18726355581E+02  0.00000000000E+00 0. -1.
         11    1    3    3    0    0 -0.19390721390E+02  0.23642451626E+02  0.70086336607E+01  0.31370153665E+02  0.51100000000E-03 0. -1.
        -11    1    3    3    0    0  0.34509953429E+01 -0.15801007571E+02  0.84446618652E-01  0.16173692856E+02  0.51100000000E-03 0.  1.
         12    1    3    3    0    0  0.49538554077E+01 -0.22956379252E+02 -0.83283023698E+01  0.24917797898E+02  0.00000000000E+00 0. -1.
</event>
<event>
 8    1  0.1418663E-013  0.7246149E+02  0.7816164E-02  0.1226708E+00
        -11   -1    0    0    0    0  0.00000000000E+00  0.00000000000E+00  0.45593999997E+02  0.45594000000E+02  0.51100000000E-03 0. -1.
         11   -1    0    0    0    0 -0.00000000000E+00 -0.00000000000E+00 -0.45593999997E+02  0.45594000000E+02  0.51100000000E-03 0.  1.
    9900012    2    1    2    0    0 -0.25295566671E+00  0.52287069415E+01 -0.17979954677E+02  0.72461491168E+02  0.69999896923E+02 0.  0.
        -24    2    3    3    0    0 -0.13599791245E+02  0.34745172374E+01 -0.96545404539E+00  0.50765675132E+02  0.48776993328E+02 0.  0.
         12    1    1    2    0    0  0.25295566671E+00 -0.52287069415E+01  0.17979954677E+02  0.18726508832E+02  0.00000000000E+00 0. -1.
         11    1    4    4    0    0  0.70083773414E+00  0.14760647314E+02  0.18782075728E+02  0.23898415252E+02  0.51100000000E-03 0. -1.
        -11    1    3    3    0    0  0.13346835579E+02  0.17541897041E+01 -0.17014500631E+02  0.21695816036E+02  0.51100000000E-03 0.  1.
        -12    1    4    4    0    0 -0.14300628980E+02 -0.11286130077E+02 -0.19747529773E+02  0.26867259880E+02  0.00000000000E+00 0.  1.
</event>
<event>
 7    1  0.1333056E-013  0.7246157E+02  0.7816164E-02  0.1226708E+00
        -11   -1    0    0    0    0  0.00000000000E+00  0.00000000000E+00  0.45593999997E+02  0.45594000000E+02  0.51100000000E-03 0.  1.
         11   -1    0    0    0    0 -0.00000000000E+00 -0.00000000000E+00 -0.45593999997E+02  0.45594000000E+02  0.51100000000E-03 0. -1.
    9900012    2    1    2    0    0  0.74109965552E+01 -0.13129480438E+02  0.11107350296E+02  0.72461565286E+02  0.69999993476E+02 0.  0.
         12    1    1    2    0    0 -0.74109965552E+01  0.13129480438E+02 -0.11107350296E+02  0.18726434714E+02  0.00000000000E+00 0. -1.
         11    1    3    3    0    0 -0.48653041668E+01  0.94510403349E+01 -0.52953332932E+01  0.11875769575E+02  0.51100000000E-03 0. -1.
        -11    1    3    3    0    0  0.19733269963E+01 -0.15514885685E+02  0.34911874813E+02  0.38254995758E+02  0.51100000000E-03 0.  1.
        -12    1    3    3    0    0  0.10302973726E+02 -0.70656350873E+01 -0.18509191224E+02  0.22330799953E+02  0.00000000000E+00 0.  1.
</event>
<event>
 7    1  0.1333056E-013  0.7246154E+02  0.7816164E-02  0.1226708E+00
        -11   -1    0    0    0    0  0.00000000000E+00  0.00000000000E+00  0.45593999997E+02  0.45594000000E+02  0.51100000000E-03 0.  1.
         11   -1    0    0    0    0 -0.00000000000E+00 -0.00000000000E+00 -0.45593999997E+02  0.45594000000E+02  0.51100000000E-03 0. -1.
    9900012    2    1    2    0    0  0.35865237762E+01 -0.10503130596E+02  0.15083146881E+02  0.72461542114E+02  0.69999963290E+02 0.  0.
         12    1    1    2    0    0 -0.35865237762E+01  0.10503130596E+02 -0.15083146881E+02  0.18726457886E+02  0.00000000000E+00 0. -1.
         11    1    3    3    0    0 -0.20552636762E+02 -0.22978202699E+02 -0.41912814491E+01  0.31112304922E+02  0.51100000000E-03 0.  1.
        -11    1    3    3    0    0  0.13051476830E+02  0.15654955845E+02  0.18671786608E+01  0.20467169965E+02  0.51100000000E-03 0. -1.
        -12    1    3    3    0    0  0.11087683708E+02 -0.31798837422E+01  0.17407249670E+02  0.20882067227E+02  0.00000000000E+00 0.  1.
</event>
<event>
 7    1  0.1333056E-013  0.7246156E+02  0.7816164E-02  0.1226708E+00
        -11   -1    0    0    0    0  0.00000000000E+00  0.00000000000E+00  0.45593999997E+02  0.45594000000E+02  0.51100000000E-03 0. -1.
         11   -1    0    0    0    0 -0.00000000000E+00 -0.00000000000E+00 -0.45593999997E+02  0.45594000000E+02  0.51100000000E-03 0.  1.
    9900012    2    1    2    0    0 -0.14039532953E+02 -0.44013528894E+01 -0.11584429789E+02  0.72461563971E+02  0.69999991763E+02 0.  0.
         12    1    1    2    0    0  0.14039532953E+02  0.44013528894E+01  0.11584429789E+02  0.18726436029E+02  0.00000000000E+00 0. -1.
         11    1    3    3    0    0 -0.29597172207E+02 -0.10747068570E+01 -0.22167709539E+02  0.36993985241E+02  0.51100000000E-03 0. -1.
        -11    1    3    3    0    0  0.11120813477E+02  0.12894977550E+02  0.56675828004E+01  0.17946432332E+02  0.51100000000E-03 0.  1.
         12    1    3    3    0    0  0.44368257771E+01 -0.16221623582E+02  0.49156969501E+01  0.17521146399E+02  0.00000000000E+00 0. -1.
</event>
<event>
 7    1  0.1556276E-013  0.7246151E+02  0.7816164E-02  0.1226708E+00
        -11   -1    0    0    0    0  0.00000000000E+00  0.00000000000E+00  0.45593999997E+02  0.45594000000E+02  0.51100000000E-03 0.  1.
         11   -1    0    0    0    0 -0.00000000000E+00 -0.00000000000E+00 -0.45593999997E+02  0.45594000000E+02  0.51100000000E-03 0. -1.
    9900012    2    1    2    0    0  0.13263277708E+02 -0.21053874080E+01 -0.13051217142E+02  0.72461509122E+02  0.69999920312E+02 0.  0.
         12    1    1    2    0    0 -0.13263277708E+02  0.21053874080E+01  0.13051217142E+02  0.18726490878E+02  0.00000000000E+00 0. -1.
         11    1    3    3    0    0 -0.13426577553E+02  0.16516536455E+01 -0.24552996797E+02  0.28033026889E+02  0.51100000000E-03 0. -1.
        -11    1    3    3    0    0  0.82941411131E+01 -0.26376517741E+01  0.21689330525E+02  0.23370430945E+02  0.51100000000E-03 0.  1.
        -12    1    3    3    0    0  0.18395714148E+02 -0.11193892793E+01 -0.10187550869E+02  0.21058051289E+02  0.00000000000E+00 0.  1.
</event>
<event>
 7    1  0.1333056E-013  0.7246159E+02  0.7816164E-02  0.1226708E+00
        -11   -1    0    0    0    0  0.00000000000E+00  0.00000000000E+00  0.45593999997E+02  0.45594000000E+02  0.51100000000E-03 0.  1.
         11   -1    0    0    0    0 -0.00000000000E+00 -0.00000000000E+00 -0.45593999997E+02  0.45594000000E+02  0.51100000000E-03 0. -1.
    9900012    2    1    2    0    0 -0.18708424069E+02  0.68196355440E+00  0.45641989464E+00  0.72461587515E+02  0.70000022433E+02 0.  0.
         12    1    1    2    0    0  0.18708424069E+02 -0.68196355440E+00 -0.45641989464E+00  0.18726412485E+02  0.00000000000E+00 0. -1.
         11    1    3    3    0    0  0.16392998614E+02 -0.31885610270E+01  0.14206525233E+02  0.21925389037E+02  0.51100000000E-03 0.  1.
        -11    1    3    3    0    0 -0.35983215926E+02 -0.78780452396E+01 -0.10907297545E+02  0.38416462164E+02  0.51100000000E-03 0. -1.
         12    1    3    3    0    0  0.88179324283E+00  0.11748569821E+02 -0.28428077935E+01  0.12119736314E+02  0.00000000000E+00 0. -1.
</event>
<event>
 7    1  0.1333056E-013  0.7246163E+02  0.7816164E-02  0.1226708E+00
        -11   -1    0    0    0    0  0.00000000000E+00  0.00000000000E+00  0.45593999997E+02  0.45594000000E+02  0.51100000000E-03 0. -1.
         11   -1    0    0    0    0 -0.00000000000E+00 -0.00000000000E+00 -0.45593999997E+02  0.45594000000E+02  0.51100000000E-03 0.  1.
    9900012    2    1    2    0    0 -0.10191874134E+02  0.14327136947E+02 -0.64448364406E+01  0.72461626400E+02  0.70000073088E+02 0.  0.
         12    1    1    2    0    0  0.10191874134E+02 -0.14327136947E+02  0.64448364406E+01  0.18726373600E+02  0.00000000000E+00 0. -1.
         11    1    3    3    0    0  0.16863579840E+02 -0.12407793343E+02  0.13894697288E+02  0.25127599838E+02  0.51100000000E-03 0. -1.
        -11    1    3    3    0    0 -0.11049345878E+02  0.21545692221E+02 -0.18368813978E+02  0.30392733092E+02  0.51100000000E-03 0.  1.
         12    1    3    3    0    0 -0.16006108096E+02  0.51892380685E+01 -0.19707197505E+01  0.16941293470E+02  0.00000000000E+00 0. -1.
</event>
<event>
 7    1  0.1333056E-013  0.7246158E+02  0.7816164E-02  0.1226708E+00
        -11   -1    0    0    0    0  0.00000000000E+00  0.00000000000E+00  0.45593999997E+02  0.45594000000E+02  0.51100000000E-03 0.  1.
         11   -1    0    0    0    0 -0.00000000000E+00 -0.00000000000E+00 -0.45593999997E+02  0.45594000000E+02  0.51100000000E-03 0. -1.
    9900012    2    1    2    0    0 -0.17225466138E+02  0.67342832728E+01  0.29345703150E+01  0.72461575947E+02  0.70000007364E+02 0.  0.
         12    1    1    2    0    0  0.17225466138E+02 -0.67342832728E+01 -0.29345703150E+01  0.18726424053E+02  0.00000000000E+00 0. -1.
         11    1    3    3    0    0  0.46601316434E+01  0.19778055683E+00 -0.51041802265E+01  0.69143763369E+01  0.51100000000E-03 0. -1.
        -11    1    3    3    0    0 -0.39485210476E+02 -0.33957830698E+01 -0.71449828073E+01  0.40269889106E+02  0.51100000000E-03 0.  1.
        -12    1    3    3    0    0  0.17599612694E+02  0.99322857857E+01  0.15183733349E+02  0.25277310504E+02  0.00000000000E+00 0.  1.
</event>
<event>
 7    1  0.1333056E-013  0.7246155E+02  0.7816164E-02  0.1226708E+00
        -11   -1    0    0    0    0  0.00000000000E+00  0.00000000000E+00  0.45593999997E+02  0.45594000000E+02  0.51100000000E-03 0. -1.
         11   -1    0    0    0    0 -0.00000000000E+00 -0.00000000000E+00 -0.45593999997E+02  0.45594000000E+02  0.51100000000E-03 0.  1.
    9900012    2    1    2    0    0 -0.16968083215E+02 -0.10512896823E+01  0.78523134532E+01  0.72461551202E+02  0.69999975129E+02 0.  0.
         12    1    1    2    0    0  0.16968083215E+02  0.10512896823E+01 -0.78523134532E+01  0.18726448798E+02  0.00000000000E+00 0. -1.
         11    1    3    3    0    0 -0.29386374045E+02  0.21309198016E+02 -0.20310551923E+01  0.36356101071E+02  0.51100000000E-03 0. -1.
        -11    1    3    3    0    0  0.83220550464E+01 -0.31954492152E+01 -0.61120851338E+01  0.10808565160E+02  0.51100000000E-03 0.  1.
         12    1    3    3    0    0  0.40962357832E+01 -0.19165038483E+02  0.15995453779E+02  0.25296884971E+02  0.00000000000E+00 0. -1.
</event>
<event>
 7    1  0.1333056E-013  0.7246154E+02  0.7816164E-02  0.1226708E+00
        -11   -1    0    0    0    0  0.00000000000E+00  0.00000000000E+00  0.45593999997E+02  0.45594000000E+02  0.51100000000E-03 0.  1.
         11   -1    0    0    0    0 -0.00000000000E+00 -0.00000000000E+00 -0.45593999997E+02  0.45594000000E+02  0.51100000000E-03 0. -1.
    9900012    2    1    2    0    0  0.21649050466E+01  0.11080092415E+01  0.18567868747E+02  0.72461541495E+02  0.69999962483E+02 0.  0.
         12    1    1    2    0    0 -0.21649050466E+01 -0.11080092415E+01 -0.18567868747E+02  0.18726458505E+02  0.00000000000E+00 0. -1.
         11    1    3    3    0    0  0.97697461458E+00  0.14392615746E+02 -0.13952710608E+02  0.20069379686E+02  0.51100000000E-03 0. -1.
        -11    1    3    3    0    0  0.10514455851E+02 -0.20010017137E+02  0.58508084269E+01  0.23349229691E+02  0.51100000000E-03 0.  1.
         12    1    3    3    0    0 -0.93265254191E+01  0.67254106322E+01  0.26669770929E+02  0.29042932117E+02  0.00000000000E+00 0. -1.
</event>
<event>
 7    1  0.1333056E-013  0.7246159E+02  0.7816164E-02  0.1226708E+00
        -11   -1    0    0    0    0  0.00000000000E+00  0.00000000000E+00  0.45593999997E+02  0.45594000000E+02  0.51100000000E-03 0. -1.
         11   -1    0    0    0    0 -0.00000000000E+00 -0.00000000000E+00 -0.45593999997E+02  0.45594000000E+02  0.51100000000E-03 0.  1.
    9900012    2    1    2    0    0  0.15604085101E+02  0.80362068403E+01 -0.65276571541E+01  0.72461590837E+02  0.70000026760E+02 0.  0.
         12    1    1    2    0    0 -0.15604085101E+02 -0.80362068403E+01  0.65276571541E+01  0.18726409163E+02  0.00000000000E+00 0. -1.
         11    1    3    3    0    0 -0.88321044808E+01 -0.16456777504E+02 -0.48564917826E+01  0.19298111515E+02  0.51100000000E-03 0. -1.
        -11    1    3    3    0    0  0.17745461003E+02  0.14207418472E+02  0.18664421489E+02  0.29412799180E+02  0.51100000000E-03 0.  1.
        -12    1    3    3    0    0  0.66907285794E+01  0.10285565872E+02 -0.20335586860E+02  0.23750680142E+02  0.00000000000E+00 0.  1.
</event>
<event>
 7    1  0.1333056E-013  0.7246161E+02  0.7816164E-02  0.1226708E+00
        -11   -1    0    0    0    0  0.00000000000E+00  0.00000000000E+00  0.45593999997E+02  0.45594000000E+02  0.51100000000E-03 0. -1.
         11   -1    0    0    0    0 -0.00000000000E+00 -0.00000000000E+00 -0.45593999997E+02  0.45594000000E+02  0.51100000000E-03 0.  1.
    9900012    2    1    2    0    0  0.70773708741E+01 -0.17333634830E+02 -0.36528159198E+00  0.72461614723E+02  0.70000057877E+02 0.  0.
         12    1    1    2    0    0 -0.70773708741E+01  0.17333634830E+02  0.36528159198E+00  0.18726385277E+02  0.00000000000E+00 0. -1.
         11    1    3    3    0    0  0.17428892164E+02 -0.82005856261E+01 -0.10830015775E+02  0.22097627217E+02  0.51100000000E-03 0. -1.
        -11    1    3    3    0    0 -0.90949586751E+01  0.16837165652E+02  0.14556083477E+02  0.24043460378E+02  0.51100000000E-03 0.  1.
        -12    1    3    3    0    0 -0.12565626143E+01 -0.25970214856E+02 -0.40913492938E+01  0.26320527128E+02  0.00000000000E+00 0.  1.
</event>
<event>
 7    1  0.1333056E-013  0.7246150E+02  0.7816164E-02  0.1226708E+00
        -11   -1    0    0    0    0  0.00000000000E+00  0.00000000000E+00  0.45593999997E+02  0.45594000000E+02  0.51100000000E-03 0.  1.
         11   -1    0    0    0    0 -0.00000000000E+00 -0.00000000000E+00 -0.45593999997E+02  0.45594000000E+02  0.51100000000E-03 0. -1.
    9900012    2    1    2    0    0  0.15197277200E+02 -0.89325658204E+01 -0.63193283648E+01  0.72461497993E+02  0.69999905815E+02 0.  0.
         12    1    1    2    0    0 -0.15197277200E+02  0.89325658204E+01  0.63193283648E+01  0.18726502007E+02  0.00000000000E+00 0. -1.
         11    1    3    3    0    0 -0.10088499987E+02 -0.10136062532E+02 -0.25978519333E+02  0.29654697142E+02  0.51100000000E-03 0. -1.
        -11    1    3    3    0    0  0.78418404970E+01 -0.89875545028E+00  0.23527172204E+02  0.24815923435E+02  0.51100000000E-03 0.  1.
        -12    1    3    3    0    0  0.17443936689E+02  0.21022521614E+01 -0.38679812361E+01  0.17990877416E+02  0.00000000000E+00 0.  1.
</event>
<event>
 7    1  0.1333056E-013  0.7246157E+02  0.7816164E-02  0.1226708E+00
        -11   -1    0    0    0    0  0.00000000000E+00  0.00000000000E+00  0.45593999997E+02  0.45594000000E+02  0.51100000000E-03 0. -1.
         11   -1    0    0    0    0 -0.00000000000E+00 -0.00000000000E+00 -0.45593999997E+02  0.45594000000E+02  0.51100000000E-03 0.  1.
    9900012    2    1    2    0    0  0.12843960418E+02  0.10378236807E+02 -0.88319929125E+01  0.72461569020E+02  0.69999998339E+02 0.  0.
         12    1    1    2    0    0 -0.12843960418E+02 -0.10378236807E+02  0.88319929125E+01  0.18726430980E+02  0.00000000000E+00 0. -1.
         11    1    3    3    0    0  0.26160242112E+02 -0.87485518126E-01 -0.25989219478E+02  0.36875540001E+02  0.51100000000E-03 0.  1.
        -11    1    3    3    0    0 -0.13673326283E+02 -0.41653214449E+01  0.15124567967E+02  0.20810149226E+02  0.51100000000E-03 0. -1.
        -12    1    3    3    0    0  0.35704458936E+00  0.14631043770E+02  0.20326585981E+01  0.14775879792E+02  0.00000000000E+00 0.  1.
</event>
<event>
 7    1  0.1333056E-013  0.7246151E+02  0.7816164E-02  0.1226708E+00
        -11   -1    0    0    0    0  0.00000000000E+00  0.00000000000E+00  0.45593999997E+02  0.45594000000E+02  0.51100000000E-03 0. -1.
         11   -1    0    0    0    0 -0.00000000000E+00 -0.00000000000E+00 -0.45593999997E+02  0.45594000000E+02  0.51100000000E-03 0.  1.
    9900012    2    1    2    0    0 -0.13176553024E+02 -0.13279949080E+02  0.83840202333E+00  0.72461507666E+02  0.69999918415E+02 0.  0.
         12    1    1    2    0    0  0.13176553024E+02  0.13279949080E+02 -0.83840202333E+00  0.18726492334E+02  0.00000000000E+00 0. -1.
         11    1    3    3    0    0  0.13469361098E+02  0.11607652301E+02 -0.65346166461E+01  0.18943666364E+02  0.51100000000E-03 0. -1.
        -11    1    3    3    0    0 -0.12016345765E+02 -0.21232650212E+02  0.21749027177E+02  0.32683913229E+02  0.51100000000E-03 0.  1.
        -12    1    3    3    0    0 -0.14629568358E+02 -0.36549511688E+01 -0.14376008507E+02  0.20833928074E+02  0.00000000000E+00 0.  1.
</event>
<event>
 7    1  0.1333056E-013  0.7246161E+02  0.7816164E-02  0.1226708E+00
        -11   -1    0    0    0    0  0.00000000000E+00  0.00000000000E+00  0.45593999997E+02  0.45594000000E+02  0.51100000000E-03 0.  1.
         11   -1    0    0    0    0 -0.00000000000E+00 -0.00000000000E+00 -0.45593999997E+02  0.45594000000E+02  0.51100000000E-03 0. -1.
    9900012    2    1    2    0    0 -0.12162360690E+02 -0.43432569632E+01  0.13560633440E+02  0.72461610122E+02  0.70000051882E+02 0.  0.
         12    1    1    2    0    0  0.12162360690E+02  0.43432569632E+01 -0.13560633440E+02  0.18726389878E+02  0.00000000000E+00 0. -1.
         11    1    3    3    0    0 -0.19085840327E+02 -0.51874384990E+01 -0.65863140875E+01  0.20846063242E+02  0.51100000000E-03 0. -1.
        -11    1    3    3    0    0  0.26095473832E+02 -0.66229930918E+01  0.10613237780E+02  0.28939222665E+02  0.51100000000E-03 0.  1.
        -12    1    3    3    0    0 -0.19171994195E+02  0.74671746276E+01  0.95337097471E+01  0.22676324214E+02  0.00000000000E+00 0.  1.
</event>
<event>
 7    1  0.1333056E-013  0.7246158E+02  0.7816164E-02  0.1226708E+00
        -11   -1    0    0    0    0  0.00000000000E+00  0.00000000000E+00  0.45593999997E+02  0.45594000000E+02  0.51100000000E-03 0.  1.
         11   -1    0    0    0    0 -0.00000000000E+00 -0.00000000000E+00 -0.45593999997E+02  0.45594000000E+02  0.51100000000E-03 0. -1.
    9900012    2    1    2    0    0  0.12473181911E+02  0.26463544415E+01  0.13714788114E+02  0.72461578243E+02  0.70000010355E+02 0.  0.
         12    1    1    2    0    0 -0.12473181911E+02 -0.26463544415E+01 -0.13714788114E+02  0.18726421757E+02  0.00000000000E+00 0. -1.
         11    1    3    3    0    0 -0.26558538526E+01  0.21816740693E+01 -0.54479909477E+01  0.64415733372E+01  0.51100000000E-03 0. -1.
        -11    1    3    3    0    0  0.44806274618E+01 -0.25077923868E+02  0.27136780398E+02  0.37220735331E+02  0.51100000000E-03 0.  1.
        -12    1    3    3    0    0  0.10648408301E+02  0.25542604240E+02 -0.79740013365E+01  0.28799269575E+02  0.00000000000E+00 0.  1.
</event>
<event>
 7    1  0.1333056E-013  0.7246163E+02  0.7816164E-02  0.1226708E+00
        -11   -1    0    0    0    0  0.00000000000E+00  0.00000000000E+00  0.45593999997E+02  0.45594000000E+02  0.51100000000E-03 0.  1.
         11   -1    0    0    0    0 -0.00000000000E+00 -0.00000000000E+00 -0.45593999997E+02  0.45594000000E+02  0.51100000000E-03 0. -1.
    9900012    2    1    2    0    0 -0.90529008158E+01  0.16088684123E+02 -0.31426420138E+01  0.72461629054E+02  0.70000076545E+02 0.  0.
         12    1    1    2    0    0  0.90529008158E+01 -0.16088684123E+02  0.31426420138E+01  0.18726370946E+02  0.00000000000E+00 0. -1.
         11    1    3    3    0    0 -0.40021117487E+01  0.93069211650E+01 -0.27139219653E+02  0.28968481556E+02  0.51100000000E-03 0. -1.
        -11    1    3    3    0    0 -0.18484375896E+02  0.62276505508E+01  0.22785186948E+02  0.29993674803E+02  0.51100000000E-03 0.  1.
         12    1    3    3    0    0  0.13433586829E+02  0.55411240682E+00  0.12113906913E+01  0.13499472696E+02  0.00000000000E+00 0. -1.
</event>
<event>
 7    1  0.1333056E-013  0.7246155E+02  0.7816164E-02  0.1226708E+00
        -11   -1    0    0    0    0  0.00000000000E+00  0.00000000000E+00  0.45593999997E+02  0.45594000000E+02  0.51100000000E-03 0.  1.
         11   -1    0    0    0    0 -0.00000000000E+00 -0.00000000000E+00 -0.45593999997E+02  0.45594000000E+02  0.51100000000E-03 0. -1.
    9900012    2    1    2    0    0  0.12106396657E+01 -0.18061160949E+02  0.47967526704E+01  0.72461547602E+02  0.69999970439E+02 0.  0.
         12    1    1    2    0    0 -0.12106396657E+01  0.18061160949E+02 -0.47967526704E+01  0.18726452398E+02  0.00000000000E+00 0. -1.
         11    1    3    3    0    0 -0.14038933906E+02 -0.30275896007E+02  0.19700923485E+02  0.38753682801E+02  0.51100000000E-03 0. -1.
        -11    1    3    3    0    0  0.10376526276E+02  0.19347619384E+01  0.42913561654E+01  0.11394355590E+02  0.51100000000E-03 0.  1.
         12    1    3    3    0    0  0.48730472962E+01  0.10279973119E+02 -0.19195526980E+02  0.22313509211E+02  0.00000000000E+00 0. -1.
</event>
<event>
 7    1  0.1333056E-013  0.7246157E+02  0.7816164E-02  0.1226708E+00
        -11   -1    0    0    0    0  0.00000000000E+00  0.00000000000E+00  0.45593999997E+02  0.45594000000E+02  0.51100000000E-03 0. -1.
         11   -1    0    0    0    0 -0.00000000000E+00 -0.00000000000E+00 -0.45593999997E+02  0.45594000000E+02  0.51100000000E-03 0.  1.
    9900012    2    1    2    0    0 -0.42332700003E+00  0.40523082352E+01 -0.18277820316E+02  0.72461571528E+02  0.70000001608E+02 0.  0.
         12    1    1    2    0    0  0.42332700003E+00 -0.40523082352E+01  0.18277820316E+02  0.18726428472E+02  0.00000000000E+00 0. -1.
         11    1    3    3    0    0 -0.18742048759E+02  0.19812127814E+02 -0.12013070713E+02  0.29800984353E+02  0.51100000000E-03 0. -1.
        -11    1    3    3    0    0  0.21578525679E+01 -0.20934902571E+02 -0.12620848486E+02  0.24540014061E+02  0.51100000000E-03 0.  1.
         12    1    3    3    0    0  0.16160869191E+02  0.51750829929E+01  0.63560988825E+01  0.18120573114E+02  0.00000000000E+00 0. -1.
</event>
<event>
 7    1  0.1333056E-013  0.7246152E+02  0.7816164E-02  0.1226708E+00
        -11   -1    0    0    0    0  0.00000000000E+00  0.00000000000E+00  0.45593999997E+02  0.45594000000E+02  0.51100000000E-03 0. -1.
         11   -1    0    0    0    0 -0.00000000000E+00 -0.00000000000E+00 -0.45593999997E+02  0.45594000000E+02  0.51100000000E-03 0.  1.
    9900012    2    1    2    0    0 -0.10572230169E+02  0.47571529538E+00 -0.15449358364E+02  0.72461520629E+02  0.69999935302E+02 0.  0.
         12    1    1    2    0    0  0.10572230169E+02 -0.47571529538E+00  0.15449358364E+02  0.18726479371E+02  0.00000000000E+00 0. -1.
         11    1    3    3    0    0  0.21580788366E+01  0.27578907295E+02 -0.26054469250E+02  0.38001168404E+02  0.51100000000E-03 0. -1.
        -11    1    3    3    0    0  0.24590315942E+01 -0.41421187186E+01  0.37084174980E+01  0.60791730079E+01  0.51100000000E-03 0.  1.
         12    1    3    3    0    0 -0.15189340600E+02 -0.22961073281E+02  0.68966933887E+01  0.28381179217E+02  0.00000000000E+00 0. -1.
</event>
<event>
 7    1  0.1333056E-013  0.7246171E+02  0.7816164E-02  0.1226708E+00
        -11   -1    0    0    0    0  0.00000000000E+00  0.00000000000E+00  0.45593999997E+02  0.45594000000E+02  0.51100000000E-03 0.  1.
         11   -1    0    0    0    0 -0.00000000000E+00 -0.00000000000E+00 -0.45593999997E+02  0.45594000000E+02  0.51100000000E-03 0. -1.
    9900012    2    1    2    0    0  0.50859679420E+01  0.17023670495E+02  0.59161961410E+01  0.72461713561E+02  0.70000186631E+02 0.  0.
         12    1    1    2    0    0 -0.50859679420E+01 -0.17023670495E+02 -0.59161961410E+01  0.18726286439E+02  0.00000000000E+00 0. -1.
         11    1    3    3    0    0 -0.13356512882E+01 -0.12958942017E+02 -0.77981043195E+01  0.15183167450E+02  0.51100000000E-03 0. -1.
        -11    1    3    3    0    0  0.14772430448E+02  0.27620339146E+02 -0.93067213337E+01  0.32676029412E+02  0.51100000000E-03 0.  1.
        -12    1    3    3    0    0 -0.83508112182E+01  0.23622733662E+01  0.23021021794E+02  0.24602516699E+02  0.00000000000E+00 0.  1.
</event>
<event>
 7    1  0.1333056E-013  0.7246157E+02  0.7816164E-02  0.1226708E+00
        -11   -1    0    0    0    0  0.00000000000E+00  0.00000000000E+00  0.45593999997E+02  0.45594000000E+02  0.51100000000E-03 0.  1.
         11   -1    0    0    0    0 -0.00000000000E+00 -0.00000000000E+00 -0.45593999997E+02  0.45594000000E+02  0.51100000000E-03 0. -1.
    9900012    2    1    2    0    0  0.11979600366E+02  0.72156026019E+01  0.12454052186E+02  0.72461570504E+02  0.70000000273E+02 0.  0.
         12    1    1    2    0    0 -0.11979600366E+02 -0.72156026019E+01 -0.12454052186E+02  0.18726429496E+02  0.00000000000E+00 0. -1.
         11    1    3    3    0    0  0.12895841493E+02  0.25772195892E+02 -0.17885854682E+01  0.28873999501E+02  0.51100000000E-03 0. -1.
        -11    1    3    3    0    0 -0.14598605909E+02 -0.20559198424E+02  0.23063721726E+01  0.25320333473E+02  0.51100000000E-03 0.  1.
         12    1    3    3    0    0  0.13682364782E+02  0.20026051334E+01  0.11936265481E+02  0.18267237530E+02  0.00000000000E+00 0. -1.
</event>
<event>
 7    1  0.1333056E-013  0.7246157E+02  0.7816164E-02  0.1226708E+00
        -11   -1    0    0    0    0  0.00000000000E+00  0.00000000000E+00  0.45593999997E+02  0.45594000000E+02  0.51100000000E-03 0.  1.
         11   -1    0    0    0    0 -0.00000000000E+00 -0.00000000000E+00 -0.45593999997E+02  0.45594000000E+02  0.51100000000E-03 0. -1.
    9900012    2    1    2    0    0  0.12085049671E+02 -0.14278410328E+02  0.87049440279E+00  0.72461569813E+02  0.69999999373E+02 0.  0.
         12    1    1    2    0    0 -0.12085049671E+02  0.14278410328E+02 -0.87049440279E+00  0.18726430187E+02  0.00000000000E+00 0. -1.
         11    1    3    3    0    0  0.33723059502E+01 -0.82394608772E+01 -0.28903353777E+02  0.30243429415E+02  0.51100000000E-03 0. -1.
        -11    1    3    3    0    0  0.14831664214E+02  0.79506515796E+00  0.47942821255E+01  0.15607547320E+02  0.51100000000E-03 0.  1.
         12    1    3    3    0    0 -0.61189204941E+01 -0.68340146089E+01  0.24979566055E+02  0.26610593078E+02  0.00000000000E+00 0. -1.
</event>
<event>
 7    1  0.1333056E-013  0.7246161E+02  0.7816164E-02  0.1226708E+00
        -11   -1    0    0    0    0  0.00000000000E+00  0.00000000000E+00  0.45593999997E+02  0.45594000000E+02  0.51100000000E-03 0. -1.
         11   -1    0    0    0    0 -0.00000000000E+00 -0.00000000000E+00 -0.45593999997E+02  0.45594000000E+02  0.51100000000E-03 0.  1.
    9900012    2    1    2    0    0 -0.17387887873E+02  0.52190523575E+01  0.45935414817E+01  0.72461607514E+02  0.70000048486E+02 0.  0.
         12    1    1    2    0    0  0.17387887873E+02 -0.52190523575E+01 -0.45935414817E+01  0.18726392486E+02  0.00000000000E+00 0. -1.
         11    1    3    3    0    0  0.14855831111E+02 -0.43163386050E+00  0.27389179166E+02  0.31161661725E+02  0.51100000000E-03 0. -1.
        -11    1    3    3    0    0 -0.19742204798E+02  0.67939852360E+01 -0.18882003812E+02  0.28150363299E+02  0.51100000000E-03 0.  1.
        -12    1    3    3    0    0 -0.12501514186E+02 -0.11432990180E+01 -0.39136338723E+01  0.13149582490E+02  0.00000000000E+00 0.  1.
</event>
<event>
 7    1  0.1333056E-013  0.7246161E+02  0.7816164E-02  0.1226708E+00
        -11   -1    0    0    0    0  0.00000000000E+00  0.00000000000E+00  0.45593999997E+02  0.45594000000E+02  0.51100000000E-03 0.  1.
         11   -1    0    0    0    0 -0.00000000000E+00 -0.00000000000E+00 -0.45593999997E+02  0.45594000000E+02  0.51100000000E-03 0. -1.
    9900012    2    1    2    0    0 -0.75309582062E+01 -0.15068261668E+02  0.81798447868E+01  0.72461609479E+02  0.70000051045E+02 0.  0.
         12    1    1    2    0    0  0.75309582062E+01  0.15068261668E+02 -0.81798447868E+01  0.18726390521E+02  0.00000000000E+00 0. -1.
         11    1    3    3    0    0  0.25634041164E+02 -0.12778872984E+02  0.11623652566E+02  0.30911372670E+02  0.51100000000E-03 0. -1.
        -11    1    3    3    0    0 -0.86097762363E+01  0.17329264144E+01  0.99666528134E+01  0.13284029862E+02  0.51100000000E-03 0.  1.
         12    1    3    3    0    0 -0.24555223133E+02 -0.40223150983E+01 -0.13410460593E+02  0.28266206947E+02  0.00000000000E+00 0. -1.
</event>
<event>
 7    1  0.1333056E-013  0.7246157E+02  0.7816164E-02  0.1226708E+00
        -11   -1    0    0    0    0  0.00000000000E+00  0.00000000000E+00  0.45593999997E+02  0.45594000000E+02  0.51100000000E-03 0. -1.
         11   -1    0    0    0    0 -0.00000000000E+00 -0.00000000000E+00 -0.45593999997E+02  0.45594000000E+02  0.51100000000E-03 0.  1.
    9900012    2    1    2    0    0  0.82652980276E+01 -0.12021437700E+02 -0.11740921280E+02  0.72461565519E+02  0.69999993780E+02 0.  0.
         12    1    1    2    0    0 -0.82652980276E+01  0.12021437700E+02  0.11740921280E+02  0.18726434481E+02  0.00000000000E+00 0. -1.
         11    1    3    3    0    0  0.12606810955E+02  0.80909526551E+01  0.18671652902E+02  0.23937957717E+02  0.51100000000E-03 0. -1.
        -11    1    3    3    0    0 -0.17494172740E+02 -0.85551393370E+01 -0.21020086596E+02  0.28654502782E+02  0.51100000000E-03 0.  1.
        -12    1    3    3    0    0  0.13152659813E+02 -0.11557251018E+02 -0.93924875854E+01  0.19869105020E+02  0.00000000000E+00 0.  1.
</event>
<event>
 7    1  0.1333056E-013  0.7246158E+02  0.7816164E-02  0.1226708E+00
        -11   -1    0    0    0    0  0.00000000000E+00  0.00000000000E+00  0.45593999997E+02  0.45594000000E+02  0.51100000000E-03 0.  1.
         11   -1    0    0    0    0 -0.00000000000E+00 -0.00000000000E+00 -0.45593999997E+02  0.45594000000E+02  0.51100000000E-03 0. -1.
    9900012    2    1    2    0    0 -0.18070178955E+02  0.25594154417E+01 -0.41948561913E+01  0.72461580339E+02  0.70000013085E+02 0.  0.
         12    1    1    2    0    0  0.18070178955E+02 -0.25594154417E+01  0.41948561913E+01  0.18726419661E+02  0.00000000000E+00 0. -1.
         11    1    3    3    0    0 -0.19089150123E+02 -0.19520360712E+02 -0.17620482191E+01  0.27359549502E+02  0.51100000000E-03 0. -1.
        -11    1    3    3    0    0  0.12451424193E+02  0.23906891299E+02  0.94003115517E+01  0.28547211309E+02  0.51100000000E-03 0.  1.
        -12    1    3    3    0    0 -0.11432453025E+02 -0.18271151449E+01 -0.11833119524E+02  0.16554819528E+02  0.00000000000E+00 0.  1.
</event>
<event>
 7    1  0.1333056E-013  0.7246121E+02  0.7816164E-02  0.1226709E+00
        -11   -1    0    0    0    0  0.00000000000E+00  0.00000000000E+00  0.45593999997E+02  0.45594000000E+02  0.51100000000E-03 0.  1.
         11   -1    0    0    0    0 -0.00000000000E+00 -0.00000000000E+00 -0.45593999997E+02  0.45594000000E+02  0.51100000000E-03 0. -1.
    9900012    2    1    2    0    0 -0.58529900094E-01  0.70360610294E+01  0.17354630156E+02  0.72461207204E+02  0.69999527006E+02 0.  0.
         12    1    1    2    0    0  0.58529900094E-01 -0.70360610294E+01 -0.17354630156E+02  0.18726792796E+02  0.00000000000E+00 0. -1.
         11    1    3    3    0    0  0.26196316860E+00  0.13168741041E+02 -0.81082704524E+01  0.15467010549E+02  0.51100000000E-03 0. -1.
        -11    1    3    3    0    0  0.26405520275E+01  0.11815548998E+01  0.40185921774E+02  0.40289910599E+02  0.51100000000E-03 0.  1.
        -12    1    3    3    0    0 -0.29610450961E+01 -0.73142349118E+01 -0.14723021166E+02  0.16704286056E+02  0.00000000000E+00 0.  1.
</event>
<event>
 7    1  0.1392004E-013  0.7246150E+02  0.7816164E-02  0.1226708E+00
        -11   -1    0    0    0    0  0.00000000000E+00  0.00000000000E+00  0.45593999997E+02  0.45594000000E+02  0.51100000000E-03 0. -1.
         11   -1    0    0    0    0 -0.00000000000E+00 -0.00000000000E+00 -0.45593999997E+02  0.45594000000E+02  0.51100000000E-03 0.  1.
    9900012    2    1    2    0    0 -0.11410832904E+02  0.45086413549E+01 -0.14147328150E+02  0.72461498773E+02  0.69999906830E+02 0.  0.
         12    1    1    2    0    0  0.11410832904E+02 -0.45086413549E+01  0.14147328150E+02  0.18726501227E+02  0.00000000000E+00 0. -1.
         11    1    3    3    0    0 -0.16740295321E+02  0.28490934671E+02 -0.16749508173E+02  0.37047494789E+02  0.51100000000E-03 0. -1.
        -11    1    3    3    0    0 -0.80738074553E+01 -0.18189054147E+02  0.52335175948E+01  0.20577117492E+02  0.51100000000E-03 0.  1.
        -12    1    3    3    0    0  0.13403269872E+02 -0.57932391691E+01 -0.26313375720E+01  0.14836886492E+02  0.00000000000E+00 0.  1.
</event>
<event>
 7    1  0.1333056E-013  0.7246158E+02  0.7816164E-02  0.1226708E+00
        -11   -1    0    0    0    0  0.00000000000E+00  0.00000000000E+00  0.45593999997E+02  0.45594000000E+02  0.51100000000E-03 0. -1.
         11   -1    0    0    0    0 -0.00000000000E+00 -0.00000000000E+00 -0.45593999997E+02  0.45594000000E+02  0.51100000000E-03 0.  1.
    9900012    2    1    2    0    0  0.15721370428E+02 -0.18519744042E+01 -0.10004371894E+02  0.72461581381E+02  0.70000014442E+02 0.  0.
         12    1    1    2    0    0 -0.15721370428E+02  0.18519744042E+01  0.10004371894E+02  0.18726418619E+02  0.00000000000E+00 0. -1.
         11    1    3    3    0    0 -0.73938742137E+01  0.14439645616E+02 -0.24765507104E+02  0.29605794767E+02  0.51100000000E-03 0. -1.
        -11    1    3    3    0    0  0.18504648974E+02  0.39746206758E+01  0.36053425633E+01  0.19267022044E+02  0.51100000000E-03 0.  1.
         12    1    3    3    0    0  0.46105956668E+01 -0.20266240696E+02  0.11155792647E+02  0.23588764570E+02  0.00000000000E+00 0. -1.
</event>
<event>
 7    1  0.1333056E-013  0.7246159E+02  0.7816164E-02  0.1226708E+00
        -11   -1    0    0    0    0  0.00000000000E+00  0.00000000000E+00  0.45593999997E+02  0.45594000000E+02  0.51100000000E-03 0.  1.
         11   -1    0    0    0    0 -0.00000000000E+00 -0.00000000000E+00 -0.45593999997E+02  0.45594000000E+02  0.51100000000E-03 0. -1.
    9900012    2    1    2    0    0  0.13777658889E+02 -0.12115788355E+02  0.37499578511E+01  0.72461590952E+02  0.70000026911E+02 0.  0.
         12    1    1    2    0    0 -0.13777658889E+02  0.12115788355E+02 -0.37499578511E+01  0.18726409048E+02  0.00000000000E+00 0. -1.
         11    1    3    3    0    0  0.23172437637E+02 -0.18314797938E+02 -0.24511483872E+02  0.38382372665E+02  0.51100000000E-03 0. -1.
        -11    1    3    3    0    0 -0.90507513671E+00  0.96896026433E+01  0.12526872566E+02  0.15862852737E+02  0.51100000000E-03 0.  1.
         12    1    3    3    0    0 -0.84897036108E+01 -0.34905930609E+01  0.15734569157E+02  0.18216365550E+02  0.00000000000E+00 0. -1.
</event>
<event>
 7    1  0.1333056E-013  0.7246159E+02  0.7816164E-02  0.1226708E+00
        -11   -1    0    0    0    0  0.00000000000E+00  0.00000000000E+00  0.45593999997E+02  0.45594000000E+02  0.51100000000E-03 0.  1.
         11   -1    0    0    0    0 -0.00000000000E+00 -0.00000000000E+00 -0.45593999997E+02  0.45594000000E+02  0.51100000000E-03 0. -1.
    9900012    2    1    2    0    0  0.66939650582E+01  0.10919700967E+01 -0.17454994543E+02  0.72461590804E+02  0.70000026717E+02 0.  0.
         12    1    1    2    0    0 -0.66939650582E+01 -0.10919700967E+01  0.17454994543E+02  0.18726409196E+02  0.00000000000E+00 0. -1.
         11    1    3    3    0    0  0.15788216906E+02  0.21614965798E+02  0.19343203633E+01  0.26836842867E+02  0.51100000000E-03 0. -1.
        -11    1    3    3    0    0 -0.18224277188E+02 -0.22829527625E+02 -0.21124486371E+02  0.36049348611E+02  0.51100000000E-03 0.  1.
        -12    1    3    3    0    0  0.91300253408E+01  0.23065319234E+01  0.17351714647E+01  0.95753993258E+01  0.00000000000E+00 0.  1.
</event>
<event>
 7    1  0.1333056E-013  0.7246159E+02  0.7816164E-02  0.1226708E+00
        -11   -1    0    0    0    0  0.00000000000E+00  0.00000000000E+00  0.45593999997E+02  0.45594000000E+02  0.51100000000E-03 0.  1.
         11   -1    0    0    0    0 -0.00000000000E+00 -0.00000000000E+00 -0.45593999997E+02  0.45594000000E+02  0.51100000000E-03 0. -1.
    9900012    2    1    2    0    0 -0.13430372774E+02  0.81372859458E+01 -0.10202348776E+02  0.72461594687E+02  0.70000031776E+02 0.  0.
         12    1    1    2    0    0  0.13430372774E+02 -0.81372859458E+01  0.10202348776E+02  0.18726405313E+02  0.00000000000E+00 0. -1.
         11    1    3    3    0    0 -0.58515288707E+01  0.13108444834E+02 -0.82486063663E+00  0.14378877266E+02  0.51100000000E-03 0. -1.
        -11    1    3    3    0    0  0.12240600902E+02 -0.25741288927E+02 -0.64558279923E+01  0.29225399593E+02  0.51100000000E-03 0.  1.
        -12    1    3    3    0    0 -0.19819444805E+02  0.20770130039E+02 -0.29216601470E+01  0.28857317828E+02  0.00000000000E+00 0.  1.
</event>
<event>
 7    1  0.1333056E-013  0.7246154E+02  0.7816164E-02  0.1226708E+00
        -11   -1    0    0    0    0  0.00000000000E+00  0.00000000000E+00  0.45593999997E+02  0.45594000000E+02  0.51100000000E-03 0. -1.
         11   -1    0    0    0    0 -0.00000000000E+00 -0.00000000000E+00 -0.45593999997E+02  0.45594000000E+02  0.51100000000E-03 0.  1.
    9900012    2    1    2    0    0  0.16605838179E+02  0.85575242453E+01  0.13019659031E+01  0.72461542832E+02  0.69999964226E+02 0.  0.
         12    1    1    2    0    0 -0.16605838179E+02 -0.85575242453E+01 -0.13019659031E+01  0.18726457168E+02  0.00000000000E+00 0. -1.
         11    1    3    3    0    0  0.23041078800E+02 -0.49544378285E+01  0.50384457682E+01  0.24100284282E+02  0.51100000000E-03 0. -1.
        -11    1    3    3    0    0 -0.18543450345E+02  0.74755458583E+01  0.15180792892E+02  0.25103780785E+02  0.51100000000E-03 0.  1.
        -12    1    3    3    0    0  0.12108209725E+02  0.60364162154E+01 -0.18917272757E+02  0.23257477766E+02  0.00000000000E+00 0.  1.
</event>
<event>
 7    1  0.1333056E-013  0.7246167E+02  0.7816164E-02  0.1226708E+00
        -11   -1    0    0    0    0  0.00000000000E+00  0.00000000000E+00  0.45593999997E+02  0.45594000000E+02  0.51100000000E-03 0. -1.
         11   -1    0    0    0    0 -0.00000000000E+00 -0.00000000000E+00 -0.45593999997E+02  0.45594000000E+02  0.51100000000E-03 0.  1.
    9900012    2    1    2    0    0  0.14489495471E+02  0.57813723948E+01 -0.10358842120E+02  0.72461672121E+02  0.70000132648E+02 0.  0.
         12    1    1    2    0    0 -0.14489495471E+02 -0.57813723948E+01  0.10358842120E+02  0.18726327879E+02  0.00000000000E+00 0. -1.
         11    1    3    3    0    0  0.73159710372E+01  0.10973136250E+02  0.27634357010E+02  0.30620105144E+02  0.51100000000E-03 0. -1.
        -11    1    3    3    0    0  0.30103272124E+01 -0.79420941170E+01 -0.88196358577E+01  0.12244382623E+02  0.51100000000E-03 0.  1.
         12    1    3    3    0    0  0.41631972212E+01  0.27503302614E+01 -0.29173563273E+02  0.29597184354E+02  0.00000000000E+00 0. -1.
</event>
<event>
 7    1  0.1333056E-013  0.7246168E+02  0.7816164E-02  0.1226708E+00
        -11   -1    0    0    0    0  0.00000000000E+00  0.00000000000E+00  0.45593999997E+02  0.45594000000E+02  0.51100000000E-03 0.  1.
         11   -1    0    0    0    0 -0.00000000000E+00 -0.00000000000E+00 -0.45593999997E+02  0.45594000000E+02  0.51100000000E-03 0. -1.
    9900012    2    1    2    0    0 -0.12337399633E+02  0.69944407851E+01 -0.12228710942E+02  0.72461681544E+02  0.70000144924E+02 0.  0.
         12    1    1    2    0    0  0.12337399633E+02 -0.69944407851E+01  0.12228710942E+02  0.18726318456E+02  0.00000000000E+00 0. -1.
         11    1    3    3    0    0 -0.29043477529E+01 -0.16524974269E+02 -0.11960153230E+02  0.20604739164E+02  0.51100000000E-03 0. -1.
        -11    1    3    3    0    0  0.66387964269E+01  0.26190575890E+02 -0.14107714698E+02  0.30480280473E+02  0.51100000000E-03 0.  1.
        -12    1    3    3    0    0 -0.16071848307E+02 -0.26711608360E+01  0.13839156986E+02  0.21376661908E+02  0.00000000000E+00 0.  1.
</event>
<event>
 7    1  0.1333056E-013  0.7246159E+02  0.7816164E-02  0.1226708E+00
        -11   -1    0    0    0    0  0.00000000000E+00  0.00000000000E+00  0.45593999997E+02  0.45594000000E+02  0.51100000000E-03 0.  1.
         11   -1    0    0    0    0 -0.00000000000E+00 -0.00000000000E+00 -0.45593999997E+02  0.45594000000E+02  0.51100000000E-03 0. -1.
    9900012    2    1    2    0    0  0.13707533855E+02 -0.93816397859E+01  0.86467813716E+01  0.72461588771E+02  0.70000024069E+02 0.  0.
         12    1    1    2    0    0 -0.13707533855E+02  0.93816397859E+01 -0.86467813716E+01  0.18726411229E+02  0.00000000000E+00 0. -1.
         11    1    3    3    0    0 -0.18007845345E+02  0.32087164182E+01  0.88994438255E+00  0.18313119785E+02  0.51100000000E-03 0. -1.
        -11    1    3    3    0    0  0.35090969964E+02 -0.64340960761E+01 -0.82956335298E+01  0.36627739505E+02  0.51100000000E-03 0.  1.
        -12    1    3    3    0    0 -0.33755907645E+01 -0.61562601281E+01  0.16052470519E+02  0.17520729481E+02  0.00000000000E+00 0.  1.
</event>
<event>
 7    1  0.1333056E-013  0.7246156E+02  0.7816164E-02  0.1226708E+00
        -11   -1    0    0    0    0  0.00000000000E+00  0.00000000000E+00  0.45593999997E+02  0.45594000000E+02  0.51100000000E-03 0.  1.
         11   -1    0    0    0    0 -0.00000000000E+00 -0.00000000000E+00 -0.45593999997E+02  0.45594000000E+02  0.51100000000E-03 0. -1.
    9900012    2    1    2    0    0 -0.17925509015E+02  0.34929176856E+01  0.41418783389E+01  0.72461561375E+02  0.69999988381E+02 0.  0.
         12    1    1    2    0    0  0.17925509015E+02 -0.34929176856E+01 -0.41418783389E+01  0.18726438625E+02  0.00000000000E+00 0. -1.
         11    1    3    3    0    0  0.17060049571E+02  0.22909785735E+01 -0.11573641661E+02  0.20742301120E+02  0.51100000000E-03 0. -1.
        -11    1    3    3    0    0 -0.21006818442E+02 -0.10466206243E+02 -0.51477370180E+01  0.24027631819E+02  0.51100000000E-03 0.  1.
         12    1    3    3    0    0 -0.13978740144E+02  0.11668145355E+02  0.20863257018E+02  0.27691628436E+02  0.00000000000E+00 0. -1.
</event>
<event>
 8    1  0.1333056E-013  0.7246158E+02  0.7816164E-02  0.1226708E+00
        -11   -1    0    0    0    0  0.00000000000E+00  0.00000000000E+00  0.45593999997E+02  0.45594000000E+02  0.51100000000E-03 0.  1.
         11   -1    0    0    0    0 -0.00000000000E+00 -0.00000000000E+00 -0.45593999997E+02  0.45594000000E+02  0.51100000000E-03 0. -1.
    9900012    2    1    2    0    0 -0.20513473064E+01 -0.15577354574E+02  0.10189052094E+02  0.72461580591E+02  0.70000013414E+02 0.  0.
        -24    2    3    3    0    0  0.45392420633E+01 -0.33548826890E+01 -0.71387697875E+01  0.50256218657E+02  0.49425353041E+02 0.  0.
         12    1    1    2    0    0  0.20513473064E+01  0.15577354574E+02 -0.10189052094E+02  0.18726419409E+02  0.00000000000E+00 0. -1.
         11    1    4    4    0    0  0.56644796059E+01 -0.18345214656E+02 -0.21943605440E+02  0.29157418437E+02  0.51100000000E-03 0. -1.
        -11    1    3    3    0    0 -0.65905893697E+01 -0.12222471885E+02  0.17327821882E+02  0.22205361935E+02  0.51100000000E-03 0.  1.
        -12    1    4    4    0    0 -0.11252375427E+01  0.14990331967E+02  0.14804835652E+02  0.21098800219E+02  0.00000000000E+00 0.  1.
</event>
<event>
 7    1  0.1333056E-013  0.7246161E+02  0.7816164E-02  0.1226708E+00
        -11   -1    0    0    0    0  0.00000000000E+00  0.00000000000E+00  0.45593999997E+02  0.45594000000E+02  0.51100000000E-03 0. -1.
         11   -1    0    0    0    0 -0.00000000000E+00 -0.00000000000E+00 -0.45593999997E+02  0.45594000000E+02  0.51100000000E-03 0.  1.
    9900012    2    1    2    0    0  0.34065667915E+01  0.32710437503E+01 -0.18121075047E+02  0.72461607251E+02  0.70000048143E+02 0.  0.
         12    1    1    2    0    0 -0.34065667915E+01 -0.32710437503E+01  0.18121075047E+02  0.18726392749E+02  0.00000000000E+00 0. -1.
         11    1    3    3    0    0 -0.20452625893E+02 -0.13670926550E+02 -0.89597960188E+01  0.26181712771E+02  0.51100000000E-03 0. -1.
        -11    1    3    3    0    0  0.82744871681E+01  0.11580370106E+02 -0.21435431796E+02  0.25730329307E+02  0.51100000000E-03 0.  1.
        -12    1    3    3    0    0  0.15584705516E+02  0.53616001942E+01  0.12274152767E+02  0.20549565174E+02  0.00000000000E+00 0.  1.
</event>
<event>
 7    1  0.1333056E-013  0.7246151E+02  0.7816164E-02  0.1226708E+00
        -11   -1    0    0    0    0  0.00000000000E+00  0.00000000000E+00  0.45593999997E+02  0.45594000000E+02  0.51100000000E-03 0. -1.
         11   -1    0    0    0    0 -0.00000000000E+00 -0.00000000000E+00 -0.45593999997E+02  0.45594000000E+02  0.51100000000E-03 0.  1.
    9900012    2    1    2    0    0  0.18719687481E+02 -0.32912425528E+00  0.38258013105E+00  0.72461511015E+02  0.69999922777E+02 0.  0.
         12    1    1    2    0    0 -0.18719687481E+02  0.32912425528E+00 -0.38258013105E+00  0.18726488985E+02  0.00000000000E+00 0. -1.
         11    1    3    3    0    0 -0.17689237474E+02  0.24302027463E+01 -0.21734774165E+02  0.28128551617E+02  0.51100000000E-03 0.  1.
        -11    1    3    3    0    0  0.28164819634E+02 -0.68267605121E+01  0.14559470246E+02  0.32432081312E+02  0.51100000000E-03 0. -1.
        -12    1    3    3    0    0  0.82441053207E+01  0.40674335106E+01  0.75578840502E+01  0.11900878086E+02  0.00000000000E+00 0.  1.
</event>
<event>
 7    1  0.1333056E-013  0.7246150E+02  0.7816164E-02  0.1226708E+00
        -11   -1    0    0    0    0  0.00000000000E+00  0.00000000000E+00  0.45593999997E+02  0.45594000000E+02  0.51100000000E-03 0.  1.
         11   -1    0    0    0    0 -0.00000000000E+00 -0.00000000000E+00 -0.45593999997E+02  0.45594000000E+02  0.51100000000E-03 0. -1.
    9900012    2    1    2    0    0 -0.14144636346E+02  0.43807648211E+01  0.11463855486E+02  0.72461499516E+02  0.69999907797E+02 0.  0.
         12    1    1    2    0    0  0.14144636346E+02 -0.43807648211E+01 -0.11463855486E+02  0.18726500484E+02  0.00000000000E+00 0. -1.
         11    1    3    3    0    0 -0.12828218655E+02 -0.13109006984E+02  0.27952389189E+02  0.33432698360E+02  0.51100000000E-03 0. -1.
        -11    1    3    3    0    0  0.35402937117E+01  0.74739036575E+01  0.83856192042E+01  0.11777585710E+02  0.51100000000E-03 0.  1.
         12    1    3    3    0    0 -0.48567114031E+01  0.10015868148E+02 -0.24874152908E+02  0.27251215446E+02  0.00000000000E+00 0. -1.
</event>
<event>
 7    1  0.1333056E-013  0.7246153E+02  0.7816164E-02  0.1226708E+00
        -11   -1    0    0    0    0  0.00000000000E+00  0.00000000000E+00  0.45593999997E+02  0.45594000000E+02  0.51100000000E-03 0. -1.
         11   -1    0    0    0    0 -0.00000000000E+00 -0.00000000000E+00 -0.45593999997E+02  0.45594000000E+02  0.51100000000E-03 0.  1.
    9900012    2    1    2    0    0 -0.28701659634E+01 -0.59101964048E+01 -0.17536032035E+02  0.72461529598E+02  0.69999946985E+02 0.  0.
         12    1    1    2    0    0  0.28701659634E+01  0.59101964048E+01  0.17536032035E+02  0.18726470402E+02  0.00000000000E+00 0. -1.
         11    1    3    3    0    0 -0.18322559874E+02 -0.31439193841E+02 -0.24706338180E+01  0.36472498426E+02  0.51100000000E-03 0. -1.
        -11    1    3    3    0    0  0.33930500128E+01  0.17012550393E+02 -0.11462046140E+02  0.20792262052E+02  0.51100000000E-03 0.  1.
         12    1    3    3    0    0  0.12059343898E+02  0.85164470432E+01 -0.36033520768E+01  0.15196769120E+02  0.00000000000E+00 0. -1.
</event>
<event>
 7    1  0.1333056E-013  0.7246158E+02  0.7816164E-02  0.1226708E+00
        -11   -1    0    0    0    0  0.00000000000E+00  0.00000000000E+00  0.45593999997E+02  0.45594000000E+02  0.51100000000E-03 0. -1.
         11   -1    0    0    0    0 -0.00000000000E+00 -0.00000000000E+00 -0.45593999997E+02  0.45594000000E+02  0.51100000000E-03 0.  1.
    9900012    2    1    2    0    0  0.28008413472E+01 -0.13683226055E+02 -0.12474108162E+02  0.72461581176E+02  0.70000014176E+02 0.  0.
         12    1    1    2    0    0 -0.28008413472E+01  0.13683226055E+02  0.12474108162E+02  0.18726418824E+02  0.00000000000E+00 0. -1.
         11    1    3    3    0    0 -0.29878875635E+01  0.22956162075E+00  0.22282681231E+02  0.22483283873E+02  0.51100000000E-03 0. -1.
        -11    1    3    3    0    0  0.17659066698E+02 -0.15882186085E+02 -0.25040816666E+02  0.34512736360E+02  0.51100000000E-03 0.  1.
         12    1    3    3    0    0 -0.11870337787E+02  0.19693984090E+01 -0.97159727267E+01  0.15465560944E+02  0.00000000000E+00 0. -1.
</event>
<event>
 7    1  0.1333056E-013  0.7246155E+02  0.7816164E-02  0.1226708E+00
        -11   -1    0    0    0    0  0.00000000000E+00  0.00000000000E+00  0.45593999997E+02  0.45594000000E+02  0.51100000000E-03 0.  1.
         11   -1    0    0    0    0 -0.00000000000E+00 -0.00000000000E+00 -0.45593999997E+02  0.45594000000E+02  0.51100000000E-03 0. -1.
    9900012    2    1    2    0    0 -0.10346786321E+02 -0.14703797528E+02  0.52366347184E+01  0.72461548332E+02  0.69999971389E+02 0.  0.
         12    1    1    2    0    0  0.10346786321E+02  0.14703797528E+02 -0.52366347184E+01  0.18726451668E+02  0.00000000000E+00 0. -1.
         11    1    3    3    0    0 -0.13136188270E+02  0.39377529530E+01  0.49507126003E+01  0.14579948426E+02  0.51100000000E-03 0. -1.
        -11    1    3    3    0    0  0.21274685428E+02 -0.28104717859E+02 -0.68784103852E+01  0.35913784758E+02  0.51100000000E-03 0.  1.
        -12    1    3    3    0    0 -0.18485283479E+02  0.94631673779E+01  0.71643325033E+01  0.21967815147E+02  0.00000000000E+00 0.  1.
</event>
<event>
 7    1  0.1333056E-013  0.7246130E+02  0.7816164E-02  0.1226709E+00
        -11   -1    0    0    0    0  0.00000000000E+00  0.00000000000E+00  0.45593999997E+02  0.45594000000E+02  0.51100000000E-03 0.  1.
         11   -1    0    0    0    0 -0.00000000000E+00 -0.00000000000E+00 -0.45593999997E+02  0.45594000000E+02  0.51100000000E-03 0. -1.
    9900012    2    1    2    0    0 -0.83202280767E+01 -0.54752456754E+01  0.15858268061E+02  0.72461303112E+02  0.69999651944E+02 0.  0.
         12    1    1    2    0    0  0.83202280767E+01  0.54752456754E+01 -0.15858268061E+02  0.18726696888E+02  0.00000000000E+00 0. -1.
         11    1    3    3    0    0 -0.10190062179E+02  0.32096713728E+01 -0.52092629182E+01  0.11885948761E+02  0.51100000000E-03 0. -1.
        -11    1    3    3    0    0 -0.16972451492E+02 -0.17044128188E+02  0.29707684269E+02  0.38224506802E+02  0.51100000000E-03 0.  1.
        -12    1    3    3    0    0  0.18842285594E+02  0.83592111401E+01 -0.86401532904E+01  0.22350847549E+02  0.00000000000E+00 0.  1.
</event>
<event>
 7    1  0.1333056E-013  0.7246155E+02  0.7816164E-02  0.1226708E+00
        -11   -1    0    0    0    0  0.00000000000E+00  0.00000000000E+00  0.45593999997E+02  0.45594000000E+02  0.51100000000E-03 0.  1.
         11   -1    0    0    0    0 -0.00000000000E+00 -0.00000000000E+00 -0.45593999997E+02  0.45594000000E+02  0.51100000000E-03 0. -1.
    9900012    2    1    2    0    0  0.13612959516E+02 -0.10140770054E+02 -0.79077236040E+01  0.72461548743E+02  0.69999971925E+02 0.  0.
         12    1    1    2    0    0 -0.13612959516E+02  0.10140770054E+02  0.79077236040E+01  0.18726451257E+02  0.00000000000E+00 0. -1.
         11    1    3    3    0    0  0.22981579676E+02 -0.22311047543E+02 -0.17442987306E+01  0.32077693577E+02  0.51100000000E-03 0. -1.
        -11    1    3    3    0    0 -0.18378866042E+02  0.19827328213E+01  0.85330602015E+01  0.20359937698E+02  0.51100000000E-03 0.  1.
         12    1    3    3    0    0  0.90102458818E+01  0.10187544668E+02 -0.14696485075E+02  0.20023917468E+02  0.00000000000E+00 0. -1.
</event>
<event>
 7    1  0.1333056E-013  0.7246163E+02  0.7816164E-02  0.1226708E+00
        -11   -1    0    0    0    0  0.00000000000E+00  0.00000000000E+00  0.45593999997E+02  0.45594000000E+02  0.51100000000E-03 0. -1.
         11   -1    0    0    0    0 -0.00000000000E+00 -0.00000000000E+00 -0.45593999997E+02  0.45594000000E+02  0.51100000000E-03 0.  1.
    9900012    2    1    2    0    0 -0.47149322423E+00  0.44724839084E+00 -0.18715093569E+02  0.72461626505E+02  0.70000073224E+02 0.  0.
         12    1    1    2    0    0  0.47149322423E+00 -0.44724839084E+00  0.18715093569E+02  0.18726373495E+02  0.00000000000E+00 0. -1.
         11    1    3    3    0    0  0.20563473369E+02 -0.12292902010E+02 -0.26051034618E+02  0.35392489059E+02  0.51100000000E-03 0. -1.
        -11    1    3    3    0    0  0.57436739338E+00  0.12710173605E+02  0.87056061032E+01  0.15416419457E+02  0.51100000000E-03 0.  1.
         12    1    3    3    0    0 -0.21609333987E+02  0.29976796199E-01 -0.13696650540E+01  0.21652717989E+02  0.00000000000E+00 0. -1.
</event>
<event>
 7    1  0.1564549E-013  0.7246157E+02  0.7816164E-02  0.1226708E+00
        -11   -1    0    0    0    0  0.00000000000E+00  0.00000000000E+00  0.45593999997E+02  0.45594000000E+02  0.51100000000E-03 0.  1.
         11   -1    0    0    0    0 -0.00000000000E+00 -0.00000000000E+00 -0.45593999997E+02  0.45594000000E+02  0.51100000000E-03 0. -1.
    9900012    2    1    2    0    0 -0.70451348922E+01 -0.15388191583E+02  0.80155374201E+01  0.72461569321E+02  0.69999998732E+02 0.  0.
         12    1    1    2    0    0  0.70451348922E+01  0.15388191583E+02 -0.80155374201E+01  0.18726430679E+02  0.00000000000E+00 0. -1.
         11    1    3    3    0    0 -0.50217992271E+01 -0.76618270735E+01 -0.22739951968E+02  0.24515861750E+02  0.51100000000E-03 0. -1.
        -11    1    3    3    0    0  0.48954318006E+01 -0.20956995130E+02  0.21260767695E+02  0.30251960938E+02  0.51100000000E-03 0.  1.
        -12    1    3    3    0    0 -0.69187674657E+01  0.13230630620E+02  0.94947216937E+01  0.17693746632E+02  0.00000000000E+00 0.  1.
</event>
<event>
 7    1  0.1333056E-013  0.7246154E+02  0.7816164E-02  0.1226708E+00
        -11   -1    0    0    0    0  0.00000000000E+00  0.00000000000E+00  0.45593999997E+02  0.45594000000E+02  0.51100000000E-03 0. -1.
         11   -1    0    0    0    0 -0.00000000000E+00 -0.00000000000E+00 -0.45593999997E+02  0.45594000000E+02  0.51100000000E-03 0.  1.
    9900012    2    1    2    0    0 -0.14034153102E+02  0.11909092489E+02 -0.34491053340E+01  0.72461541050E+02  0.69999961904E+02 0.  0.
         12    1    1    2    0    0  0.14034153102E+02 -0.11909092489E+02  0.34491053340E+01  0.18726458950E+02  0.00000000000E+00 0. -1.
         11    1    3    3    0    0 -0.13365962004E+02  0.23193527352E+01  0.95887739039E+01  0.16612432773E+02  0.51100000000E-03 0. -1.
        -11    1    3    3    0    0  0.20650844747E+02 -0.98080492369E+01 -0.14356759556E+02  0.26995773073E+02  0.51100000000E-03 0.  1.
        -12    1    3    3    0    0 -0.21319035845E+02  0.19397788991E+02  0.13188803178E+01  0.28853335204E+02  0.00000000000E+00 0.  1.
</event>
<event>
 7    1  0.1333056E-013  0.7246156E+02  0.7816164E-02  0.1226708E+00
        -11   -1    0    0    0    0  0.00000000000E+00  0.00000000000E+00  0.45593999997E+02  0.45594000000E+02  0.51100000000E-03 0.  1.
         11   -1    0    0    0    0 -0.00000000000E+00 -0.00000000000E+00 -0.45593999997E+02  0.45594000000E+02  0.51100000000E-03 0. -1.
    9900012    2    1    2    0    0 -0.44044354423E+01 -0.62284721914E+01  0.17102243041E+02  0.72461557881E+02  0.69999983829E+02 0.  0.
         12    1    1    2    0    0  0.44044354423E+01  0.62284721914E+01 -0.17102243041E+02  0.18726442119E+02  0.00000000000E+00 0. -1.
         11    1    3    3    0    0 -0.12496208959E+02  0.24495788059E+02  0.14102780483E+01  0.27535209377E+02  0.51100000000E-03 0. -1.
        -11    1    3    3    0    0  0.18226782873E+02 -0.17102318767E+02  0.76441401093E+01  0.26136904931E+02  0.51100000000E-03 0.  1.
         12    1    3    3    0    0 -0.10135009356E+02 -0.13621941484E+02  0.80478248834E+01  0.18789443573E+02  0.00000000000E+00 0. -1.
</event>
<event>
 7    1  0.1333056E-013  0.7246184E+02  0.7816164E-02  0.1226707E+00
        -11   -1    0    0    0    0  0.00000000000E+00  0.00000000000E+00  0.45593999997E+02  0.45594000000E+02  0.51100000000E-03 0. -1.
         11   -1    0    0    0    0 -0.00000000000E+00 -0.00000000000E+00 -0.45593999997E+02  0.45594000000E+02  0.51100000000E-03 0.  1.
    9900012    2    1    2    0    0  0.30716737142E+01  0.72552684933E+01 -0.16988082927E+02  0.72461840174E+02  0.70000351567E+02 0.  0.
         12    1    1    2    0    0 -0.30716737142E+01 -0.72552684933E+01  0.16988082927E+02  0.18726159826E+02  0.00000000000E+00 0. -1.
         11    1    3    3    0    0  0.17332012859E+02 -0.59756155519E+01 -0.46590023323E+01  0.18915944437E+02  0.51100000000E-03 0. -1.
        -11    1    3    3    0    0 -0.42591851285E+01  0.14744534604E+02  0.16773698399E+02  0.22735411079E+02  0.51100000000E-03 0.  1.
        -12    1    3    3    0    0 -0.10001154016E+02 -0.15136505592E+01 -0.29102778994E+02  0.30810484658E+02  0.00000000000E+00 0.  1.
</event>
<event>
 7    1  0.1333056E-013  0.7246180E+02  0.7816164E-02  0.1226707E+00
        -11   -1    0    0    0    0  0.00000000000E+00  0.00000000000E+00  0.45593999997E+02  0.45594000000E+02  0.51100000000E-03 0.  1.
         11   -1    0    0    0    0 -0.00000000000E+00 -0.00000000000E+00 -0.45593999997E+02  0.45594000000E+02  0.51100000000E-03 0. -1.
    9900012    2    1    2    0    0 -0.12887704851E+02  0.66343342963E+01  0.11855940017E+02  0.72461797994E+02  0.70000296621E+02 0.  0.
         12    1    1    2    0    0  0.12887704851E+02 -0.66343342963E+01 -0.11855940017E+02  0.18726202006E+02  0.00000000000E+00 0. -1.
         11    1    3    3    0    0 -0.23135103437E+02  0.44015908532E+00 -0.18817282414E+02  0.29824769383E+02  0.51100000000E-03 0. -1.
        -11    1    3    3    0    0 -0.84666123909E+01 -0.18311030065E+01  0.13290926685E+02  0.15864589374E+02  0.51100000000E-03 0.  1.
         12    1    3    3    0    0  0.18714010977E+02  0.80252782175E+01  0.17382295746E+02  0.26772439237E+02  0.00000000000E+00 0. -1.
</event>
<event>
 7    1  0.1333056E-013  0.7246150E+02  0.7816164E-02  0.1226708E+00
        -11   -1    0    0    0    0  0.00000000000E+00  0.00000000000E+00  0.45593999997E+02  0.45594000000E+02  0.51100000000E-03 0. -1.
         11   -1    0    0    0    0 -0.00000000000E+00 -0.00000000000E+00 -0.45593999997E+02  0.45594000000E+02  0.51100000000E-03 0.  1.
    9900012    2    1    2    0    0  0.12408742361E+02 -0.65716149764E+01 -0.12390269373E+02  0.72461500447E+02  0.69999909011E+02 0.  0.
         12    1    1    2    0    0 -0.12408742361E+02  0.65716149764E+01  0.12390269373E+02  0.18726499553E+02  0.00000000000E+00 0. -1.
         11    1    3    3    0    0  0.33763057883E+02 -0.10228352355E+02  0.92647427215E+01  0.36474631286E+02  0.51100000000E-03 0. -1.
        -11    1    3    3    0    0 -0.38067932012E+01 -0.41542363752E+01 -0.14385683173E+02  0.15449829609E+02  0.51100000000E-03 0.  1.
         12    1    3    3    0    0 -0.17547522321E+02  0.78109737543E+01 -0.72693289217E+01  0.20537039552E+02  0.00000000000E+00 0. -1.
</event>
<event>
 7    1  0.1333056E-013  0.7246154E+02  0.7816164E-02  0.1226708E+00
        -11   -1    0    0    0    0  0.00000000000E+00  0.00000000000E+00  0.45593999997E+02  0.45594000000E+02  0.51100000000E-03 0.  1.
         11   -1    0    0    0    0 -0.00000000000E+00 -0.00000000000E+00 -0.45593999997E+02  0.45594000000E+02  0.51100000000E-03 0. -1.
    9900012    2    1    2    0    0  0.71637307323E+01  0.47444993648E+00  0.17295558669E+02  0.72461535026E+02  0.69999954056E+02 0.  0.
         12    1    1    2    0    0 -0.71637307323E+01 -0.47444993648E+00 -0.17295558669E+02  0.18726464974E+02  0.00000000000E+00 0. -1.
         11    1    3    3    0    0  0.28080777026E+02 -0.14418897344E+02  0.19063314936E+02  0.36876071043E+02  0.51100000000E-03 0. -1.
        -11    1    3    3    0    0 -0.19759954078E+02  0.16574782416E+02  0.68858036942E+01  0.26694446802E+02  0.51100000000E-03 0.  1.
        -12    1    3    3    0    0 -0.11570922157E+01 -0.16814351354E+01 -0.86535599609E+01  0.88910171807E+01  0.00000000000E+00 0.  1.
</event>
<event>
 7    1  0.1333056E-013  0.7246144E+02  0.7816164E-02  0.1226708E+00
        -11   -1    0    0    0    0  0.00000000000E+00  0.00000000000E+00  0.45593999997E+02  0.45594000000E+02  0.51100000000E-03 0.  1.
         11   -1    0    0    0    0 -0.00000000000E+00 -0.00000000000E+00 -0.45593999997E+02  0.45594000000E+02  0.51100000000E-03 0. -1.
    9900012    2    1    2    0    0 -0.13804368281E+02 -0.12597635894E+02  0.11928356992E+01  0.72461444771E+02  0.69999836482E+02 0.  0.
         12    1    1    2    0    0  0.13804368281E+02  0.12597635894E+02 -0.11928356992E+01  0.18726555229E+02  0.00000000000E+00 0. -1.
         11    1    3    3    0    0 -0.24241201670E+01 -0.13444170320E+02 -0.16570178669E+02  0.21475402104E+02  0.51100000000E-03 0. -1.
        -11    1    3    3    0    0 -0.18054192937E+02 -0.15747452806E+02  0.22087163691E+02  0.32584949788E+02  0.51100000000E-03 0.  1.
         12    1    3    3    0    0  0.66739448227E+01  0.16593987232E+02 -0.43241493233E+01  0.18401092879E+02  0.00000000000E+00 0. -1.
</event>
<event>
 7    1  0.1333056E-013  0.7246154E+02  0.7816164E-02  0.1226708E+00
        -11   -1    0    0    0    0  0.00000000000E+00  0.00000000000E+00  0.45593999997E+02  0.45594000000E+02  0.51100000000E-03 0.  1.
         11   -1    0    0    0    0 -0.00000000000E+00 -0.00000000000E+00 -0.45593999997E+02  0.45594000000E+02  0.51100000000E-03 0. -1.
    9900012    2    1    2    0    0 -0.86390701117E+01  0.42730188311E+01  0.16055774508E+02  0.72461544986E+02  0.69999967031E+02 0.  0.
         12    1    1    2    0    0  0.86390701117E+01 -0.42730188311E+01 -0.16055774508E+02  0.18726455014E+02  0.00000000000E+00 0. -1.
         11    1    3    3    0    0 -0.14768280820E+02  0.61039253601E+00 -0.12325559169E+02  0.19245625647E+02  0.51100000000E-03 0. -1.
        -11    1    3    3    0    0  0.71277052440E+01  0.23680623701E+02  0.18406103774E+02  0.30827922040E+02  0.51100000000E-03 0.  1.
        -12    1    3    3    0    0 -0.99849453535E+00 -0.20017997406E+02  0.99752299035E+01  0.22387997300E+02  0.00000000000E+00 0.  1.
</event>
<event>
 7    1  0.1333056E-013  0.7246158E+02  0.7816164E-02  0.1226708E+00
        -11   -1    0    0    0    0  0.00000000000E+00  0.00000000000E+00  0.45593999997E+02  0.45594000000E+02  0.51100000000E-03 0. -1.
         11   -1    0    0    0    0 -0.00000000000E+00 -0.00000000000E+00 -0.45593999997E+02  0.45594000000E+02  0.51100000000E-03 0.  1.
    9900012    2    1    2    0    0 -0.15227692761E+02  0.10139789628E+02  0.39976004769E+01  0.72461580959E+02  0.70000013892E+02 0.  0.
         12    1    1    2    0    0  0.15227692761E+02 -0.10139789628E+02 -0.39976004769E+01  0.18726419041E+02  0.00000000000E+00 0. -1.
         11    1    3    3    0    0 -0.15968901489E+02 -0.27179429087E+02 -0.32534094415E+01  0.31690879658E+02  0.51100000000E-03 0. -1.
        -11    1    3    3    0    0 -0.67702093983E+01  0.13353196517E+02  0.35182765371E+01  0.15379267296E+02  0.51100000000E-03 0.  1.
         12    1    3    3    0    0  0.75114181254E+01  0.23966022199E+02  0.37327333813E+01  0.25391434004E+02  0.00000000000E+00 0. -1.
</event>
<event>
 7    1  0.1333056E-013  0.7246152E+02  0.7816164E-02  0.1226708E+00
        -11   -1    0    0    0    0  0.00000000000E+00  0.00000000000E+00  0.45593999997E+02  0.45594000000E+02  0.51100000000E-03 0.  1.
         11   -1    0    0    0    0 -0.00000000000E+00 -0.00000000000E+00 -0.45593999997E+02  0.45594000000E+02  0.51100000000E-03 0. -1.
    9900012    2    1    2    0    0  0.45749020718E+00 -0.12942483072E+02  0.13526416876E+02  0.72461518247E+02  0.69999932198E+02 0.  0.
         12    1    1    2    0    0 -0.45749020718E+00  0.12942483072E+02 -0.13526416876E+02  0.18726481753E+02  0.00000000000E+00 0. -1.
         11    1    3    3    0    0 -0.10118903240E+02 -0.18687163335E+02  0.30496288769E+02  0.37170228748E+02  0.51100000000E-03 0. -1.
        -11    1    3    3    0    0  0.16414971229E+02  0.15404117324E+01  0.39826510687E+00  0.16491899954E+02  0.51100000000E-03 0.  1.
         12    1    3    3    0    0 -0.58385777816E+01  0.42042685302E+01 -0.17368137000E+02  0.18799389544E+02  0.00000000000E+00 0. -1.
</event>
<event>
 7    1  0.1333056E-013  0.7246156E+02  0.7816164E-02  0.1226708E+00
        -11   -1    0    0    0    0  0.00000000000E+00  0.00000000000E+00  0.45593999997E+02  0.45594000000E+02  0.51100000000E-03 0. -1.
         11   -1    0    0    0    0 -0.00000000000E+00 -0.00000000000E+00 -0.45593999997E+02  0.45594000000E+02  0.51100000000E-03 0.  1.
    9900012    2    1    2    0    0 -0.16382594107E+02  0.89832226525E+01  0.12617012716E+01  0.72461559628E+02  0.69999986106E+02 0.  0.
         12    1    1    2    0    0  0.16382594107E+02 -0.89832226525E+01 -0.12617012716E+01  0.18726440372E+02  0.00000000000E+00 0. -1.
         11    1    3    3    0    0  0.38569652329E+01 -0.11619881591E+02 -0.72339952177E+01  0.14220707299E+02  0.51100000000E-03 0. -1.
        -11    1    3    3    0    0 -0.32403209304E+02  0.28345480678E+02  0.45454177486E+01  0.43290819706E+02  0.51100000000E-03 0.  1.
        -12    1    3    3    0    0  0.12163649964E+02 -0.77423764343E+01  0.39502787407E+01  0.14950032623E+02  0.00000000000E+00 0.  1.
</event>
<event>
 7    1  0.1333056E-013  0.7246199E+02  0.7816164E-02  0.1226707E+00
        -11   -1    0    0    0    0  0.00000000000E+00  0.00000000000E+00  0.45593999997E+02  0.45594000000E+02  0.51100000000E-03 0.  1.
         11   -1    0    0    0    0 -0.00000000000E+00 -0.00000000000E+00 -0.45593999997E+02  0.45594000000E+02  0.51100000000E-03 0. -1.
    9900012    2    1    2    0    0 -0.18573686148E+02  0.58720939282E+00  0.23101667417E+01  0.72461988615E+02  0.70000544939E+02 0.  0.
         12    1    1    2    0    0  0.18573686148E+02 -0.58720939282E+00 -0.23101667417E+01  0.18726011385E+02  0.00000000000E+00 0. -1.
         11    1    3    3    0    0  0.17875478057E+02 -0.11989427707E+02 -0.15676066503E+02  0.26627394799E+02  0.51100000000E-03 0. -1.
        -11    1    3    3    0    0 -0.15049535692E+02  0.11339711641E+01 -0.84860391511E+00  0.15116035989E+02  0.51100000000E-03 0.  1.
         12    1    3    3    0    0 -0.21399628513E+02  0.11442665936E+02  0.18834837159E+02  0.30718557828E+02  0.00000000000E+00 0. -1.
</event>
<event>
 7    1  0.1333056E-013  0.7246128E+02  0.7816164E-02  0.1226709E+00
        -11   -1    0    0    0    0  0.00000000000E+00  0.00000000000E+00  0.45593999997E+02  0.45594000000E+02  0.51100000000E-03 0. -1.
         11   -1    0    0    0    0 -0.00000000000E+00 -0.00000000000E+00 -0.45593999997E+02  0.45594000000E+02  0.51100000000E-03 0.  1.
    9900012    2    1    2    0    0 -0.51808339439E+01  0.15040909452E+02 -0.98802801482E+01  0.72461282901E+02  0.69999625616E+02 0.  0.
         12    1    1    2    0    0  0.51808339439E+01 -0.15040909452E+02  0.98802801482E+01  0.18726717099E+02  0.00000000000E+00 0. -1.
         11    1    3    3    0    0 -0.30854090706E+02  0.48318800175E+01  0.13569883390E+02  0.34050898862E+02  0.51100000000E-03 0. -1.
        -11    1    3    3    0    0  0.41678132820E+00  0.43961219703E+01 -0.44981080070E+01  0.63033777419E+01  0.51100000000E-03 0.  1.
         12    1    3    3    0    0  0.25256475434E+02  0.58129074640E+01 -0.18952055531E+02  0.32107006298E+02  0.00000000000E+00 0. -1.
</event>
<event>
 7    1  0.1333056E-013  0.7246138E+02  0.7816164E-02  0.1226709E+00
        -11   -1    0    0    0    0  0.00000000000E+00  0.00000000000E+00  0.45593999997E+02  0.45594000000E+02  0.51100000000E-03 0.  1.
         11   -1    0    0    0    0 -0.00000000000E+00 -0.00000000000E+00 -0.45593999997E+02  0.45594000000E+02  0.51100000000E-03 0. -1.
    9900012    2    1    2    0    0  0.10217778713E+02  0.94866867079E+01  0.12501439039E+02  0.72461382458E+02  0.69999755307E+02 0.  0.
         12    1    1    2    0    0 -0.10217778713E+02 -0.94866867079E+01 -0.12501439039E+02  0.18726617542E+02  0.00000000000E+00 0. -1.
         11    1    3    3    0    0  0.25207387169E+01  0.33419255770E+02  0.26905340270E+02  0.42977879371E+02  0.51100000000E-03 0. -1.
        -11    1    3    3    0    0  0.24737820426E+01 -0.13248941998E+02 -0.10077542994E+02  0.16828872057E+02  0.51100000000E-03 0.  1.
         12    1    3    3    0    0  0.52232579536E+01 -0.10683627065E+02 -0.43263582368E+01  0.12654631030E+02  0.00000000000E+00 0. -1.
</event>
<event>
 7    1  0.1333056E-013  0.7246162E+02  0.7816164E-02  0.1226708E+00
        -11   -1    0    0    0    0  0.00000000000E+00  0.00000000000E+00  0.45593999997E+02  0.45594000000E+02  0.51100000000E-03 0. -1.
         11   -1    0    0    0    0 -0.00000000000E+00 -0.00000000000E+00 -0.45593999997E+02  0.45594000000E+02  0.51100000000E-03 0.  1.
    9900012    2    1    2    0    0  0.60668987432E+01  0.82179510849E+00 -0.17697306670E+02  0.72461620988E+02  0.70000066037E+02 0.  0.
         12    1    1    2    0    0 -0.60668987432E+01 -0.82179510849E+00  0.17697306670E+02  0.18726379012E+02  0.00000000000E+00 0. -1.
         11    1    3    3    0    0  0.23105764888E+02  0.77959213535E+01  0.15165424694E+02  0.28716595676E+02  0.51100000000E-03 0. -1.
        -11    1    3    3    0    0 -0.14219152117E+02  0.20135655420E+01 -0.65256386665E+01  0.15774114663E+02  0.51100000000E-03 0.  1.
         12    1    3    3    0    0 -0.28197140275E+01 -0.89876917870E+01 -0.26337092697E+02  0.27970910649E+02  0.00000000000E+00 0. -1.
</event>
<event>
 7    1  0.1333056E-013  0.7246156E+02  0.7816164E-02  0.1226708E+00
        -11   -1    0    0    0    0  0.00000000000E+00  0.00000000000E+00  0.45593999997E+02  0.45594000000E+02  0.51100000000E-03 0.  1.
         11   -1    0    0    0    0 -0.00000000000E+00 -0.00000000000E+00 -0.45593999997E+02  0.45594000000E+02  0.51100000000E-03 0. -1.
    9900012    2    1    2    0    0  0.19556794520E+01 -0.75663332352E+01  0.17017794799E+02  0.72461563591E+02  0.69999991268E+02 0.  0.
         12    1    1    2    0    0 -0.19556794520E+01  0.75663332352E+01 -0.17017794799E+02  0.18726436409E+02  0.00000000000E+00 0. -1.
         11    1    3    3    0    0  0.29276818851E+02 -0.20180143568E+02 -0.20385483908E+01  0.35616372587E+02  0.51100000000E-03 0. -1.
        -11    1    3    3    0    0 -0.71764264054E+01  0.62627779682E+01  0.20870136376E+01  0.97508517585E+01  0.51100000000E-03 0.  1.
         12    1    3    3    0    0 -0.20144712993E+02  0.63510323649E+01  0.16969329553E+02  0.27094339245E+02  0.00000000000E+00 0. -1.
</event>
<event>
 7    1  0.1333056E-013  0.7246159E+02  0.7816164E-02  0.1226708E+00
        -11   -1    0    0    0    0  0.00000000000E+00  0.00000000000E+00  0.45593999997E+02  0.45594000000E+02  0.51100000000E-03 0.  1.
         11   -1    0    0    0    0 -0.00000000000E+00 -0.00000000000E+00 -0.45593999997E+02  0.45594000000E+02  0.51100000000E-03 0. -1.
    9900012    2    1    2    0    0 -0.17261476102E+02 -0.28209395021E+01 -0.66904536061E+01  0.72461590137E+02  0.70000025848E+02 0.  0.
         12    1    1    2    0    0  0.17261476102E+02  0.28209395021E+01  0.66904536061E+01  0.18726409863E+02  0.00000000000E+00 0. -1.
         11    1    3    3    0    0  0.46672180593E+01  0.34859208262E+01 -0.12513499647E+02  0.13802979464E+02  0.51100000000E-03 0. -1.
        -11    1    3    3    0    0 -0.35058277884E+02 -0.17718275158E+02  0.10470685058E+02  0.40652864212E+02  0.51100000000E-03 0.  1.
        -12    1    3    3    0    0  0.13129583723E+02  0.11411414830E+02 -0.46476390179E+01  0.18005746460E+02  0.00000000000E+00 0.  1.
</event>
<event>
 7    1  0.1333056E-013  0.7246149E+02  0.7816164E-02  0.1226708E+00
        -11   -1    0    0    0    0  0.00000000000E+00  0.00000000000E+00  0.45593999997E+02  0.45594000000E+02  0.51100000000E-03 0.  1.
         11   -1    0    0    0    0 -0.00000000000E+00 -0.00000000000E+00 -0.45593999997E+02  0.45594000000E+02  0.51100000000E-03 0. -1.
    9900012    2    1    2    0    0  0.15254709681E+02 -0.98920495129E+01 -0.44859225290E+01  0.72461486391E+02  0.69999890700E+02 0.  0.
         12    1    1    2    0    0 -0.15254709681E+02  0.98920495129E+01  0.44859225290E+01  0.18726513609E+02  0.00000000000E+00 0. -1.
         11    1    3    3    0    0 -0.18510016856E+02 -0.12621403840E+02 -0.13006741046E+02  0.25905518173E+02  0.51100000000E-03 0. -1.
        -11    1    3    3    0    0  0.22445187508E+02 -0.10048575986E+02  0.14404261823E+02  0.28499878606E+02  0.51100000000E-03 0.  1.
         12    1    3    3    0    0  0.11319539029E+02  0.12777930313E+02 -0.58834433062E+01  0.18056089612E+02  0.00000000000E+00 0. -1.
</event>
<event>
 7    1  0.1333056E-013  0.7246160E+02  0.7816164E-02  0.1226708E+00
        -11   -1    0    0    0    0  0.00000000000E+00  0.00000000000E+00  0.45593999997E+02  0.45594000000E+02  0.51100000000E-03 0. -1.
         11   -1    0    0    0    0 -0.00000000000E+00 -0.00000000000E+00 -0.45593999997E+02  0.45594000000E+02  0.51100000000E-03 0.  1.
    9900012    2    1    2    0    0  0.11596972230E+02  0.11035568390E+02 -0.97161958143E+01  0.72461601636E+02  0.70000040828E+02 0.  0.
         12    1    1    2    0    0 -0.11596972230E+02 -0.11035568390E+02  0.97161958143E+01  0.18726398364E+02  0.00000000000E+00 0. -1.
         11    1    3    3    0    0  0.15492681994E+02  0.53876871758E+01  0.18300188095E+02  0.24575338310E+02  0.51100000000E-03 0. -1.
        -11    1    3    3    0    0  0.14350405679E+02 -0.18454738345E+00 -0.24524276205E+02  0.28414931366E+02  0.51100000000E-03 0.  1.
         12    1    3    3    0    0 -0.18246115442E+02  0.58324285974E+01 -0.34921077039E+01  0.19471331960E+02  0.00000000000E+00 0. -1.
</event>
<event>
 7    1  0.1333056E-013  0.7246151E+02  0.7816164E-02  0.1226708E+00
        -11   -1    0    0    0    0  0.00000000000E+00  0.00000000000E+00  0.45593999997E+02  0.45594000000E+02  0.51100000000E-03 0. -1.
         11   -1    0    0    0    0 -0.00000000000E+00 -0.00000000000E+00 -0.45593999997E+02  0.45594000000E+02  0.51100000000E-03 0.  1.
    9900012    2    1    2    0    0 -0.14526811432E+02  0.80174375546E+01 -0.86818221079E+01  0.72461505655E+02  0.69999915796E+02 0.  0.
         12    1    1    2    0    0  0.14526811432E+02 -0.80174375546E+01  0.86818221079E+01  0.18726494345E+02  0.00000000000E+00 0. -1.
         11    1    3    3    0    0 -0.18990112438E+02 -0.26895725255E+02 -0.28472661855E+01  0.33047107777E+02  0.51100000000E-03 0. -1.
        -11    1    3    3    0    0 -0.63160070752E+01  0.12967315406E+02 -0.76394942464E+00  0.14443920285E+02  0.51100000000E-03 0.  1.
         12    1    3    3    0    0  0.10779308082E+02  0.21945847404E+02 -0.50706064978E+01  0.24970477594E+02  0.00000000000E+00 0. -1.
</event>
<event>
 7    1  0.1333056E-013  0.7246141E+02  0.7816164E-02  0.1226708E+00
        -11   -1    0    0    0    0  0.00000000000E+00  0.00000000000E+00  0.45593999997E+02  0.45594000000E+02  0.51100000000E-03 0. -1.
         11   -1    0    0    0    0 -0.00000000000E+00 -0.00000000000E+00 -0.45593999997E+02  0.45594000000E+02  0.51100000000E-03 0.  1.
    9900012    2    1    2    0    0  0.80428424482E+01 -0.26797585564E+00 -0.16909347901E+02  0.72461410024E+02  0.69999791218E+02 0.  0.
         12    1    1    2    0    0 -0.80428424482E+01  0.26797585564E+00  0.16909347901E+02  0.18726589976E+02  0.00000000000E+00 0. -1.
         11    1    3    3    0    0 -0.25626645341E+02  0.15085506964E+02  0.30737582227E+01  0.29895575954E+02  0.51100000000E-03 0.  1.
        -11    1    3    3    0    0  0.31155606744E+02 -0.12141316673E+02 -0.18575173211E+02  0.38250757668E+02  0.51100000000E-03 0. -1.
         12    1    3    3    0    0  0.25138810447E+01 -0.32121661467E+01 -0.14079329130E+01  0.43150764012E+01  0.00000000000E+00 0. -1.
</event>
<event>
 7    1  0.1333056E-013  0.7246157E+02  0.7816164E-02  0.1226708E+00
        -11   -1    0    0    0    0  0.00000000000E+00  0.00000000000E+00  0.45593999997E+02  0.45594000000E+02  0.51100000000E-03 0. -1.
         11   -1    0    0    0    0 -0.00000000000E+00 -0.00000000000E+00 -0.45593999997E+02  0.45594000000E+02  0.51100000000E-03 0.  1.
    9900012    2    1    2    0    0  0.79981500093E+00  0.15699326405E+02 -0.10176966981E+02  0.72461569200E+02  0.69999998574E+02 0.  0.
         12    1    1    2    0    0 -0.79981500093E+00 -0.15699326405E+02  0.10176966981E+02  0.18726430800E+02  0.00000000000E+00 0. -1.
         11    1    3    3    0    0  0.13659075088E+01 -0.65403998784E+01  0.17079135492E+01  0.68963398151E+01  0.51100000000E-03 0. -1.
        -11    1    3    3    0    0  0.14529161346E+02  0.18692748580E+02 -0.32225902074E+02  0.39987799936E+02  0.51100000000E-03 0.  1.
        -12    1    3    3    0    0 -0.15095253854E+02  0.35469777028E+01  0.20341021544E+02  0.25577429449E+02  0.00000000000E+00 0.  1.
</event>
<event>
 7    1  0.1333056E-013  0.7246162E+02  0.7816164E-02  0.1226708E+00
        -11   -1    0    0    0    0  0.00000000000E+00  0.00000000000E+00  0.45593999997E+02  0.45594000000E+02  0.51100000000E-03 0. -1.
         11   -1    0    0    0    0 -0.00000000000E+00 -0.00000000000E+00 -0.45593999997E+02  0.45594000000E+02  0.51100000000E-03 0.  1.
    9900012    2    1    2    0    0  0.62404035380E+01  0.12118343821E+02  0.12840574899E+02  0.72461621359E+02  0.70000066521E+02 0.  0.
         12    1    1    2    0    0 -0.62404035380E+01 -0.12118343821E+02 -0.12840574899E+02  0.18726378641E+02  0.00000000000E+00 0. -1.
         11    1    3    3    0    0 -0.33374187317E+01  0.19996524682E+01  0.25047609748E+02  0.25347972861E+02  0.51100000000E-03 0. -1.
        -11    1    3    3    0    0 -0.14934824174E+02  0.58134469071E+01 -0.15148332808E+02  0.22052599057E+02  0.51100000000E-03 0.  1.
        -12    1    3    3    0    0  0.24512646444E+02  0.43052444457E+01  0.29412979585E+01  0.25061049441E+02  0.00000000000E+00 0.  1.
</event>
<event>
 7    1  0.1333056E-013  0.7246150E+02  0.7816164E-02  0.1226708E+00
        -11   -1    0    0    0    0  0.00000000000E+00  0.00000000000E+00  0.45593999997E+02  0.45594000000E+02  0.51100000000E-03 0.  1.
         11   -1    0    0    0    0 -0.00000000000E+00 -0.00000000000E+00 -0.45593999997E+02  0.45594000000E+02  0.51100000000E-03 0. -1.
    9900012    2    1    2    0    0 -0.60810486971E+01 -0.82662471013E+01  0.15664342880E+02  0.72461504539E+02  0.69999914341E+02 0.  0.
         12    1    1    2    0    0  0.60810486971E+01  0.82662471013E+01 -0.15664342880E+02  0.18726495461E+02  0.00000000000E+00 0. -1.
         11    1    3    3    0    0  0.12643929953E+01  0.17021891595E+02  0.78221630617E+01  0.18775774773E+02  0.51100000000E-03 0. -1.
        -11    1    3    3    0    0  0.85947798778E+01 -0.23083549887E+02  0.21410993982E+02  0.32636653935E+02  0.51100000000E-03 0.  1.
        -12    1    3    3    0    0 -0.15940221570E+02 -0.22045888086E+01 -0.13568814164E+02  0.21049075831E+02  0.00000000000E+00 0.  1.
</event>
<event>
 7    1  0.1333056E-013  0.7246127E+02  0.7816164E-02  0.1226709E+00
        -11   -1    0    0    0    0  0.00000000000E+00  0.00000000000E+00  0.45593999997E+02  0.45594000000E+02  0.51100000000E-03 0. -1.
         11   -1    0    0    0    0 -0.00000000000E+00 -0.00000000000E+00 -0.45593999997E+02  0.45594000000E+02  0.51100000000E-03 0.  1.
    9900012    2    1    2    0    0 -0.19228946783E+01 -0.14258544889E+01 -0.18573097822E+02  0.72461266498E+02  0.69999604248E+02 0.  0.
         12    1    1    2    0    0  0.19228946783E+01  0.14258544889E+01  0.18573097822E+02  0.18726733502E+02  0.00000000000E+00 0. -1.
         11    1    3    3    0    0  0.68990178254E+01  0.25934596585E+02  0.39289231335E+01  0.27122613890E+02  0.51100000000E-03 0.  1.
        -11    1    3    3    0    0 -0.16588125563E+02 -0.10213615467E+02 -0.62171540293E+01  0.20448394927E+02  0.51100000000E-03 0. -1.
         12    1    3    3    0    0  0.77662130598E+01 -0.17146835607E+02 -0.16284866926E+02  0.24890257680E+02  0.00000000000E+00 0. -1.
</event>
<event>
 7    1  0.1333056E-013  0.7246154E+02  0.7816164E-02  0.1226708E+00
        -11   -1    0    0    0    0  0.00000000000E+00  0.00000000000E+00  0.45593999997E+02  0.45594000000E+02  0.51100000000E-03 0.  1.
         11   -1    0    0    0    0 -0.00000000000E+00 -0.00000000000E+00 -0.45593999997E+02  0.45594000000E+02  0.51100000000E-03 0. -1.
    9900012    2    1    2    0    0 -0.17448318751E+02  0.51840522303E+01  0.44002526284E+01  0.72461536160E+02  0.69999955534E+02 0.  0.
         12    1    1    2    0    0  0.17448318751E+02 -0.51840522303E+01 -0.44002526284E+01  0.18726463840E+02  0.00000000000E+00 0. -1.
         11    1    3    3    0    0 -0.29782194589E+02  0.17205739944E+02  0.12692701766E+02  0.36662259613E+02  0.51100000000E-03 0. -1.
        -11    1    3    3    0    0  0.17089091839E+02  0.31071310127E+01  0.10367335637E+01  0.17400176429E+02  0.51100000000E-03 0.  1.
         12    1    3    3    0    0 -0.47552160007E+01 -0.15128818726E+02 -0.93291827015E+01  0.18399100118E+02  0.00000000000E+00 0. -1.
</event>
<event>
 7    1  0.1333056E-013  0.7246156E+02  0.7816164E-02  0.1226708E+00
        -11   -1    0    0    0    0  0.00000000000E+00  0.00000000000E+00  0.45593999997E+02  0.45594000000E+02  0.51100000000E-03 0. -1.
         11   -1    0    0    0    0 -0.00000000000E+00 -0.00000000000E+00 -0.45593999997E+02  0.45594000000E+02  0.51100000000E-03 0.  1.
    9900012    2    1    2    0    0 -0.13965451768E+02 -0.11831970981E+02  0.39560254923E+01  0.72461560988E+02  0.69999987877E+02 0.  0.
         12    1    1    2    0    0  0.13965451768E+02  0.11831970981E+02 -0.39560254923E+01  0.18726439012E+02  0.00000000000E+00 0. -1.
         11    1    3    3    0    0 -0.12464716623E+02 -0.32932907485E+02  0.14020946940E+01  0.35240763694E+02  0.51100000000E-03 0. -1.
        -11    1    3    3    0    0  0.51601839890E+01  0.23951300491E+02  0.10332726655E+02  0.26590553481E+02  0.51100000000E-03 0.  1.
        -12    1    3    3    0    0 -0.66609191335E+01 -0.28503639873E+01 -0.77787958562E+01  0.10630243814E+02  0.00000000000E+00 0.  1.
</event>
<event>
 7    1  0.1333056E-013  0.7246159E+02  0.7816164E-02  0.1226708E+00
        -11   -1    0    0    0    0  0.00000000000E+00  0.00000000000E+00  0.45593999997E+02  0.45594000000E+02  0.51100000000E-03 0. -1.
         11   -1    0    0    0    0 -0.00000000000E+00 -0.00000000000E+00 -0.45593999997E+02  0.45594000000E+02  0.51100000000E-03 0.  1.
    9900012    2    1    2    0    0  0.57346233736E+01  0.35759430574E+01  0.17464397589E+02  0.72461589316E+02  0.70000024779E+02 0.  0.
         12    1    1    2    0    0 -0.57346233736E+01 -0.35759430574E+01 -0.17464397589E+02  0.18726410684E+02  0.00000000000E+00 0. -1.
         11    1    3    3    0    0 -0.21935538985E+02  0.84849052911E+01  0.30622938571E+02  0.38612509053E+02  0.51100000000E-03 0. -1.
        -11    1    3    3    0    0  0.41974282148E+00 -0.38857824723E+01 -0.13869136094E+01  0.41471700085E+01  0.51100000000E-03 0.  1.
         12    1    3    3    0    0  0.27250419537E+02 -0.10231797615E+01 -0.11771627373E+02  0.29701910254E+02  0.00000000000E+00 0. -1.
</event>
<event>
 7    1  0.1333056E-013  0.7246150E+02  0.7816164E-02  0.1226708E+00
        -11   -1    0    0    0    0  0.00000000000E+00  0.00000000000E+00  0.45593999997E+02  0.45594000000E+02  0.51100000000E-03 0.  1.
         11   -1    0    0    0    0 -0.00000000000E+00 -0.00000000000E+00 -0.45593999997E+02  0.45594000000E+02  0.51100000000E-03 0. -1.
    9900012    2    1    2    0    0  0.11339653573E+02  0.14617485729E+02 -0.29022907444E+01  0.72461496755E+02  0.69999904202E+02 0.  0.
         12    1    1    2    0    0 -0.11339653573E+02 -0.14617485729E+02  0.29022907444E+01  0.18726503245E+02  0.00000000000E+00 0. -1.
         11    1    3    3    0    0  0.11974712173E+02  0.94364436131E+00 -0.30530857316E+02  0.32808801335E+02  0.51100000000E-03 0. -1.
        -11    1    3    3    0    0  0.88509616220E+01 -0.21471296287E+00  0.18515867350E+02  0.20523717190E+02  0.51100000000E-03 0.  1.
         12    1    3    3    0    0 -0.94860202220E+01  0.13888554331E+02  0.91126992215E+01  0.19128978231E+02  0.00000000000E+00 0. -1.
</event>
<event>
 7    1  0.1333056E-013  0.7246158E+02  0.7816164E-02  0.1226708E+00
        -11   -1    0    0    0    0  0.00000000000E+00  0.00000000000E+00  0.45593999997E+02  0.45594000000E+02  0.51100000000E-03 0. -1.
         11   -1    0    0    0    0 -0.00000000000E+00 -0.00000000000E+00 -0.45593999997E+02  0.45594000000E+02  0.51100000000E-03 0.  1.
    9900012    2    1    2    0    0  0.12746227531E+02 -0.10123740328E+02  0.92586302686E+01  0.72461583660E+02  0.70000017411E+02 0.  0.
         12    1    1    2    0    0 -0.12746227531E+02  0.10123740328E+02 -0.92586302686E+01  0.18726416340E+02  0.00000000000E+00 0. -1.
         11    1    3    3    0    0  0.20137623113E+02 -0.13763166275E+02  0.15433202675E+02  0.28864032213E+02  0.51100000000E-03 0. -1.
        -11    1    3    3    0    0 -0.95103429419E+01 -0.16112645413E+02 -0.12785212989E+02  0.22661104044E+02  0.51100000000E-03 0.  1.
         12    1    3    3    0    0  0.21189473596E+01  0.19752071360E+02  0.66106405826E+01  0.20936447402E+02  0.00000000000E+00 0. -1.
</event>
<event>
 7    1  0.1333056E-013  0.7246156E+02  0.7816164E-02  0.1226708E+00
        -11   -1    0    0    0    0  0.00000000000E+00  0.00000000000E+00  0.45593999997E+02  0.45594000000E+02  0.51100000000E-03 0. -1.
         11   -1    0    0    0    0 -0.00000000000E+00 -0.00000000000E+00 -0.45593999997E+02  0.45594000000E+02  0.51100000000E-03 0.  1.
    9900012    2    1    2    0    0 -0.70152386016E+01  0.17359731454E+02 -0.32504691865E+00  0.72461561356E+02  0.69999988356E+02 0.  0.
         12    1    1    2    0    0  0.70152386016E+01 -0.17359731454E+02  0.32504691865E+00  0.18726438644E+02  0.00000000000E+00 0. -1.
         11    1    3    3    0    0  0.10579494068E+02  0.18446940705E+01  0.27686353200E+00  0.10742683306E+02  0.51100000000E-03 0. -1.
        -11    1    3    3    0    0 -0.19655530976E+02  0.17213510940E+02  0.24891220464E+02  0.36086253800E+02  0.51100000000E-03 0.  1.
        -12    1    3    3    0    0  0.20607983066E+01 -0.16984735563E+01 -0.25493130915E+02  0.25632624249E+02  0.00000000000E+00 0.  1.
</event>
<event>
 7    1  0.1333056E-013  0.7246157E+02  0.7816164E-02  0.1226708E+00
        -11   -1    0    0    0    0  0.00000000000E+00  0.00000000000E+00  0.45593999997E+02  0.45594000000E+02  0.51100000000E-03 0. -1.
         11   -1    0    0    0    0 -0.00000000000E+00 -0.00000000000E+00 -0.45593999997E+02  0.45594000000E+02  0.51100000000E-03 0.  1.
    9900012    2    1    2    0    0 -0.13593227647E+02 -0.77513931622E+01  0.10286840533E+02  0.72461574234E+02  0.70000005132E+02 0.  0.
         12    1    1    2    0    0  0.13593227647E+02  0.77513931622E+01 -0.10286840533E+02  0.18726425766E+02  0.00000000000E+00 0. -1.
         11    1    3    3    0    0 -0.33720213514E+01 -0.17127228742E+02  0.29433091208E+02  0.34220160004E+02  0.51100000000E-03 0. -1.
        -11    1    3    3    0    0 -0.20179909339E+00 -0.10555392989E+02 -0.83393199060E+01  0.13453672390E+02  0.51100000000E-03 0.  1.
         12    1    3    3    0    0 -0.10019407202E+02  0.19931228568E+02 -0.10806930769E+02  0.24787741841E+02  0.00000000000E+00 0. -1.
</event>
<event>
 7    1  0.1333056E-013  0.7246155E+02  0.7816164E-02  0.1226708E+00
        -11   -1    0    0    0    0  0.00000000000E+00  0.00000000000E+00  0.45593999997E+02  0.45594000000E+02  0.51100000000E-03 0.  1.
         11   -1    0    0    0    0 -0.00000000000E+00 -0.00000000000E+00 -0.45593999997E+02  0.45594000000E+02  0.51100000000E-03 0. -1.
    9900012    2    1    2    0    0 -0.13340142046E+02  0.94407877865E+01  0.91428727650E+01  0.72461548488E+02  0.69999971593E+02 0.  0.
         12    1    1    2    0    0  0.13340142046E+02 -0.94407877865E+01 -0.91428727650E+01  0.18726451512E+02  0.00000000000E+00 0. -1.
         11    1    3    3    0    0 -0.81589705005E-01  0.30088090670E+02  0.19682645444E+02  0.35954226302E+02  0.51100000000E-03 0. -1.
        -11    1    3    3    0    0 -0.16432772335E+02 -0.14512520125E+02 -0.16456064907E+02  0.27412612416E+02  0.51100000000E-03 0.  1.
         12    1    3    3    0    0  0.31742199934E+01 -0.61347827590E+01  0.59162922280E+01  0.90947097696E+01  0.00000000000E+00 0. -1.
</event>
<event>
 7    1  0.1333056E-013  0.7246159E+02  0.7816164E-02  0.1226708E+00
        -11   -1    0    0    0    0  0.00000000000E+00  0.00000000000E+00  0.45593999997E+02  0.45594000000E+02  0.51100000000E-03 0. -1.
         11   -1    0    0    0    0 -0.00000000000E+00 -0.00000000000E+00 -0.45593999997E+02  0.45594000000E+02  0.51100000000E-03 0.  1.
    9900012    2    1    2    0    0  0.35750351345E+01  0.16884583270E+02 -0.72669288392E+01  0.72461593960E+02  0.70000030829E+02 0.  0.
         12    1    1    2    0    0 -0.35750351345E+01 -0.16884583270E+02  0.72669288392E+01  0.18726406040E+02  0.00000000000E+00 0. -1.
         11    1    3    3    0    0  0.86526264706E+01  0.21075805765E+02 -0.99961209162E+01  0.24879308011E+02  0.51100000000E-03 0. -1.
        -11    1    3    3    0    0  0.13749146712E+02 -0.17742447820E+02  0.79371923568E+01  0.23808244638E+02  0.51100000000E-03 0.  1.
        -12    1    3    3    0    0 -0.18826738048E+02  0.13551225325E+02 -0.52080002798E+01  0.23774041311E+02  0.00000000000E+00 0.  1.
</event>
<event>
 7    1  0.1333056E-013  0.7246156E+02  0.7816164E-02  0.1226708E+00
        -11   -1    0    0    0    0  0.00000000000E+00  0.00000000000E+00  0.45593999997E+02  0.45594000000E+02  0.51100000000E-03 0.  1.
         11   -1    0    0    0    0 -0.00000000000E+00 -0.00000000000E+00 -0.45593999997E+02  0.45594000000E+02  0.51100000000E-03 0. -1.
    9900012    2    1    2    0    0  0.16151495365E+02 -0.83872382807E+01  0.44117061245E+01  0.72461555611E+02  0.69999980873E+02 0.  0.
         12    1    1    2    0    0 -0.16151495365E+02  0.83872382807E+01 -0.44117061245E+01  0.18726444389E+02  0.00000000000E+00 0. -1.
         11    1    3    3    0    0  0.96592237263E+01  0.31542583962E+01  0.16919063060E+01  0.10301091992E+02  0.51100000000E-03 0. -1.
        -11    1    3    3    0    0  0.11600743412E+02 -0.23657281349E+02  0.24979542234E+02  0.36307323491E+02  0.51100000000E-03 0.  1.
        -12    1    3    3    0    0 -0.51084717728E+01  0.12115784673E+02 -0.22259742416E+02  0.25853140129E+02  0.00000000000E+00 0.  1.
</event>
<event>
 7    1  0.1333056E-013  0.7246160E+02  0.7816164E-02  0.1226708E+00
        -11   -1    0    0    0    0  0.00000000000E+00  0.00000000000E+00  0.45593999997E+02  0.45594000000E+02  0.51100000000E-03 0.  1.
         11   -1    0    0    0    0 -0.00000000000E+00 -0.00000000000E+00 -0.45593999997E+02  0.45594000000E+02  0.51100000000E-03 0. -1.
    9900012    2    1    2    0    0 -0.81319114224E+01  0.61288011924E+01  0.15715842895E+02  0.72461604048E+02  0.70000043971E+02 0.  0.
         12    1    1    2    0    0  0.81319114224E+01 -0.61288011924E+01 -0.15715842895E+02  0.18726395952E+02  0.00000000000E+00 0. -1.
         11    1    3    3    0    0 -0.33262100289E+00  0.14786066951E+02 -0.18432573813E+02  0.23632566307E+02  0.51100000000E-03 0. -1.
        -11    1    3    3    0    0 -0.13532632719E+02  0.12269853536E+01  0.34825262083E+02  0.37382302240E+02  0.51100000000E-03 0.  1.
        -12    1    3    3    0    0  0.57333422992E+01 -0.98842511123E+01 -0.67684537571E+00  0.11446735501E+02  0.00000000000E+00 0.  1.
</event>
<event>
 7    1  0.1333056E-013  0.7246157E+02  0.7816164E-02  0.1226708E+00
        -11   -1    0    0    0    0  0.00000000000E+00  0.00000000000E+00  0.45593999997E+02  0.45594000000E+02  0.51100000000E-03 0.  1.
         11   -1    0    0    0    0 -0.00000000000E+00 -0.00000000000E+00 -0.45593999997E+02  0.45594000000E+02  0.51100000000E-03 0. -1.
    9900012    2    1    2    0    0  0.10707249842E+02 -0.24000213026E+01  0.15174775528E+02  0.72461571783E+02  0.70000001940E+02 0.  0.
         12    1    1    2    0    0 -0.10707249842E+02  0.24000213026E+01 -0.15174775528E+02  0.18726428217E+02  0.00000000000E+00 0. -1.
         11    1    3    3    0    0  0.12307640484E+02 -0.20473405638E+02  0.86373233017E+01  0.25401608350E+02  0.51100000000E-03 0. -1.
        -11    1    3    3    0    0  0.34124811614E+01  0.21230660061E+02 -0.14017309726E+02  0.25668481188E+02  0.51100000000E-03 0.  1.
        -12    1    3    3    0    0 -0.50128718031E+01 -0.31572757258E+01  0.20554761952E+02  0.21391482245E+02  0.00000000000E+00 0.  1.
</event>
<event>
 7    1  0.1333056E-013  0.7246171E+02  0.7816164E-02  0.1226708E+00
        -11   -1    0    0    0    0  0.00000000000E+00  0.00000000000E+00  0.45593999997E+02  0.45594000000E+02  0.51100000000E-03 0.  1.
         11   -1    0    0    0    0 -0.00000000000E+00 -0.00000000000E+00 -0.45593999997E+02  0.45594000000E+02  0.51100000000E-03 0. -1.
    9900012    2    1    2    0    0  0.50777592351E+01 -0.98013219363E+01  0.15126940578E+02  0.72461711478E+02  0.70000183918E+02 0.  0.
         12    1    1    2    0    0 -0.50777592351E+01  0.98013219363E+01 -0.15126940578E+02  0.18726288522E+02  0.00000000000E+00 0. -1.
         11    1    3    3    0    0  0.21088374426E+02  0.13581076524E+02  0.19865679920E+02  0.31997037588E+02  0.51100000000E-03 0. -1.
        -11    1    3    3    0    0 -0.13495730904E+02 -0.28020322570E+02  0.28399561461E+01  0.31230411152E+02  0.51100000000E-03 0.  1.
         12    1    3    3    0    0 -0.25148842860E+01  0.46379241091E+01 -0.75786954882E+01  0.92342627381E+01  0.00000000000E+00 0. -1.
</event>
<event>
 7    1  0.1333056E-013  0.7246159E+02  0.7816164E-02  0.1226708E+00
        -11   -1    0    0    0    0  0.00000000000E+00  0.00000000000E+00  0.45593999997E+02  0.45594000000E+02  0.51100000000E-03 0.  1.
         11   -1    0    0    0    0 -0.00000000000E+00 -0.00000000000E+00 -0.45593999997E+02  0.45594000000E+02  0.51100000000E-03 0. -1.
    9900012    2    1    2    0    0 -0.16171623835E+02  0.57947679720E+01  0.74550449981E+01  0.72461589526E+02  0.70000025053E+02 0.  0.
         12    1    1    2    0    0  0.16171623835E+02 -0.57947679720E+01 -0.74550449981E+01  0.18726410474E+02  0.00000000000E+00 0. -1.
         11    1    3    3    0    0 -0.10276173891E+02 -0.95157910358E+01 -0.28726425032E+01  0.14296926386E+02  0.51100000000E-03 0. -1.
        -11    1    3    3    0    0  0.69686895347E+01 -0.44029981741E+01  0.27705321876E+02  0.28905603043E+02  0.51100000000E-03 0.  1.
        -12    1    3    3    0    0 -0.12864139479E+02  0.19713557182E+02 -0.17377634375E+02  0.29259060097E+02  0.00000000000E+00 0.  1.
</event>
<event>
 7    1  0.1333056E-013  0.7246150E+02  0.7816164E-02  0.1226708E+00
        -11   -1    0    0    0    0  0.00000000000E+00  0.00000000000E+00  0.45593999997E+02  0.45594000000E+02  0.51100000000E-03 0.  1.
         11   -1    0    0    0    0 -0.00000000000E+00 -0.00000000000E+00 -0.45593999997E+02  0.45594000000E+02  0.51100000000E-03 0. -1.
    9900012    2    1    2    0    0  0.75619929399E+01 -0.16629574213E+02  0.41176776558E+01  0.72461501528E+02  0.69999910419E+02 0.  0.
         12    1    1    2    0    0 -0.75619929399E+01  0.16629574213E+02 -0.41176776558E+01  0.18726498472E+02  0.00000000000E+00 0. -1.
         11    1    3    3    0    0  0.12022790686E+02 -0.18975977255E+02 -0.17574192316E+02  0.28521701289E+02  0.51100000000E-03 0. -1.
        -11    1    3    3    0    0 -0.17904079293E+02  0.92681574638E+01  0.20531187473E+02  0.28774719068E+02  0.51100000000E-03 0.  1.
        -12    1    3    3    0    0  0.13443281548E+02 -0.69217544226E+01  0.11606824987E+01  0.15165081171E+02  0.00000000000E+00 0.  1.
</event>
<event>
 7    1  0.1333056E-013  0.7246156E+02  0.7816164E-02  0.1226708E+00
        -11   -1    0    0    0    0  0.00000000000E+00  0.00000000000E+00  0.45593999997E+02  0.45594000000E+02  0.51100000000E-03 0.  1.
         11   -1    0    0    0    0 -0.00000000000E+00 -0.00000000000E+00 -0.45593999997E+02  0.45594000000E+02  0.51100000000E-03 0. -1.
    9900012    2    1    2    0    0  0.64389550036E+01 -0.13775875186E+02  0.10929066493E+02  0.72461564859E+02  0.69999992920E+02 0.  0.
         12    1    1    2    0    0 -0.64389550036E+01  0.13775875186E+02 -0.10929066493E+02  0.18726435141E+02  0.00000000000E+00 0. -1.
         11    1    3    3    0    0  0.14718409956E+02  0.77867321594E+01  0.21532230884E+02  0.27219510585E+02  0.51100000000E-03 0. -1.
        -11    1    3    3    0    0  0.11974906048E+02 -0.97184824165E+01 -0.14836258002E+02  0.21400042689E+02  0.51100000000E-03 0.  1.
         12    1    3    3    0    0 -0.20254361001E+02 -0.11844124929E+02  0.42330936098E+01  0.23842011585E+02  0.00000000000E+00 0. -1.
</event>
<event>
 7    1  0.1991979E-013  0.7246158E+02  0.7816164E-02  0.1226708E+00
        -11   -1    0    0    0    0  0.00000000000E+00  0.00000000000E+00  0.45593999997E+02  0.45594000000E+02  0.51100000000E-03 0. -1.
         11   -1    0    0    0    0 -0.00000000000E+00 -0.00000000000E+00 -0.45593999997E+02  0.45594000000E+02  0.51100000000E-03 0.  1.
    9900012    2    1    2    0    0  0.20946622360E+01  0.77028300245E+01 -0.16939817705E+02  0.72461584856E+02  0.70000018969E+02 0.  0.
         12    1    1    2    0    0 -0.20946622360E+01 -0.77028300245E+01  0.16939817705E+02  0.18726415144E+02  0.00000000000E+00 0. -1.
         11    1    3    3    0    0  0.26845754260E+02 -0.59974813279E+01 -0.59869361402E+01  0.28151513435E+02  0.51100000000E-03 0. -1.
        -11    1    3    3    0    0 -0.13350143512E+02  0.13109111529E+02  0.94266203182E+01  0.20950806852E+02  0.51100000000E-03 0.  1.
        -12    1    3    3    0    0 -0.11400948513E+02  0.59119982381E+00 -0.20379501883E+02  0.23359264569E+02  0.00000000000E+00 0.  1.
</event>
<event>
 7    1  0.1333056E-013  0.7246155E+02  0.7816164E-02  0.1226708E+00
        -11   -1    0    0    0    0  0.00000000000E+00  0.00000000000E+00  0.45593999997E+02  0.45594000000E+02  0.51100000000E-03 0. -1.
         11   -1    0    0    0    0 -0.00000000000E+00 -0.00000000000E+00 -0.45593999997E+02  0.45594000000E+02  0.51100000000E-03 0.  1.
    9900012    2    1    2    0    0  0.18378903429E+02 -0.34424151062E+01 -0.10225408842E+01  0.72461550713E+02  0.69999974492E+02 0.  0.
         12    1    1    2    0    0 -0.18378903429E+02  0.34424151062E+01  0.10225408842E+01  0.18726449287E+02  0.00000000000E+00 0. -1.
         11    1    3    3    0    0  0.13190674276E+02  0.71064471588E+01 -0.24120756533E+02  0.28395534421E+02  0.51100000000E-03 0.  1.
        -11    1    3    3    0    0 -0.52482889483E+01 -0.21421917629E+02  0.16829385352E+02  0.27742950517E+02  0.51100000000E-03 0. -1.
         12    1    3    3    0    0  0.10436518102E+02  0.10873055364E+02  0.62688302965E+01  0.16323065776E+02  0.00000000000E+00 0. -1.
</event>
<event>
 7    1  0.1333056E-013  0.7246114E+02  0.7816164E-02  0.1226709E+00
        -11   -1    0    0    0    0  0.00000000000E+00  0.00000000000E+00  0.45593999997E+02  0.45594000000E+02  0.51100000000E-03 0.  1.
         11   -1    0    0    0    0 -0.00000000000E+00 -0.00000000000E+00 -0.45593999997E+02  0.45594000000E+02  0.51100000000E-03 0. -1.
    9900012    2    1    2    0    0 -0.85838628006E+01 -0.76407056188E+01  0.14786213246E+02  0.72461142680E+02  0.69999442951E+02 0.  0.
         12    1    1    2    0    0  0.85838628006E+01  0.76407056188E+01 -0.14786213246E+02  0.18726857320E+02  0.00000000000E+00 0. -1.
         11    1    3    3    0    0 -0.26722559201E+02 -0.22879699828E+02  0.17507753288E+02  0.39295002989E+02  0.51100000000E-03 0. -1.
        -11    1    3    3    0    0  0.10658572492E+02  0.28044943951E+00  0.79738618865E+01  0.13314138842E+02  0.51100000000E-03 0.  1.
         12    1    3    3    0    0  0.74801239080E+01  0.14958544770E+02 -0.10695401929E+02  0.19852000849E+02  0.00000000000E+00 0. -1.
</event>
<event>
 7    1  0.1333056E-013  0.7246156E+02  0.7816164E-02  0.1226708E+00
        -11   -1    0    0    0    0  0.00000000000E+00  0.00000000000E+00  0.45593999997E+02  0.45594000000E+02  0.51100000000E-03 0. -1.
         11   -1    0    0    0    0 -0.00000000000E+00 -0.00000000000E+00 -0.45593999997E+02  0.45594000000E+02  0.51100000000E-03 0.  1.
    9900012    2    1    2    0    0 -0.12874665395E+02 -0.88554757310E+01 -0.10320041324E+02  0.72461555800E+02  0.69999981118E+02 0.  0.
         12    1    1    2    0    0  0.12874665395E+02  0.88554757310E+01  0.10320041324E+02  0.18726444200E+02  0.00000000000E+00 0. -1.
         11    1    3    3    0    0  0.17180267867E+02  0.17239009479E+02  0.31703650685E+01  0.24543762278E+02  0.51100000000E-03 0. -1.
        -11    1    3    3    0    0 -0.18112994464E+02 -0.36929751528E+01  0.13110585922E+01  0.18532067041E+02  0.51100000000E-03 0.  1.
         12    1    3    3    0    0 -0.11941938799E+02 -0.22401510058E+02 -0.14801464984E+02  0.29385726481E+02  0.00000000000E+00 0. -1.
</event>
<event>
 7    1  0.1333056E-013  0.7246157E+02  0.7816164E-02  0.1226708E+00
        -11   -1    0    0    0    0  0.00000000000E+00  0.00000000000E+00  0.45593999997E+02  0.45594000000E+02  0.51100000000E-03 0. -1.
         11   -1    0    0    0    0 -0.00000000000E+00 -0.00000000000E+00 -0.45593999997E+02  0.45594000000E+02  0.51100000000E-03 0.  1.
    9900012    2    1    2    0    0  0.12086244942E+01  0.10588741960E+02 -0.15397954111E+02  0.72461568940E+02  0.69999998235E+02 0.  0.
         12    1    1    2    0    0 -0.12086244942E+01 -0.10588741960E+02  0.15397954111E+02  0.18726431060E+02  0.00000000000E+00 0. -1.
         11    1    3    3    0    0 -0.12219020002E+02  0.29962385966E+02 -0.14309544612E+02  0.35380956599E+02  0.51100000000E-03 0. -1.
        -11    1    3    3    0    0 -0.74536233232E+01 -0.13419536476E+02 -0.35697193596E+00  0.15354735071E+02  0.51100000000E-03 0.  1.
         12    1    3    3    0    0  0.20881267819E+02 -0.59541075299E+01 -0.73143756262E+00  0.21725877269E+02  0.00000000000E+00 0. -1.
</event>
<event>
 7    1  0.1333056E-013  0.7246158E+02  0.7816164E-02  0.1226708E+00
        -11   -1    0    0    0    0  0.00000000000E+00  0.00000000000E+00  0.45593999997E+02  0.45594000000E+02  0.51100000000E-03 0. -1.
         11   -1    0    0    0    0 -0.00000000000E+00 -0.00000000000E+00 -0.45593999997E+02  0.45594000000E+02  0.51100000000E-03 0.  1.
    9900012    2    1    2    0    0 -0.11793720051E+02  0.38962082919E+01 -0.14014514085E+02  0.72461578112E+02  0.70000010184E+02 0.  0.
         12    1    1    2    0    0  0.11793720051E+02 -0.38962082919E+01  0.14014514085E+02  0.18726421888E+02  0.00000000000E+00 0. -1.
         11    1    3    3    0    0  0.39231290490E+01 -0.30900563730E+02  0.79103080341E+00  0.31158650650E+02  0.51100000000E-03 0. -1.
        -11    1    3    3    0    0 -0.60332302232E+01  0.14236350802E+02 -0.88220482872E+01  0.17801743941E+02  0.51100000000E-03 0.  1.
         12    1    3    3    0    0 -0.96836188773E+01  0.20560421219E+02 -0.59834966010E+01  0.23501183520E+02  0.00000000000E+00 0. -1.
</event>
<event>
 7    1  0.1333056E-013  0.7246153E+02  0.7816164E-02  0.1226708E+00
        -11   -1    0    0    0    0  0.00000000000E+00  0.00000000000E+00  0.45593999997E+02  0.45594000000E+02  0.51100000000E-03 0.  1.
         11   -1    0    0    0    0 -0.00000000000E+00 -0.00000000000E+00 -0.45593999997E+02  0.45594000000E+02  0.51100000000E-03 0. -1.
    9900012    2    1    2    0    0 -0.14285230682E+02  0.68580427785E-01  0.12108181878E+02  0.72461532439E+02  0.69999950686E+02 0.  0.
         12    1    1    2    0    0  0.14285230682E+02 -0.68580427785E-01 -0.12108181878E+02  0.18726467561E+02  0.00000000000E+00 0. -1.
         11    1    3    3    0    0 -0.89571548096E+01 -0.83209273601E+01  0.28823087833E+02  0.31308766295E+02  0.51100000000E-03 0.  1.
        -11    1    3    3    0    0  0.99181415340E+01  0.11866615523E+02 -0.19890799253E+02  0.25195832803E+02  0.51100000000E-03 0. -1.
        -12    1    3    3    0    0 -0.15246217406E+02 -0.34771077354E+01  0.31758932979E+01  0.15956933341E+02  0.00000000000E+00 0.  1.
</event>
<event>
 7    1  0.1333056E-013  0.7246159E+02  0.7816164E-02  0.1226708E+00
        -11   -1    0    0    0    0  0.00000000000E+00  0.00000000000E+00  0.45593999997E+02  0.45594000000E+02  0.51100000000E-03 0.  1.
         11   -1    0    0    0    0 -0.00000000000E+00 -0.00000000000E+00 -0.45593999997E+02  0.45594000000E+02  0.51100000000E-03 0. -1.
    9900012    2    1    2    0    0  0.15651834921E+01 -0.12766031536E+02  0.13610919609E+02  0.72461588354E+02  0.70000023526E+02 0.  0.
         12    1    1    2    0    0 -0.15651834921E+01  0.12766031536E+02 -0.13610919609E+02  0.18726411646E+02  0.00000000000E+00 0. -1.
         11    1    3    3    0    0 -0.94536693847E+01 -0.23864981856E+02 -0.10623372183E+02  0.27780663430E+02  0.51100000000E-03 0. -1.
        -11    1    3    3    0    0  0.19742883695E+02 -0.32696636741E+01  0.17458643667E+02  0.26557040424E+02  0.51100000000E-03 0.  1.
         12    1    3    3    0    0 -0.87240308180E+01  0.14368613995E+02  0.67756481245E+01  0.18123884500E+02  0.00000000000E+00 0. -1.
</event>
<event>
 7    1  0.1333056E-013  0.7246158E+02  0.7816164E-02  0.1226708E+00
        -11   -1    0    0    0    0  0.00000000000E+00  0.00000000000E+00  0.45593999997E+02  0.45594000000E+02  0.51100000000E-03 0.  1.
         11   -1    0    0    0    0 -0.00000000000E+00 -0.00000000000E+00 -0.45593999997E+02  0.45594000000E+02  0.51100000000E-03 0. -1.
    9900012    2    1    2    0    0 -0.11924845572E+02  0.60953638605E+01  0.13089060964E+02  0.72461576972E+02  0.70000008699E+02 0.  0.
         12    1    1    2    0    0  0.11924845572E+02 -0.60953638605E+01 -0.13089060964E+02  0.18726423028E+02  0.00000000000E+00 0. -1.
         11    1    3    3    0    0  0.28305642934E+01 -0.61569324821E+01 -0.11225798274E+01  0.68687770045E+01  0.51100000000E-03 0. -1.
        -11    1    3    3    0    0 -0.21493625898E+02  0.12384815008E+01  0.35017415315E+02  0.41106315406E+02  0.51100000000E-03 0.  1.
        -12    1    3    3    0    0  0.67382160324E+01  0.11013814842E+02 -0.20805774524E+02  0.24486484562E+02  0.00000000000E+00 0.  1.
</event>
<event>
 7    1  0.1333056E-013  0.7246163E+02  0.7816164E-02  0.1226708E+00
        -11   -1    0    0    0    0  0.00000000000E+00  0.00000000000E+00  0.45593999997E+02  0.45594000000E+02  0.51100000000E-03 0. -1.
         11   -1    0    0    0    0 -0.00000000000E+00 -0.00000000000E+00 -0.45593999997E+02  0.45594000000E+02  0.51100000000E-03 0.  1.
    9900012    2    1    2    0    0  0.68525205534E+01 -0.17427287250E+02 -0.97195388462E-01  0.72461632873E+02  0.70000081520E+02 0.  0.
         12    1    1    2    0    0 -0.68525205534E+01  0.17427287250E+02  0.97195388462E-01  0.18726367127E+02  0.00000000000E+00 0. -1.
         11    1    3    3    0    0  0.15096239381E+01 -0.26018740241E+02  0.27348106967E+02  0.37777940165E+02  0.51100000000E-03 0. -1.
        -11    1    3    3    0    0  0.17344301289E+01  0.13873504926E+02 -0.13957817709E+02  0.19756089245E+02  0.51100000000E-03 0.  1.
         12    1    3    3    0    0  0.36084664865E+01 -0.52820519357E+01 -0.13487484647E+02  0.14927603463E+02  0.00000000000E+00 0. -1.
</event>
<event>
 7    1  0.1333056E-013  0.7246156E+02  0.7816164E-02  0.1226708E+00
        -11   -1    0    0    0    0  0.00000000000E+00  0.00000000000E+00  0.45593999997E+02  0.45594000000E+02  0.51100000000E-03 0. -1.
         11   -1    0    0    0    0 -0.00000000000E+00 -0.00000000000E+00 -0.45593999997E+02  0.45594000000E+02  0.51100000000E-03 0.  1.
    9900012    2    1    2    0    0 -0.11535106006E+02 -0.14586705618E+02 -0.22020425700E+01  0.72461557657E+02  0.69999983538E+02 0.  0.
         12    1    1    2    0    0  0.11535106006E+02  0.14586705618E+02  0.22020425700E+01  0.18726442343E+02  0.00000000000E+00 0. -1.
         11    1    3    3    0    0  0.24458205945E+02 -0.12724218515E+02 -0.34225423998E+01  0.27781709300E+02  0.51100000000E-03 0. -1.
        -11    1    3    3    0    0 -0.26930804436E+02 -0.13328162679E+02  0.81741396973E+00  0.30059546135E+02  0.51100000000E-03 0.  1.
        -12    1    3    3    0    0 -0.90625075143E+01  0.11465675576E+02  0.40308586014E+00  0.14620302223E+02  0.00000000000E+00 0.  1.
</event>
<event>
 7    1  0.1333056E-013  0.7246156E+02  0.7816164E-02  0.1226708E+00
        -11   -1    0    0    0    0  0.00000000000E+00  0.00000000000E+00  0.45593999997E+02  0.45594000000E+02  0.51100000000E-03 0. -1.
         11   -1    0    0    0    0 -0.00000000000E+00 -0.00000000000E+00 -0.45593999997E+02  0.45594000000E+02  0.51100000000E-03 0.  1.
    9900012    2    1    2    0    0 -0.66859780709E+01 -0.17333568151E+02 -0.23504499411E+01  0.72461561403E+02  0.69999988417E+02 0.  0.
         12    1    1    2    0    0  0.66859780709E+01  0.17333568151E+02  0.23504499411E+01  0.18726438597E+02  0.00000000000E+00 0. -1.
         11    1    3    3    0    0  0.12820656668E+02 -0.62145398685E+01 -0.91235659240E+01  0.16918309567E+02  0.51100000000E-03 0. -1.
        -11    1    3    3    0    0 -0.33329317408E+02 -0.12869487317E+02 -0.64836043584E+01  0.36311213535E+02  0.51100000000E-03 0.  1.
        -12    1    3    3    0    0  0.13822682669E+02  0.17504590351E+01  0.13256720341E+02  0.19232038301E+02  0.00000000000E+00 0.  1.
</event>
<event>
 7    1  0.1333056E-013  0.7246150E+02  0.7816164E-02  0.1226708E+00
        -11   -1    0    0    0    0  0.00000000000E+00  0.00000000000E+00  0.45593999997E+02  0.45594000000E+02  0.51100000000E-03 0.  1.
         11   -1    0    0    0    0 -0.00000000000E+00 -0.00000000000E+00 -0.45593999997E+02  0.45594000000E+02  0.51100000000E-03 0. -1.
    9900012    2    1    2    0    0 -0.18580286099E+02 -0.22709661163E+01  0.54547935317E+00  0.72461498289E+02  0.69999906199E+02 0.  0.
         12    1    1    2    0    0  0.18580286099E+02  0.22709661163E+01 -0.54547935317E+00  0.18726501711E+02  0.00000000000E+00 0. -1.
         11    1    3    3    0    0  0.10666277455E+02 -0.10997434862E+02  0.23912044120E+01  0.15505834615E+02  0.51100000000E-03 0. -1.
        -11    1    3    3    0    0 -0.13452129184E+02 -0.24982523689E+01  0.22198009320E+02  0.26075901951E+02  0.51100000000E-03 0.  1.
        -12    1    3    3    0    0 -0.15794434370E+02  0.11224721115E+02 -0.24043734379E+02  0.30879761723E+02  0.00000000000E+00 0.  1.
</event>
<event>
 7    1  0.1333056E-013  0.7246157E+02  0.7816164E-02  0.1226708E+00
        -11   -1    0    0    0    0  0.00000000000E+00  0.00000000000E+00  0.45593999997E+02  0.45594000000E+02  0.51100000000E-03 0.  1.
         11   -1    0    0    0    0 -0.00000000000E+00 -0.00000000000E+00 -0.45593999997E+02  0.45594000000E+02  0.51100000000E-03 0. -1.
    9900012    2    1    2    0    0  0.48609606859E+01  0.18059880647E+02  0.94387916039E+00  0.72461571198E+02  0.70000001178E+02 0.  0.
         12    1    1    2    0    0 -0.48609606859E+01 -0.18059880647E+02 -0.94387916039E+00  0.18726428802E+02  0.00000000000E+00 0. -1.
         11    1    3    3    0    0 -0.73915724902E+01  0.19287523051E+02 -0.28118882881E+02  0.34890048210E+02  0.51100000000E-03 0. -1.
        -11    1    3    3    0    0  0.17994361004E+02 -0.15032122663E+01  0.21687341317E+02  0.28220514679E+02  0.51100000000E-03 0.  1.
        -12    1    3    3    0    0 -0.57418278278E+01  0.27556986228E+00  0.73754207245E+01  0.93510083101E+01  0.00000000000E+00 0.  1.
</event>
<event>
 7    1  0.1333056E-013  0.7246147E+02  0.7816164E-02  0.1226708E+00
        -11   -1    0    0    0    0  0.00000000000E+00  0.00000000000E+00  0.45593999997E+02  0.45594000000E+02  0.51100000000E-03 0.  1.
         11   -1    0    0    0    0 -0.00000000000E+00 -0.00000000000E+00 -0.45593999997E+02  0.45594000000E+02  0.51100000000E-03 0. -1.
    9900012    2    1    2    0    0  0.18418314073E+02 -0.30710252014E+01  0.14203505365E+01  0.72461471098E+02  0.69999870778E+02 0.  0.
         12    1    1    2    0    0 -0.18418314073E+02  0.30710252014E+01 -0.14203505365E+01  0.18726528902E+02  0.00000000000E+00 0. -1.
         11    1    3    3    0    0  0.41597932470E+01 -0.11654260257E+02 -0.79210825856E+01  0.14692488271E+02  0.51100000000E-03 0. -1.
        -11    1    3    3    0    0  0.29298654350E+02  0.45585210147E+01  0.22629598214E+02  0.37299999681E+02  0.51100000000E-03 0.  1.
        -12    1    3    3    0    0 -0.15040133524E+02  0.40247140409E+01 -0.13288165092E+02  0.20468983147E+02  0.00000000000E+00 0.  1.
</event>
<event>
 7    1  0.1333056E-013  0.7246153E+02  0.7816164E-02  0.1226708E+00
        -11   -1    0    0    0    0  0.00000000000E+00  0.00000000000E+00  0.45593999997E+02  0.45594000000E+02  0.51100000000E-03 0. -1.
         11   -1    0    0    0    0 -0.00000000000E+00 -0.00000000000E+00 -0.45593999997E+02  0.45594000000E+02  0.51100000000E-03 0.  1.
    9900012    2    1    2    0    0 -0.10400992716E+02 -0.71273100891E+01 -0.13845624791E+02  0.72461534118E+02  0.69999952873E+02 0.  0.
         12    1    1    2    0    0  0.10400992716E+02  0.71273100891E+01  0.13845624791E+02  0.18726465882E+02  0.00000000000E+00 0. -1.
         11    1    3    3    0    0 -0.29963908468E+02  0.13382172774E+02  0.89916057599E+01  0.34025980268E+02  0.51100000000E-03 0. -1.
        -11    1    3    3    0    0  0.16254491544E+01 -0.96540468366E+01 -0.91257673499E+01  0.13383659263E+02  0.51100000000E-03 0.  1.
         12    1    3    3    0    0  0.17937466597E+02 -0.10855436027E+02 -0.13711463201E+02  0.25051894587E+02  0.00000000000E+00 0. -1.
</event>
<event>
 7    1  0.1333056E-013  0.7246163E+02  0.7816164E-02  0.1226708E+00
        -11   -1    0    0    0    0  0.00000000000E+00  0.00000000000E+00  0.45593999997E+02  0.45594000000E+02  0.51100000000E-03 0.  1.
         11   -1    0    0    0    0 -0.00000000000E+00 -0.00000000000E+00 -0.45593999997E+02  0.45594000000E+02  0.51100000000E-03 0. -1.
    9900012    2    1    2    0    0  0.25029551957E+01 -0.15467511761E+02  0.10255148095E+02  0.72461634436E+02  0.70000083556E+02 0.  0.
         12    1    1    2    0    0 -0.25029551957E+01  0.15467511761E+02 -0.10255148095E+02  0.18726365564E+02  0.00000000000E+00 0. -1.
         11    1    3    3    0    0 -0.13674947466E+01 -0.26307852540E+02 -0.20766629052E+02  0.33544388943E+02  0.51100000000E-03 0. -1.
        -11    1    3    3    0    0 -0.33998592930E+01 -0.36780150916E+01  0.16114158923E+02  0.16874624627E+02  0.51100000000E-03 0.  1.
         12    1    3    3    0    0  0.72703092353E+01  0.14518355870E+02  0.14907618224E+02  0.22042620867E+02  0.00000000000E+00 0. -1.
</event>
<event>
 7    1  0.1333056E-013  0.7246155E+02  0.7816164E-02  0.1226708E+00
        -11   -1    0    0    0    0  0.00000000000E+00  0.00000000000E+00  0.45593999997E+02  0.45594000000E+02  0.51100000000E-03 0. -1.
         11   -1    0    0    0    0 -0.00000000000E+00 -0.00000000000E+00 -0.45593999997E+02  0.45594000000E+02  0.51100000000E-03 0.  1.
    9900012    2    1    2    0    0 -0.16963973837E+02 -0.43776755748E+00  0.79190856720E+01  0.72461549010E+02  0.69999972273E+02 0.  0.
         12    1    1    2    0    0  0.16963973837E+02  0.43776755748E+00 -0.79190856720E+01  0.18726450990E+02  0.00000000000E+00 0. -1.
         11    1    3    3    0    0 -0.18557510236E+02 -0.25442990584E+01 -0.22460627189E+01  0.18865297290E+02  0.51100000000E-03 0. -1.
        -11    1    3    3    0    0  0.12595679721E+02  0.20832506843E+02  0.18245739311E+02  0.30422877778E+02  0.51100000000E-03 0.  1.
        -12    1    3    3    0    0 -0.11002143323E+02 -0.18725975342E+02 -0.80805909206E+01  0.23173373942E+02  0.00000000000E+00 0.  1.
</event>
<event>
 7    1  0.1333056E-013  0.7246164E+02  0.7816164E-02  0.1226708E+00
        -11   -1    0    0    0    0  0.00000000000E+00  0.00000000000E+00  0.45593999997E+02  0.45594000000E+02  0.51100000000E-03 0.  1.
         11   -1    0    0    0    0 -0.00000000000E+00 -0.00000000000E+00 -0.45593999997E+02  0.45594000000E+02  0.51100000000E-03 0. -1.
    9900012    2    1    2    0    0 -0.32265191283E+01 -0.99464383999E+01  0.15534942571E+02  0.72461641486E+02  0.70000092740E+02 0.  0.
         12    1    1    2    0    0  0.32265191283E+01  0.99464383999E+01 -0.15534942571E+02  0.18726358514E+02  0.00000000000E+00 0. -1.
         11    1    3    3    0    0 -0.30341710315E+02  0.35940927204E+01  0.82447804164E+01  0.31646694799E+02  0.51100000000E-03 0. -1.
        -11    1    3    3    0    0  0.23372542937E+02  0.23644863447E+01  0.17302732357E+01  0.23555475048E+02  0.51100000000E-03 0.  1.
         12    1    3    3    0    0  0.37426482499E+01 -0.15905017465E+02  0.55598889184E+01  0.17259471639E+02  0.00000000000E+00 0. -1.
</event>
<event>
 7    1  0.1333056E-013  0.7246155E+02  0.7816164E-02  0.1226708E+00
        -11   -1    0    0    0    0  0.00000000000E+00  0.00000000000E+00  0.45593999997E+02  0.45594000000E+02  0.51100000000E-03 0. -1.
         11   -1    0    0    0    0 -0.00000000000E+00 -0.00000000000E+00 -0.45593999997E+02  0.45594000000E+02  0.51100000000E-03 0.  1.
    9900012    2    1    2    0    0 -0.26636542278E+01  0.20610875674E+01 -0.18421094890E+02  0.72461551518E+02  0.69999975540E+02 0.  0.
         12    1    1    2    0    0  0.26636542278E+01 -0.20610875674E+01  0.18421094890E+02  0.18726448482E+02  0.00000000000E+00 0. -1.
         11    1    3    3    0    0  0.12534243113E+02 -0.54980197992E+01 -0.11490049884E+02  0.17870554517E+02  0.51100000000E-03 0.  1.
        -11    1    3    3    0    0  0.48778021357E+01  0.14086975329E+02  0.17045926263E+02  0.22645075183E+02  0.51100000000E-03 0. -1.
        -12    1    3    3    0    0 -0.20075699477E+02 -0.65278679622E+01 -0.23976971269E+02  0.31945921819E+02  0.00000000000E+00 0.  1.
</event>
<event>
 7    1  0.1333056E-013  0.7246158E+02  0.7816164E-02  0.1226708E+00
        -11   -1    0    0    0    0  0.00000000000E+00  0.00000000000E+00  0.45593999997E+02  0.45594000000E+02  0.51100000000E-03 0. -1.
         11   -1    0    0    0    0 -0.00000000000E+00 -0.00000000000E+00 -0.45593999997E+02  0.45594000000E+02  0.51100000000E-03 0.  1.
    9900012    2    1    2    0    0  0.77180587149E+01 -0.91725245967E+00  0.17037288760E+02  0.72461575069E+02  0.70000006220E+02 0.  0.
         12    1    1    2    0    0 -0.77180587149E+01  0.91725245967E+00 -0.17037288760E+02  0.18726424931E+02  0.00000000000E+00 0. -1.
         11    1    3    3    0    0 -0.47070899040E+00  0.18744711091E+02  0.15904448169E+02  0.24587338869E+02  0.51100000000E-03 0. -1.
        -11    1    3    3    0    0  0.12254313826E+02 -0.65534832960E+01 -0.18980871701E+02  0.23524239444E+02  0.51100000000E-03 0.  1.
        -12    1    3    3    0    0 -0.40655461207E+01 -0.13108480255E+02  0.20113712292E+02  0.24349996756E+02  0.00000000000E+00 0.  1.
</event>
<event>
 7    1  0.1333056E-013  0.7246196E+02  0.7816164E-02  0.1226707E+00
        -11   -1    0    0    0    0  0.00000000000E+00  0.00000000000E+00  0.45593999997E+02  0.45594000000E+02  0.51100000000E-03 0.  1.
         11   -1    0    0    0    0 -0.00000000000E+00 -0.00000000000E+00 -0.45593999997E+02  0.45594000000E+02  0.51100000000E-03 0. -1.
    9900012    2    1    2    0    0  0.35245295364E+01 -0.90841622632E+01  0.15991250820E+02  0.72461964241E+02  0.70000513186E+02 0.  0.
         12    1    1    2    0    0 -0.35245295364E+01  0.90841622632E+01 -0.15991250820E+02  0.18726035759E+02  0.00000000000E+00 0. -1.
         11    1    3    3    0    0  0.27630459647E+02  0.12347956310E+02  0.49327639625E+01  0.30663438912E+02  0.51100000000E-03 0. -1.
        -11    1    3    3    0    0 -0.15712604979E+02 -0.66091751196E+01  0.16691149289E+02  0.23857108287E+02  0.51100000000E-03 0.  1.
         12    1    3    3    0    0 -0.83933251318E+01 -0.14822943453E+02 -0.56326624319E+01  0.17941417042E+02  0.00000000000E+00 0. -1.
</event>
<event>
 7    1  0.1333056E-013  0.7246163E+02  0.7816164E-02  0.1226708E+00
        -11   -1    0    0    0    0  0.00000000000E+00  0.00000000000E+00  0.45593999997E+02  0.45594000000E+02  0.51100000000E-03 0. -1.
         11   -1    0    0    0    0 -0.00000000000E+00 -0.00000000000E+00 -0.45593999997E+02  0.45594000000E+02  0.51100000000E-03 0.  1.
    9900012    2    1    2    0    0 -0.77860756040E+00 -0.16035261995E+02 -0.96405996138E+01  0.72461627743E+02  0.70000074838E+02 0.  0.
         12    1    1    2    0    0  0.77860756040E+00  0.16035261995E+02  0.96405996138E+01  0.18726372257E+02  0.00000000000E+00 0. -1.
         11    1    3    3    0    0  0.19810077474E+02 -0.85452964589E+00 -0.17496074733E+02  0.26443941117E+02  0.51100000000E-03 0. -1.
        -11    1    3    3    0    0 -0.43445915287E+01 -0.25620334607E+02  0.34731570369E+01  0.26217166914E+02  0.51100000000E-03 0.  1.
         12    1    3    3    0    0 -0.16244093506E+02  0.10439602258E+02  0.43823180826E+01  0.19800519713E+02  0.00000000000E+00 0. -1.
</event>
<event>
 7    1  0.1333056E-013  0.7246159E+02  0.7816164E-02  0.1226708E+00
        -11   -1    0    0    0    0  0.00000000000E+00  0.00000000000E+00  0.45593999997E+02  0.45594000000E+02  0.51100000000E-03 0.  1.
         11   -1    0    0    0    0 -0.00000000000E+00 -0.00000000000E+00 -0.45593999997E+02  0.45594000000E+02  0.51100000000E-03 0. -1.
    9900012    2    1    2    0    0  0.74141706798E+00 -0.17552794008E+02 -0.64829185156E+01  0.72461587924E+02  0.70000022966E+02 0.  0.
         12    1    1    2    0    0 -0.74141706798E+00  0.17552794008E+02  0.64829185156E+01  0.18726412076E+02  0.00000000000E+00 0. -1.
         11    1    3    3    0    0 -0.15981213153E+02 -0.19029381076E+01 -0.28354516809E+02  0.32603664994E+02  0.51100000000E-03 0. -1.
        -11    1    3    3    0    0  0.18536541090E+02 -0.10153792197E+01  0.12677743877E+02  0.22480203305E+02  0.51100000000E-03 0.  1.
         12    1    3    3    0    0 -0.18139108686E+01 -0.14634476681E+02  0.91938544160E+01  0.17377719625E+02  0.00000000000E+00 0. -1.
</event>
<event>
 7    1  0.1333056E-013  0.7246153E+02  0.7816164E-02  0.1226708E+00
        -11   -1    0    0    0    0  0.00000000000E+00  0.00000000000E+00  0.45593999997E+02  0.45594000000E+02  0.51100000000E-03 0.  1.
         11   -1    0    0    0    0 -0.00000000000E+00 -0.00000000000E+00 -0.45593999997E+02  0.45594000000E+02  0.51100000000E-03 0. -1.
    9900012    2    1    2    0    0  0.46752843759E+01 -0.52388594283E+01  0.17360202415E+02  0.72461533168E+02  0.69999951636E+02 0.  0.
         12    1    1    2    0    0 -0.46752843759E+01  0.52388594283E+01 -0.17360202415E+02  0.18726466832E+02  0.00000000000E+00 0. -1.
         11    1    3    3    0    0  0.98463900066E+01 -0.11868967977E+02 -0.22857811626E+01  0.15590015804E+02  0.51100000000E-03 0. -1.
        -11    1    3    3    0    0 -0.11028698328E+02  0.10201747371E+02  0.36069187020E+02  0.39072932943E+02  0.51100000000E-03 0.  1.
        -12    1    3    3    0    0  0.58575926971E+01 -0.35716388227E+01 -0.16423203442E+02  0.17798584421E+02  0.00000000000E+00 0.  1.
</event>
<event>
 7    1  0.1333056E-013  0.7246144E+02  0.7816164E-02  0.1226708E+00
        -11   -1    0    0    0    0  0.00000000000E+00  0.00000000000E+00  0.45593999997E+02  0.45594000000E+02  0.51100000000E-03 0.  1.
         11   -1    0    0    0    0 -0.00000000000E+00 -0.00000000000E+00 -0.45593999997E+02  0.45594000000E+02  0.51100000000E-03 0. -1.
    9900012    2    1    2    0    0 -0.26985357756E+01 -0.50893523938E+01  0.17818546110E+02  0.72461436285E+02  0.69999825427E+02 0.  0.
         12    1    1    2    0    0  0.26985357756E+01  0.50893523938E+01 -0.17818546110E+02  0.18726563715E+02  0.00000000000E+00 0. -1.
         11    1    3    3    0    0 -0.17313687402E+02  0.23323788425E+02  0.22345077610E+02  0.36647856304E+02  0.51100000000E-03 0. -1.
        -11    1    3    3    0    0 -0.20699004747E+01 -0.10806163483E+02  0.60730832198E+00  0.11019368442E+02  0.51100000000E-03 0.  1.
         12    1    3    3    0    0  0.16685052101E+02 -0.17606977336E+02 -0.51338398227E+01  0.24794211539E+02  0.00000000000E+00 0. -1.
</event>
<event>
 7    1  0.1333056E-013  0.7246159E+02  0.7816164E-02  0.1226708E+00
        -11   -1    0    0    0    0  0.00000000000E+00  0.00000000000E+00  0.45593999997E+02  0.45594000000E+02  0.51100000000E-03 0.  1.
         11   -1    0    0    0    0 -0.00000000000E+00 -0.00000000000E+00 -0.45593999997E+02  0.45594000000E+02  0.51100000000E-03 0. -1.
    9900012    2    1    2    0    0  0.62600885498E+00 -0.17442497704E+02  0.67856955884E+01  0.72461594102E+02  0.70000031014E+02 0.  0.
         12    1    1    2    0    0 -0.62600885498E+00  0.17442497704E+02 -0.67856955884E+01  0.18726405898E+02  0.00000000000E+00 0. -1.
         11    1    3    3    0    0 -0.57303919412E+01 -0.29940873560E+02 -0.17371309569E+02  0.35086403318E+02  0.51100000000E-03 0. -1.
        -11    1    3    3    0    0  0.13030525194E+01  0.15839001924E+02  0.26483521499E+02  0.30886062213E+02  0.51100000000E-03 0.  1.
        -12    1    3    3    0    0  0.50533482768E+01 -0.33406260672E+01 -0.23265163413E+01  0.64891285712E+01  0.00000000000E+00 0.  1.
</event>
<event>
 7    1  0.1333056E-013  0.7246152E+02  0.7816164E-02  0.1226708E+00
        -11   -1    0    0    0    0  0.00000000000E+00  0.00000000000E+00  0.45593999997E+02  0.45594000000E+02  0.51100000000E-03 0. -1.
         11   -1    0    0    0    0 -0.00000000000E+00 -0.00000000000E+00 -0.45593999997E+02  0.45594000000E+02  0.51100000000E-03 0.  1.
    9900012    2    1    2    0    0  0.91457754822E+01 -0.42602793744E+01 -0.15776119308E+02  0.72461517951E+02  0.69999931813E+02 0.  0.
         12    1    1    2    0    0 -0.91457754822E+01  0.42602793744E+01  0.15776119308E+02  0.18726482049E+02  0.00000000000E+00 0. -1.
         11    1    3    3    0    0  0.22312747450E+01 -0.70183450420E+01  0.24897484787E+02  0.25963830671E+02  0.51100000000E-03 0. -1.
        -11    1    3    3    0    0  0.34546462602E+01 -0.14689281400E+01 -0.40860000384E+02  0.41032084547E+02  0.51100000000E-03 0.  1.
         12    1    3    3    0    0  0.34598544770E+01  0.42269938075E+01  0.18639628872E+00  0.54656027323E+01  0.00000000000E+00 0. -1.
</event>
<event>
 7    1  0.1333056E-013  0.7246158E+02  0.7816164E-02  0.1226708E+00
        -11   -1    0    0    0    0  0.00000000000E+00  0.00000000000E+00  0.45593999997E+02  0.45594000000E+02  0.51100000000E-03 0.  1.
         11   -1    0    0    0    0 -0.00000000000E+00 -0.00000000000E+00 -0.45593999997E+02  0.45594000000E+02  0.51100000000E-03 0. -1.
    9900012    2    1    2    0    0 -0.18187391178E+02  0.45439614690E-01 -0.44604307136E+01  0.72461582703E+02  0.70000016165E+02 0.  0.
         12    1    1    2    0    0  0.18187391178E+02 -0.45439614690E-01  0.44604307136E+01  0.18726417297E+02  0.00000000000E+00 0. -1.
         11    1    3    3    0    0 -0.27974819399E+01 -0.38244461712E+01 -0.94274259258E+01  0.10551239433E+02  0.51100000000E-03 0. -1.
        -11    1    3    3    0    0  0.16999105204E+02  0.94557394959E+01  0.18048619055E+02  0.26535508987E+02  0.51100000000E-03 0.  1.
        -12    1    3    3    0    0 -0.32389014442E+02 -0.55858537101E+01 -0.13081623843E+02  0.35374834283E+02  0.00000000000E+00 0.  1.
</event>
<event>
 7    1  0.1333056E-013  0.7246156E+02  0.7816164E-02  0.1226708E+00
        -11   -1    0    0    0    0  0.00000000000E+00  0.00000000000E+00  0.45593999997E+02  0.45594000000E+02  0.51100000000E-03 0.  1.
         11   -1    0    0    0    0 -0.00000000000E+00 -0.00000000000E+00 -0.45593999997E+02  0.45594000000E+02  0.51100000000E-03 0. -1.
    9900012    2    1    2    0    0  0.19347941366E+01 -0.28838688780E+01  0.18401614373E+02  0.72461560413E+02  0.69999987128E+02 0.  0.
         12    1    1    2    0    0 -0.19347941366E+01  0.28838688780E+01 -0.18401614373E+02  0.18726439587E+02  0.00000000000E+00 0. -1.
         11    1    3    3    0    0  0.25329353687E+02  0.16530772303E+02 -0.48614564894E+01  0.30634561374E+02  0.51100000000E-03 0. -1.
        -11    1    3    3    0    0 -0.10960566826E+02 -0.26475599826E+01  0.16303732342E+02  0.19823099847E+02  0.51100000000E-03 0.  1.
         12    1    3    3    0    0 -0.12433992725E+02 -0.16767081198E+02  0.69593385211E+01  0.22003899192E+02  0.00000000000E+00 0. -1.
</event>
<event>
 7    1  0.1333056E-013  0.7246161E+02  0.7816164E-02  0.1226708E+00
        -11   -1    0    0    0    0  0.00000000000E+00  0.00000000000E+00  0.45593999997E+02  0.45594000000E+02  0.51100000000E-03 0.  1.
         11   -1    0    0    0    0 -0.00000000000E+00 -0.00000000000E+00 -0.45593999997E+02  0.45594000000E+02  0.51100000000E-03 0. -1.
    9900012    2    1    2    0    0 -0.22498984026E+01  0.99819217269E+01  0.15683651892E+02  0.72461608441E+02  0.70000049692E+02 0.  0.
         12    1    1    2    0    0  0.22498984026E+01 -0.99819217269E+01 -0.15683651892E+02  0.18726391559E+02  0.00000000000E+00 0. -1.
         11    1    3    3    0    0 -0.14234809929E+02 -0.23114286648E+02 -0.82692322036E+01  0.28377460465E+02  0.51100000000E-03 0. -1.
        -11    1    3    3    0    0  0.54442550918E+01  0.26701110965E+02  0.21217072566E+02  0.34536262230E+02  0.51100000000E-03 0.  1.
         12    1    3    3    0    0  0.65406564346E+01  0.63950974101E+01  0.27358115286E+01  0.95478857450E+01  0.00000000000E+00 0. -1.
</event>
<event>
 7    1  0.1333056E-013  0.7246159E+02  0.7816164E-02  0.1226708E+00
        -11   -1    0    0    0    0  0.00000000000E+00  0.00000000000E+00  0.45593999997E+02  0.45594000000E+02  0.51100000000E-03 0. -1.
         11   -1    0    0    0    0 -0.00000000000E+00 -0.00000000000E+00 -0.45593999997E+02  0.45594000000E+02  0.51100000000E-03 0.  1.
    9900012    2    1    2    0    0  0.32289327087E+01 -0.12485079891E+02 -0.13578488372E+02  0.72461586227E+02  0.70000020755E+02 0.  0.
         12    1    1    2    0    0 -0.32289327087E+01  0.12485079891E+02  0.13578488372E+02  0.18726413773E+02  0.00000000000E+00 0. -1.
         11    1    3    3    0    0  0.22406501957E+02 -0.29942742643E+02 -0.20176987883E+02  0.42493881998E+02  0.51100000000E-03 0.  1.
        -11    1    3    3    0    0 -0.11614056214E+02  0.16191307682E+02  0.90940008874E+01  0.21903095640E+02  0.51100000000E-03 0. -1.
        -12    1    3    3    0    0 -0.75635130344E+01  0.12663550699E+01 -0.24955013768E+01  0.80646085898E+01  0.00000000000E+00 0.  1.
</event>
<event>
 7    1  0.1333056E-013  0.7246155E+02  0.7816164E-02  0.1226708E+00
        -11   -1    0    0    0    0  0.00000000000E+00  0.00000000000E+00  0.45593999997E+02  0.45594000000E+02  0.51100000000E-03 0. -1.
         11   -1    0    0    0    0 -0.00000000000E+00 -0.00000000000E+00 -0.45593999997E+02  0.45594000000E+02  0.51100000000E-03 0.  1.
    9900012    2    1    2    0    0  0.89782875920E+01  0.12162041544E+02 -0.11052384982E+02  0.72461545013E+02  0.69999967066E+02 0.  0.
         12    1    1    2    0    0 -0.89782875920E+01 -0.12162041544E+02  0.11052384982E+02  0.18726454987E+02  0.00000000000E+00 0. -1.
         11    1    3    3    0    0  0.30950484174E+01 -0.20352642748E+02 -0.70439662134E+01  0.21758374292E+02  0.51100000000E-03 0. -1.
        -11    1    3    3    0    0  0.10933175888E+02  0.37445379535E+02 -0.11242353489E+02  0.40596567537E+02  0.51100000000E-03 0.  1.
         12    1    3    3    0    0 -0.50499367133E+01 -0.49306952427E+01  0.72339347207E+01  0.10106603184E+02  0.00000000000E+00 0. -1.
</event>
<event>
 7    1  0.1333056E-013  0.7246191E+02  0.7816164E-02  0.1226707E+00
        -11   -1    0    0    0    0  0.00000000000E+00  0.00000000000E+00  0.45593999997E+02  0.45594000000E+02  0.51100000000E-03 0.  1.
         11   -1    0    0    0    0 -0.00000000000E+00 -0.00000000000E+00 -0.45593999997E+02  0.45594000000E+02  0.51100000000E-03 0. -1.
    9900012    2    1    2    0    0 -0.28303538740E+01 -0.91882707413E+01  0.16069575788E+02  0.72461908889E+02  0.70000441081E+02 0.  0.
         12    1    1    2    0    0  0.28303538740E+01  0.91882707413E+01 -0.16069575788E+02  0.18726091111E+02  0.00000000000E+00 0. -1.
         11    1    3    3    0    0 -0.90363090245E+01  0.77201321005E+01 -0.72564756879E+01  0.13925220289E+02  0.51100000000E-03 0. -1.
        -11    1    3    3    0    0  0.23344928590E+01 -0.21112295156E+02  0.37586788395E+02  0.43173435418E+02  0.51100000000E-03 0.  1.
        -12    1    3    3    0    0  0.38714622914E+01  0.42038923145E+01 -0.14260736919E+02  0.15363253182E+02  0.00000000000E+00 0.  1.
</event>
<event>
 7    1  0.1333056E-013  0.7246153E+02  0.7816164E-02  0.1226708E+00
        -11   -1    0    0    0    0  0.00000000000E+00  0.00000000000E+00  0.45593999997E+02  0.45594000000E+02  0.51100000000E-03 0. -1.
         11   -1    0    0    0    0 -0.00000000000E+00 -0.00000000000E+00 -0.45593999997E+02  0.45594000000E+02  0.51100000000E-03 0.  1.
    9900012    2    1    2    0    0  0.99631721382E+01  0.93976200179E+01 -0.12771080160E+02  0.72461533448E+02  0.69999952001E+02 0.  0.
         12    1    1    2    0    0 -0.99631721382E+01 -0.93976200179E+01  0.12771080160E+02  0.18726466552E+02  0.00000000000E+00 0. -1.
         11    1    3    3    0    0  0.85622376722E+01 -0.84874303516E+01 -0.22857466558E+01  0.12270820102E+02  0.51100000000E-03 0. -1.
        -11    1    3    3    0    0 -0.21049454598E+02  0.22817721931E+02  0.63654231702E+01  0.31689849879E+02  0.51100000000E-03 0.  1.
        -12    1    3    3    0    0  0.22450389064E+02 -0.49326715612E+01 -0.16850756675E+02  0.28500863467E+02  0.00000000000E+00 0.  1.
</event>
<event>
 7    1  0.1333056E-013  0.7246163E+02  0.7816164E-02  0.1226708E+00
        -11   -1    0    0    0    0  0.00000000000E+00  0.00000000000E+00  0.45593999997E+02  0.45594000000E+02  0.51100000000E-03 0.  1.
         11   -1    0    0    0    0 -0.00000000000E+00 -0.00000000000E+00 -0.45593999997E+02  0.45594000000E+02  0.51100000000E-03 0. -1.
    9900012    2    1    2    0    0  0.82330660455E+01 -0.67054201327E+01  0.15425011224E+02  0.72461628036E+02  0.70000075219E+02 0.  0.
         12    1    1    2    0    0 -0.82330660455E+01  0.67054201327E+01 -0.15425011224E+02  0.18726371964E+02  0.00000000000E+00 0. -1.
         11    1    3    3    0    0  0.15898357654E+02  0.19258510003E+02 -0.77946430867E+01  0.26161124684E+02  0.51100000000E-03 0. -1.
        -11    1    3    3    0    0  0.43425064721E+01 -0.12520994342E+01  0.17711553542E+02  0.18279065747E+02  0.51100000000E-03 0.  1.
         12    1    3    3    0    0 -0.12007798081E+02 -0.24711830701E+02  0.55081007693E+01  0.28021437605E+02  0.00000000000E+00 0. -1.
</event>
<event>
 7    1  0.1333056E-013  0.7246155E+02  0.7816164E-02  0.1226708E+00
        -11   -1    0    0    0    0  0.00000000000E+00  0.00000000000E+00  0.45593999997E+02  0.45594000000E+02  0.51100000000E-03 0. -1.
         11   -1    0    0    0    0 -0.00000000000E+00 -0.00000000000E+00 -0.45593999997E+02  0.45594000000E+02  0.51100000000E-03 0.  1.
    9900012    2    1    2    0    0 -0.18057449463E+02  0.45189979474E+01  0.20462092996E+01  0.72461553565E+02  0.69999978207E+02 0.  0.
         12    1    1    2    0    0  0.18057449463E+02 -0.45189979474E+01 -0.20462092996E+01  0.18726446435E+02  0.00000000000E+00 0. -1.
         11    1    3    3    0    0 -0.86563250331E+00  0.15111800659E+02  0.36848614577E+01  0.15578640603E+02  0.51100000000E-03 0. -1.
        -11    1    3    3    0    0  0.47288146488E+01 -0.26883676203E+02 -0.87435837219E+01  0.28662588695E+02  0.51100000000E-03 0.  1.
        -12    1    3    3    0    0 -0.21920631609E+02  0.16290873491E+02  0.71049315637E+01  0.28220324267E+02  0.00000000000E+00 0.  1.
</event>
<event>
 7    1  0.1333056E-013  0.7246157E+02  0.7816164E-02  0.1226708E+00
        -11   -1    0    0    0    0  0.00000000000E+00  0.00000000000E+00  0.45593999997E+02  0.45594000000E+02  0.51100000000E-03 0. -1.
         11   -1    0    0    0    0 -0.00000000000E+00 -0.00000000000E+00 -0.45593999997E+02  0.45594000000E+02  0.51100000000E-03 0.  1.
    9900012    2    1    2    0    0  0.17884982470E+02 -0.54826902288E+01 -0.86403387413E+00  0.72461573629E+02  0.70000004344E+02 0.  0.
         12    1    1    2    0    0 -0.17884982470E+02  0.54826902288E+01  0.86403387413E+00  0.18726426371E+02  0.00000000000E+00 0. -1.
         11    1    3    3    0    0  0.20420731003E+02 -0.83702947956E+01  0.29991065711E+02  0.37236166725E+02  0.51100000000E-03 0. -1.
        -11    1    3    3    0    0  0.41303701480E+01  0.76910053954E+01 -0.17208151271E+02  0.19295906093E+02  0.51100000000E-03 0.  1.
         12    1    3    3    0    0 -0.66661186808E+01 -0.48034008286E+01 -0.13646948314E+02  0.15929500811E+02  0.00000000000E+00 0. -1.
</event>
<event>
 7    1  0.1333056E-013  0.7246158E+02  0.7816164E-02  0.1226708E+00
        -11   -1    0    0    0    0  0.00000000000E+00  0.00000000000E+00  0.45593999997E+02  0.45594000000E+02  0.51100000000E-03 0.  1.
         11   -1    0    0    0    0 -0.00000000000E+00 -0.00000000000E+00 -0.45593999997E+02  0.45594000000E+02  0.51100000000E-03 0. -1.
    9900012    2    1    2    0    0 -0.29498470668E+01  0.81294435190E+01  0.16609917527E+02  0.72461579896E+02  0.70000012508E+02 0.  0.
         12    1    1    2    0    0  0.29498470668E+01 -0.81294435190E+01 -0.16609917527E+02  0.18726420104E+02  0.00000000000E+00 0. -1.
         11    1    3    3    0    0 -0.12679216933E+02  0.32405558829E+02  0.14399892822E+02  0.37659523345E+02  0.51100000000E-03 0.  1.
        -11    1    3    3    0    0 -0.11017953078E+01 -0.15930798211E+02  0.10216276093E+02  0.18957230336E+02  0.51100000000E-03 0. -1.
         12    1    3    3    0    0  0.10831165174E+02 -0.83453170994E+01 -0.80062513872E+01  0.15844826215E+02  0.00000000000E+00 0. -1.
</event>
<event>
 7    1  0.1333056E-013  0.7246157E+02  0.7816164E-02  0.1226708E+00
        -11   -1    0    0    0    0  0.00000000000E+00  0.00000000000E+00  0.45593999997E+02  0.45594000000E+02  0.51100000000E-03 0.  1.
         11   -1    0    0    0    0 -0.00000000000E+00 -0.00000000000E+00 -0.45593999997E+02  0.45594000000E+02  0.51100000000E-03 0. -1.
    9900012    2    1    2    0    0 -0.13534851353E+02 -0.12593022935E+02 -0.29837189774E+01  0.72461574641E+02  0.70000005663E+02 0.  0.
         12    1    1    2    0    0  0.13534851353E+02  0.12593022935E+02  0.29837189774E+01  0.18726425359E+02  0.00000000000E+00 0. -1.
         11    1    3    3    0    0 -0.11039186321E+02  0.24375469906E+02  0.10082320744E+02  0.28595110764E+02  0.51100000000E-03 0.  1.
        -11    1    3    3    0    0  0.39245427928E+01 -0.21482886125E+02  0.11754528319E+01  0.21870027939E+02  0.51100000000E-03 0. -1.
        -12    1    3    3    0    0 -0.64202078246E+01 -0.15485606715E+02 -0.14241492554E+02  0.21996435939E+02  0.00000000000E+00 0.  1.
</event>
<event>
 7    1  0.1333056E-013  0.7246194E+02  0.7816164E-02  0.1226707E+00
        -11   -1    0    0    0    0  0.00000000000E+00  0.00000000000E+00  0.45593999997E+02  0.45594000000E+02  0.51100000000E-03 0.  1.
         11   -1    0    0    0    0 -0.00000000000E+00 -0.00000000000E+00 -0.45593999997E+02  0.45594000000E+02  0.51100000000E-03 0. -1.
    9900012    2    1    2    0    0 -0.16668907799E+02 -0.79214264514E+01  0.31723675921E+01  0.72461937937E+02  0.70000478922E+02 0.  0.
         12    1    1    2    0    0  0.16668907799E+02  0.79214264514E+01 -0.31723675921E+01  0.18726062063E+02  0.00000000000E+00 0. -1.
         11    1    3    3    0    0 -0.18317004410E+02 -0.25498084471E+02  0.75594521172E+01  0.32292573122E+02  0.51100000000E-03 0. -1.
        -11    1    3    3    0    0 -0.15328102614E+00  0.26804606235E+02  0.45604415459E+01  0.27190219526E+02  0.51100000000E-03 0.  1.
         12    1    3    3    0    0  0.18013776374E+01 -0.92279482154E+01 -0.89475260710E+01  0.12979145290E+02  0.00000000000E+00 0. -1.
</event>
<event>
 7    1  0.1333056E-013  0.7246147E+02  0.7816164E-02  0.1226708E+00
        -11   -1    0    0    0    0  0.00000000000E+00  0.00000000000E+00  0.45593999997E+02  0.45594000000E+02  0.51100000000E-03 0. -1.
         11   -1    0    0    0    0 -0.00000000000E+00 -0.00000000000E+00 -0.45593999997E+02  0.45594000000E+02  0.51100000000E-03 0.  1.
    9900012    2    1    2    0    0  0.17598921733E+02 -0.57073489451E+01  0.28960505174E+01  0.72461468374E+02  0.69999867230E+02 0.  0.
         12    1    1    2    0    0 -0.17598921733E+02  0.57073489451E+01 -0.28960505174E+01  0.18726531626E+02  0.00000000000E+00 0. -1.
         11    1    3    3    0    0  0.15299544864E+02 -0.83564393872E+01  0.14033987055E+02  0.22379878132E+02  0.51100000000E-03 0. -1.
        -11    1    3    3    0    0 -0.22924535131E+02 -0.18233416567E+01 -0.76049406773E+01  0.24221767251E+02  0.51100000000E-03 0.  1.
        -12    1    3    3    0    0  0.25223911999E+02  0.44724320989E+01 -0.35329958598E+01  0.25859822992E+02  0.00000000000E+00 0.  1.
</event>
<event>
 7    1  0.1333056E-013  0.7246158E+02  0.7816164E-02  0.1226708E+00
        -11   -1    0    0    0    0  0.00000000000E+00  0.00000000000E+00  0.45593999997E+02  0.45594000000E+02  0.51100000000E-03 0.  1.
         11   -1    0    0    0    0 -0.00000000000E+00 -0.00000000000E+00 -0.45593999997E+02  0.45594000000E+02  0.51100000000E-03 0. -1.
    9900012    2    1    2    0    0  0.17076426857E+00 -0.16906651496E+02  0.80507741500E+01  0.72461575097E+02  0.70000006256E+02 0.  0.
         12    1    1    2    0    0 -0.17076426857E+00  0.16906651496E+02 -0.80507741500E+01  0.18726424903E+02  0.00000000000E+00 0. -1.
         11    1    3    3    0    0 -0.19852906032E+02 -0.12010775715E+02  0.32541847645E+02  0.39967092208E+02  0.51100000000E-03 0. -1.
        -11    1    3    3    0    0  0.16053232111E+02 -0.46210596663E+01 -0.16067953196E+02  0.23178429062E+02  0.51100000000E-03 0.  1.
         12    1    3    3    0    0  0.39704381900E+01 -0.27481611465E+00 -0.84231202990E+01  0.93160538260E+01  0.00000000000E+00 0. -1.
</event>
<event>
 7    1  0.1333056E-013  0.7246156E+02  0.7816164E-02  0.1226708E+00
        -11   -1    0    0    0    0  0.00000000000E+00  0.00000000000E+00  0.45593999997E+02  0.45594000000E+02  0.51100000000E-03 0. -1.
         11   -1    0    0    0    0 -0.00000000000E+00 -0.00000000000E+00 -0.45593999997E+02  0.45594000000E+02  0.51100000000E-03 0.  1.
    9900012    2    1    2    0    0 -0.66592070890E+01  0.92554928129E+01 -0.14854983948E+02  0.72461555213E+02  0.69999980354E+02 0.  0.
         12    1    1    2    0    0  0.66592070890E+01 -0.92554928129E+01  0.14854983948E+02  0.18726444787E+02  0.00000000000E+00 0. -1.
         11    1    3    3    0    0 -0.21303131159E+02 -0.16543418683E+02  0.57103329461E+01  0.27570201332E+02  0.51100000000E-03 0. -1.
        -11    1    3    3    0    0  0.84483231939E+01 -0.38177251565E+01 -0.75366471057E+01  0.11947813190E+02  0.51100000000E-03 0.  1.
         12    1    3    3    0    0  0.61956008756E+01  0.29616636653E+02 -0.13028669788E+02  0.32943540691E+02  0.00000000000E+00 0. -1.
</event>
<event>
 7    1  0.1333056E-013  0.7246160E+02  0.7816164E-02  0.1226708E+00
        -11   -1    0    0    0    0  0.00000000000E+00  0.00000000000E+00  0.45593999997E+02  0.45594000000E+02  0.51100000000E-03 0. -1.
         11   -1    0    0    0    0 -0.00000000000E+00 -0.00000000000E+00 -0.45593999997E+02  0.45594000000E+02  0.51100000000E-03 0.  1.
    9900012    2    1    2    0    0  0.52890620492E+01  0.17901955072E+02  0.14912709630E+01  0.72461599870E+02  0.70000038527E+02 0.  0.
         12    1    1    2    0    0 -0.52890620492E+01 -0.17901955072E+02 -0.14912709630E+01  0.18726400130E+02  0.00000000000E+00 0. -1.
         11    1    3    3    0    0  0.58727722046E+01 -0.43129801170E+01  0.19607271889E+02  0.20917369864E+02  0.51100000000E-03 0. -1.
        -11    1    3    3    0    0  0.43863828934E+01 -0.39574897388E+01 -0.23614732610E+02  0.24342507603E+02  0.51100000000E-03 0.  1.
         12    1    3    3    0    0 -0.49700930489E+01  0.26172424928E+02  0.54987316840E+01  0.27201722402E+02  0.00000000000E+00 0. -1.
</event>
<event>
 7    1  0.1333056E-013  0.7246154E+02  0.7816164E-02  0.1226708E+00
        -11   -1    0    0    0    0  0.00000000000E+00  0.00000000000E+00  0.45593999997E+02  0.45594000000E+02  0.51100000000E-03 0.  1.
         11   -1    0    0    0    0 -0.00000000000E+00 -0.00000000000E+00 -0.45593999997E+02  0.45594000000E+02  0.51100000000E-03 0. -1.
    9900012    2    1    2    0    0 -0.23523703127E+01 -0.18529294595E+02 -0.13460708273E+01  0.72461539818E+02  0.69999960299E+02 0.  0.
         12    1    1    2    0    0  0.23523703127E+01  0.18529294595E+02  0.13460708273E+01  0.18726460182E+02  0.00000000000E+00 0. -1.
         11    1    3    3    0    0 -0.14157168964E+02  0.15018412954E+02  0.16021689269E+02  0.26128005818E+02  0.51100000000E-03 0. -1.
        -11    1    3    3    0    0  0.39167608269E+01 -0.11223903769E+02  0.57829445229E+01  0.13219662583E+02  0.51100000000E-03 0.  1.
         12    1    3    3    0    0  0.78880378240E+01 -0.22323803779E+02 -0.23150704619E+02  0.33113871417E+02  0.00000000000E+00 0. -1.
</event>
<event>
 7    1  0.1333056E-013  0.7246157E+02  0.7816164E-02  0.1226708E+00
        -11   -1    0    0    0    0  0.00000000000E+00  0.00000000000E+00  0.45593999997E+02  0.45594000000E+02  0.51100000000E-03 0.  1.
         11   -1    0    0    0    0 -0.00000000000E+00 -0.00000000000E+00 -0.45593999997E+02  0.45594000000E+02  0.51100000000E-03 0. -1.
    9900012    2    1    2    0    0  0.13224335464E+02  0.82203903929E+01  0.10402951047E+02  0.72461567954E+02  0.69999996951E+02 0.  0.
         12    1    1    2    0    0 -0.13224335464E+02 -0.82203903929E+01 -0.10402951047E+02  0.18726432046E+02  0.00000000000E+00 0. -1.
         11    1    3    3    0    0  0.35446207812E+02  0.17486027581E+01  0.39808977025E+01  0.35711886069E+02  0.51100000000E-03 0. -1.
        -11    1    3    3    0    0 -0.60318106494E+00 -0.92051179732E+01  0.35766704834E+01  0.98939676725E+01  0.51100000000E-03 0.  1.
         12    1    3    3    0    0 -0.21618691283E+02  0.15676905608E+02  0.28453828613E+01  0.26855714212E+02  0.00000000000E+00 0. -1.
</event>
<event>
 7    1  0.1333056E-013  0.7246146E+02  0.7816164E-02  0.1226708E+00
        -11   -1    0    0    0    0  0.00000000000E+00  0.00000000000E+00  0.45593999997E+02  0.45594000000E+02  0.51100000000E-03 0.  1.
         11   -1    0    0    0    0 -0.00000000000E+00 -0.00000000000E+00 -0.45593999997E+02  0.45594000000E+02  0.51100000000E-03 0. -1.
    9900012    2    1    2    0    0 -0.11533326401E+02  0.14745327729E+02  0.49101458080E+00  0.72461457259E+02  0.69999852751E+02 0.  0.
         12    1    1    2    0    0  0.11533326401E+02 -0.14745327729E+02 -0.49101458080E+00  0.18726542741E+02  0.00000000000E+00 0. -1.
         11    1    3    3    0    0  0.14351478319E+02  0.22430618165E+02 -0.21721276090E+02  0.34364391402E+02  0.51100000000E-03 0. -1.
        -11    1    3    3    0    0  0.17342246077E+01 -0.11621699367E+01  0.35926710391E+01  0.41551726087E+01  0.51100000000E-03 0.  1.
         12    1    3    3    0    0 -0.27619029328E+02 -0.65231204994E+01  0.18619619632E+02  0.33941893248E+02  0.00000000000E+00 0. -1.
</event>
<event>
 7    1  0.1333056E-013  0.7246159E+02  0.7816164E-02  0.1226708E+00
        -11   -1    0    0    0    0  0.00000000000E+00  0.00000000000E+00  0.45593999997E+02  0.45594000000E+02  0.51100000000E-03 0.  1.
         11   -1    0    0    0    0 -0.00000000000E+00 -0.00000000000E+00 -0.45593999997E+02  0.45594000000E+02  0.51100000000E-03 0. -1.
    9900012    2    1    2    0    0 -0.14793342685E+02  0.29326280635E+01  0.11101126246E+02  0.72461593535E+02  0.70000030275E+02 0.  0.
         12    1    1    2    0    0  0.14793342685E+02 -0.29326280635E+01 -0.11101126246E+02  0.18726406465E+02  0.00000000000E+00 0. -1.
         11    1    3    3    0    0 -0.18907797471E+02 -0.17936977334E+02  0.32007962896E+01  0.26258047495E+02  0.51100000000E-03 0. -1.
        -11    1    3    3    0    0 -0.36019360848E+00 -0.58340235525E+00  0.20775322520E+02  0.20786633297E+02  0.51100000000E-03 0.  1.
         12    1    3    3    0    0  0.44746483950E+01  0.21453007753E+02 -0.12874992563E+02  0.25416912743E+02  0.00000000000E+00 0. -1.
</event>
<event>
 7    1  0.1333056E-013  0.7246157E+02  0.7816164E-02  0.1226708E+00
        -11   -1    0    0    0    0  0.00000000000E+00  0.00000000000E+00  0.45593999997E+02  0.45594000000E+02  0.51100000000E-03 0. -1.
         11   -1    0    0    0    0 -0.00000000000E+00 -0.00000000000E+00 -0.45593999997E+02  0.45594000000E+02  0.51100000000E-03 0.  1.
    9900012    2    1    2    0    0  0.71650805400E+01  0.85151404309E+01 -0.15060978597E+02  0.72461572898E+02  0.70000003392E+02 0.  0.
         12    1    1    2    0    0 -0.71650805400E+01 -0.85151404309E+01  0.15060978597E+02  0.18726427102E+02  0.00000000000E+00 0. -1.
         11    1    3    3    0    0  0.17996565204E+02  0.24532896754E+02 -0.96003969947E+01  0.31904654911E+02  0.51100000000E-03 0. -1.
        -11    1    3    3    0    0  0.44516001050E+01 -0.21123513944E+02  0.38779244956E+01  0.21933031789E+02  0.51100000000E-03 0.  1.
         12    1    3    3    0    0 -0.15283084769E+02  0.51057576208E+01 -0.93385060983E+01  0.18623886197E+02  0.00000000000E+00 0. -1.
</event>
<event>
 7    1  0.1333056E-013  0.7246154E+02  0.7816164E-02  0.1226708E+00
        -11   -1    0    0    0    0  0.00000000000E+00  0.00000000000E+00  0.45593999997E+02  0.45594000000E+02  0.51100000000E-03 0. -1.
         11   -1    0    0    0    0 -0.00000000000E+00 -0.00000000000E+00 -0.45593999997E+02  0.45594000000E+02  0.51100000000E-03 0.  1.
    9900012    2    1    2    0    0  0.95723539049E+01 -0.14957036068E+02  0.59445334669E+01  0.72461538366E+02  0.69999958407E+02 0.  0.
         12    1    1    2    0    0 -0.95723539049E+01  0.14957036068E+02 -0.59445334669E+01  0.18726461634E+02  0.00000000000E+00 0. -1.
         11    1    3    3    0    0 -0.12560805197E+02  0.16095610245E+01 -0.11421497021E+02  0.17053301978E+02  0.51100000000E-03 0. -1.
        -11    1    3    3    0    0  0.23316891340E+02 -0.25025266335E+02  0.26226150556E+02  0.43101651362E+02  0.51100000000E-03 0.  1.
        -12    1    3    3    0    0 -0.11837322384E+01  0.84586692427E+01 -0.88601200684E+01  0.12306585026E+02  0.00000000000E+00 0.  1.
</event>
<event>
 7    1  0.1333056E-013  0.7246154E+02  0.7816164E-02  0.1226708E+00
        -11   -1    0    0    0    0  0.00000000000E+00  0.00000000000E+00  0.45593999997E+02  0.45594000000E+02  0.51100000000E-03 0.  1.
         11   -1    0    0    0    0 -0.00000000000E+00 -0.00000000000E+00 -0.45593999997E+02  0.45594000000E+02  0.51100000000E-03 0. -1.
    9900012    2    1    2    0    0 -0.37903741470E+01  0.17454192995E+02  0.56271223227E+01  0.72461540246E+02  0.69999960856E+02 0.  0.
         12    1    1    2    0    0  0.37903741470E+01 -0.17454192995E+02 -0.56271223227E+01  0.18726459754E+02  0.00000000000E+00 0. -1.
         11    1    3    3    0    0 -0.15470530612E+02 -0.80908888909E+01 -0.21537421671E+02  0.27724724218E+02  0.51100000000E-03 0. -1.
        -11    1    3    3    0    0  0.14378201959E+02  0.14867662069E+02  0.71344898378E+01  0.21878779959E+02  0.51100000000E-03 0.  1.
         12    1    3    3    0    0 -0.26980454939E+01  0.10677419817E+02  0.20030054156E+02  0.22858036069E+02  0.00000000000E+00 0. -1.
</event>
<event>
 7    1  0.1333056E-013  0.7246161E+02  0.7816164E-02  0.1226708E+00
        -11   -1    0    0    0    0  0.00000000000E+00  0.00000000000E+00  0.45593999997E+02  0.45594000000E+02  0.51100000000E-03 0. -1.
         11   -1    0    0    0    0 -0.00000000000E+00 -0.00000000000E+00 -0.45593999997E+02  0.45594000000E+02  0.51100000000E-03 0.  1.
    9900012    2    1    2    0    0 -0.10869843093E+02 -0.46994022141E+00 -0.15241503873E+02  0.72461607582E+02  0.70000048574E+02 0.  0.
         12    1    1    2    0    0  0.10869843093E+02  0.46994022141E+00  0.15241503873E+02  0.18726392418E+02  0.00000000000E+00 0. -1.
         11    1    3    3    0    0 -0.14706495212E+01  0.23608023879E+01  0.51941593088E+01  0.58919851591E+01  0.51100000000E-03 0. -1.
        -11    1    3    3    0    0 -0.15316051806E+02  0.21051229037E+02 -0.30400676922E+02  0.40024203234E+02  0.51100000000E-03 0.  1.
        -12    1    3    3    0    0  0.59168582342E+01 -0.23881971646E+02  0.99650137410E+01  0.26545419189E+02  0.00000000000E+00 0.  1.
</event>
<event>
 7    1  0.1333056E-013  0.7246171E+02  0.7816164E-02  0.1226708E+00
        -11   -1    0    0    0    0  0.00000000000E+00  0.00000000000E+00  0.45593999997E+02  0.45594000000E+02  0.51100000000E-03 0. -1.
         11   -1    0    0    0    0 -0.00000000000E+00 -0.00000000000E+00 -0.45593999997E+02  0.45594000000E+02  0.51100000000E-03 0.  1.
    9900012    2    1    2    0    0  0.74617470523E+01 -0.69315561358E+01 -0.15714631961E+02  0.72461713737E+02  0.70000186861E+02 0.  0.
         12    1    1    2    0    0 -0.74617470523E+01  0.69315561358E+01  0.15714631961E+02  0.18726286263E+02  0.00000000000E+00 0. -1.
         11    1    3    3    0    0  0.20534073622E+02  0.14453749482E+01  0.30048052738E+01  0.20803032069E+02  0.51100000000E-03 0. -1.
        -11    1    3    3    0    0 -0.17419424130E+02  0.68240097821E+01 -0.27737688336E+02  0.33457178617E+02  0.51100000000E-03 0.  1.
         12    1    3    3    0    0  0.43470975602E+01 -0.15200940866E+02  0.90182511012E+01  0.18201503052E+02  0.00000000000E+00 0. -1.
</event>
<event>
 7    1  0.1333056E-013  0.7246157E+02  0.7816164E-02  0.1226708E+00
        -11   -1    0    0    0    0  0.00000000000E+00  0.00000000000E+00  0.45593999997E+02  0.45594000000E+02  0.51100000000E-03 0. -1.
         11   -1    0    0    0    0 -0.00000000000E+00 -0.00000000000E+00 -0.45593999997E+02  0.45594000000E+02  0.51100000000E-03 0.  1.
    9900012    2    1    2    0    0 -0.10303113458E+01  0.43510820478E+01 -0.18184771046E+02  0.72461565357E+02  0.69999993568E+02 0.  0.
         12    1    1    2    0    0  0.10303113458E+01 -0.43510820478E+01  0.18184771046E+02  0.18726434643E+02  0.00000000000E+00 0. -1.
         11    1    3    3    0    0  0.14001732657E+02  0.12456533203E+01 -0.10939032156E+01  0.14099531698E+02  0.51100000000E-03 0. -1.
        -11    1    3    3    0    0 -0.27083325648E+02  0.15901727748E+02 -0.23946769690E+02  0.39494547122E+02  0.51100000000E-03 0.  1.
        -12    1    3    3    0    0  0.12051281645E+02 -0.12796299021E+02  0.68559018597E+01  0.18867486537E+02  0.00000000000E+00 0.  1.
</event>
<event>
 7    1  0.1333056E-013  0.7246156E+02  0.7816164E-02  0.1226708E+00
        -11   -1    0    0    0    0  0.00000000000E+00  0.00000000000E+00  0.45593999997E+02  0.45594000000E+02  0.51100000000E-03 0.  1.
         11   -1    0    0    0    0 -0.00000000000E+00 -0.00000000000E+00 -0.45593999997E+02  0.45594000000E+02  0.51100000000E-03 0. -1.
    9900012    2    1    2    0    0 -0.11082865595E+02  0.29565665826E+00  0.15091787810E+02  0.72461564622E+02  0.69999992611E+02 0.  0.
         12    1    1    2    0    0  0.11082865595E+02 -0.29565665826E+00 -0.15091787810E+02  0.18726435378E+02  0.00000000000E+00 0. -1.
         11    1    3    3    0    0 -0.12436728422E+02  0.16148621113E+02 -0.21253722713E+02  0.29447765740E+02  0.51100000000E-03 0. -1.
        -11    1    3    3    0    0 -0.12810356576E+01  0.33241394972E+01  0.70794604310E+01  0.79252581035E+01  0.51100000000E-03 0.  1.
         12    1    3    3    0    0  0.26348984848E+01 -0.19177103952E+02  0.29266050092E+02  0.35088540778E+02  0.00000000000E+00 0. -1.
</event>
<event>
 7    1  0.1333056E-013  0.7246159E+02  0.7816164E-02  0.1226708E+00
        -11   -1    0    0    0    0  0.00000000000E+00  0.00000000000E+00  0.45593999997E+02  0.45594000000E+02  0.51100000000E-03 0.  1.
         11   -1    0    0    0    0 -0.00000000000E+00 -0.00000000000E+00 -0.45593999997E+02  0.45594000000E+02  0.51100000000E-03 0. -1.
    9900012    2    1    2    0    0  0.74454627719E+01  0.69881466513E+01  0.15697430230E+02  0.72461590164E+02  0.70000025884E+02 0.  0.
         12    1    1    2    0    0 -0.74454627719E+01 -0.69881466513E+01 -0.15697430230E+02  0.18726409836E+02  0.00000000000E+00 0. -1.
         11    1    3    3    0    0  0.14350288345E+02 -0.13590677332E+02 -0.43268255619E+01  0.20232614899E+02  0.51100000000E-03 0. -1.
        -11    1    3    3    0    0 -0.77783583026E+01  0.74562441127E+01  0.32415538368E+02  0.34159413960E+02  0.51100000000E-03 0.  1.
         12    1    3    3    0    0  0.87353272952E+00  0.13122579871E+02 -0.12391282576E+02  0.18069561305E+02  0.00000000000E+00 0. -1.
</event>
<event>
 7    1  0.1333056E-013  0.7246145E+02  0.7816164E-02  0.1226708E+00
        -11   -1    0    0    0    0  0.00000000000E+00  0.00000000000E+00  0.45593999997E+02  0.45594000000E+02  0.51100000000E-03 0.  1.
         11   -1    0    0    0    0 -0.00000000000E+00 -0.00000000000E+00 -0.45593999997E+02  0.45594000000E+02  0.51100000000E-03 0. -1.
    9900012    2    1    2    0    0  0.15946540083E+02  0.20187215173E+01  0.96081315944E+01  0.72461452803E+02  0.69999846946E+02 0.  0.
         12    1    1    2    0    0 -0.15946540083E+02 -0.20187215173E+01 -0.96081315944E+01  0.18726547197E+02  0.00000000000E+00 0. -1.
         11    1    3    3    0    0  0.34345508115E+02 -0.10023864107E+02 -0.13447449506E+02  0.38222057477E+02  0.51100000000E-03 0. -1.
        -11    1    3    3    0    0 -0.57786838264E+01  0.10672289345E+02  0.79517921445E+01  0.14509374390E+02  0.51100000000E-03 0.  1.
         12    1    3    3    0    0 -0.12620284205E+02  0.13702962791E+01  0.15103788955E+02  0.19730020936E+02  0.00000000000E+00 0. -1.
</event>
<event>
 7    1  0.1333056E-013  0.7246163E+02  0.7816164E-02  0.1226708E+00
        -11   -1    0    0    0    0  0.00000000000E+00  0.00000000000E+00  0.45593999997E+02  0.45594000000E+02  0.51100000000E-03 0. -1.
         11   -1    0    0    0    0 -0.00000000000E+00 -0.00000000000E+00 -0.45593999997E+02  0.45594000000E+02  0.51100000000E-03 0.  1.
    9900012    2    1    2    0    0 -0.58159170559E+01 -0.49016636005E+01 -0.17112154783E+02  0.72461627191E+02  0.70000074119E+02 0.  0.
         12    1    1    2    0    0  0.58159170559E+01  0.49016636005E+01  0.17112154783E+02  0.18726372809E+02  0.00000000000E+00 0. -1.
         11    1    3    3    0    0 -0.49910347228E+01 -0.97626142963E+01  0.18161096787E+02  0.21214252339E+02  0.51100000000E-03 0. -1.
        -11    1    3    3    0    0 -0.31563804491E+01  0.20519430224E+02 -0.15452196438E+02  0.25880110689E+02  0.51100000000E-03 0.  1.
         12    1    3    3    0    0  0.23314981160E+01 -0.15658479528E+02 -0.19821055133E+02  0.25367264164E+02  0.00000000000E+00 0. -1.
</event>
<event>
 7    1  0.1333056E-013  0.7246175E+02  0.7816164E-02  0.1226708E+00
        -11   -1    0    0    0    0  0.00000000000E+00  0.00000000000E+00  0.45593999997E+02  0.45594000000E+02  0.51100000000E-03 0.  1.
         11   -1    0    0    0    0 -0.00000000000E+00 -0.00000000000E+00 -0.45593999997E+02  0.45594000000E+02  0.51100000000E-03 0. -1.
    9900012    2    1    2    0    0 -0.47160783275E+01 -0.17019737626E+02  0.62257323177E+01  0.72461745528E+02  0.70000228274E+02 0.  0.
         12    1    1    2    0    0  0.47160783275E+01  0.17019737626E+02 -0.62257323177E+01  0.18726254472E+02  0.00000000000E+00 0. -1.
         11    1    3    3    0    0 -0.19487383810E+02  0.40155274857E+01 -0.23982697782E+01  0.20040815525E+02  0.51100000000E-03 0. -1.
        -11    1    3    3    0    0  0.30223958566E+02 -0.15293530259E+02  0.11325376556E+02  0.35716157318E+02  0.51100000000E-03 0.  1.
        -12    1    3    3    0    0 -0.15452653084E+02 -0.57417348531E+01 -0.27013744599E+01  0.16704772684E+02  0.00000000000E+00 0.  1.
</event>
<event>
 7    1  0.1333056E-013  0.7246158E+02  0.7816164E-02  0.1226708E+00
        -11   -1    0    0    0    0  0.00000000000E+00  0.00000000000E+00  0.45593999997E+02  0.45594000000E+02  0.51100000000E-03 0.  1.
         11   -1    0    0    0    0 -0.00000000000E+00 -0.00000000000E+00 -0.45593999997E+02  0.45594000000E+02  0.51100000000E-03 0. -1.
    9900012    2    1    2    0    0  0.58559231290E+01 -0.93215606834E+01  0.15149107894E+02  0.72461580181E+02  0.70000012879E+02 0.  0.
         12    1    1    2    0    0 -0.58559231290E+01  0.93215606834E+01 -0.15149107894E+02  0.18726419819E+02  0.00000000000E+00 0. -1.
         11    1    3    3    0    0 -0.22161026022E+02  0.17069205378E+02 -0.49274624219E+01  0.28403322566E+02  0.51100000000E-03 0. -1.
        -11    1    3    3    0    0  0.19259807242E+02 -0.21562001783E+02  0.12432234260E+02  0.31470947632E+02  0.51100000000E-03 0.  1.
        -12    1    3    3    0    0  0.87571419092E+01 -0.48287642784E+01  0.76443360562E+01  0.12587309983E+02  0.00000000000E+00 0.  1.
</event>
<event>
 7    1  0.1333056E-013  0.7246158E+02  0.7816164E-02  0.1226708E+00
        -11   -1    0    0    0    0  0.00000000000E+00  0.00000000000E+00  0.45593999997E+02  0.45594000000E+02  0.51100000000E-03 0. -1.
         11   -1    0    0    0    0 -0.00000000000E+00 -0.00000000000E+00 -0.45593999997E+02  0.45594000000E+02  0.51100000000E-03 0.  1.
    9900012    2    1    2    0    0 -0.13584439885E+02  0.90131479903E+01  0.92143945119E+01  0.72461577226E+02  0.70000009030E+02 0.  0.
         12    1    1    2    0    0  0.13584439885E+02 -0.90131479903E+01 -0.92143945119E+01  0.18726422774E+02  0.00000000000E+00 0. -1.
         11    1    3    3    0    0 -0.22837957803E+01 -0.15489240058E+02  0.16911904232E+02  0.23046578613E+02  0.51100000000E-03 0. -1.
        -11    1    3    3    0    0 -0.19137201516E+02  0.30860288483E+02  0.65060705778E+00  0.36318221004E+02  0.51100000000E-03 0.  1.
        -12    1    3    3    0    0  0.78365574113E+01 -0.63579004344E+01 -0.83481167781E+01  0.13096777609E+02  0.00000000000E+00 0.  1.
</event>
<event>
 7    1  0.1333056E-013  0.7246156E+02  0.7816164E-02  0.1226708E+00
        -11   -1    0    0    0    0  0.00000000000E+00  0.00000000000E+00  0.45593999997E+02  0.45594000000E+02  0.51100000000E-03 0.  1.
         11   -1    0    0    0    0 -0.00000000000E+00 -0.00000000000E+00 -0.45593999997E+02  0.45594000000E+02  0.51100000000E-03 0. -1.
    9900012    2    1    2    0    0 -0.52624069421E+01 -0.76662368471E+01  0.16254707331E+02  0.72461558142E+02  0.69999984170E+02 0.  0.
         12    1    1    2    0    0  0.52624069421E+01  0.76662368471E+01 -0.16254707331E+02  0.18726441858E+02  0.00000000000E+00 0. -1.
         11    1    3    3    0    0  0.10754062456E+01 -0.26438826542E+01 -0.25718822434E+02  0.25876716208E+02  0.51100000000E-03 0. -1.
        -11    1    3    3    0    0 -0.11951568816E+02 -0.74226711948E+01  0.28005504392E+02  0.31340777293E+02  0.51100000000E-03 0.  1.
        -12    1    3    3    0    0  0.56137556287E+01  0.24003170019E+01  0.13968025373E+02  0.15244064641E+02  0.00000000000E+00 0.  1.
</event>
<event>
 7    1  0.1333056E-013  0.7246160E+02  0.7816164E-02  0.1226708E+00
        -11   -1    0    0    0    0  0.00000000000E+00  0.00000000000E+00  0.45593999997E+02  0.45594000000E+02  0.51100000000E-03 0. -1.
         11   -1    0    0    0    0 -0.00000000000E+00 -0.00000000000E+00 -0.45593999997E+02  0.45594000000E+02  0.51100000000E-03 0.  1.
    9900012    2    1    2    0    0 -0.11058282252E+02  0.10450291901E+01 -0.15076480218E+02  0.72461602906E+02  0.70000042482E+02 0.  0.
         12    1    1    2    0    0  0.11058282252E+02 -0.10450291901E+01  0.15076480218E+02  0.18726397094E+02  0.00000000000E+00 0. -1.
         11    1    3    3    0    0 -0.25969364734E+02  0.15913854096E+02 -0.37265029663E+01  0.30684613107E+02  0.51100000000E-03 0. -1.
        -11    1    3    3    0    0  0.21234165130E+02 -0.22062230661E+02 -0.89882437053E+01  0.31912698345E+02  0.51100000000E-03 0.  1.
        -12    1    3    3    0    0 -0.63230826479E+01  0.71934057555E+01 -0.23617335462E+01  0.98642914535E+01  0.00000000000E+00 0.  1.
</event>
<event>
 7    1  0.1333056E-013  0.7246158E+02  0.7816164E-02  0.1226708E+00
        -11   -1    0    0    0    0  0.00000000000E+00  0.00000000000E+00  0.45593999997E+02  0.45594000000E+02  0.51100000000E-03 0. -1.
         11   -1    0    0    0    0 -0.00000000000E+00 -0.00000000000E+00 -0.45593999997E+02  0.45594000000E+02  0.51100000000E-03 0.  1.
    9900012    2    1    2    0    0 -0.13601876561E+02  0.11985245128E+02 -0.46927342539E+01  0.72461577450E+02  0.70000009322E+02 0.  0.
         12    1    1    2    0    0  0.13601876561E+02 -0.11985245128E+02  0.46927342539E+01  0.18726422550E+02  0.00000000000E+00 0. -1.
         11    1    3    3    0    0 -0.27244361015E+02 -0.56232038448E+01 -0.26426165967E+01  0.27943855341E+02  0.51100000000E-03 0. -1.
        -11    1    3    3    0    0  0.81006035827E+01  0.27605801058E+02  0.73777553497E+01  0.29700695358E+02  0.51100000000E-03 0.  1.
        -12    1    3    3    0    0  0.55418808715E+01 -0.99973520854E+01 -0.94278730069E+01  0.14817026751E+02  0.00000000000E+00 0.  1.
</event>
<event>
 7    1  0.1333056E-013  0.7246159E+02  0.7816164E-02  0.1226708E+00
        -11   -1    0    0    0    0  0.00000000000E+00  0.00000000000E+00  0.45593999997E+02  0.45594000000E+02  0.51100000000E-03 0. -1.
         11   -1    0    0    0    0 -0.00000000000E+00 -0.00000000000E+00 -0.45593999997E+02  0.45594000000E+02  0.51100000000E-03 0.  1.
    9900012    2    1    2    0    0 -0.31362534606E+01  0.17771914323E+02  0.50001339549E+01  0.72461591801E+02  0.70000028016E+02 0.  0.
         12    1    1    2    0    0  0.31362534606E+01 -0.17771914323E+02 -0.50001339549E+01  0.18726408199E+02  0.00000000000E+00 0. -1.
         11    1    3    3    0    0 -0.61351131374E+01 -0.12577619078E+02  0.59419691088E+00  0.14006754981E+02  0.51100000000E-03 0. -1.
        -11    1    3    3    0    0  0.16515385471E+02  0.15046125040E+02 -0.17595862917E+02  0.28438674864E+02  0.51100000000E-03 0.  1.
        -12    1    3    3    0    0 -0.13516525794E+02  0.15303408361E+02  0.22001799961E+02  0.30016161956E+02  0.00000000000E+00 0.  1.
</event>
<event>
 7    1  0.1333056E-013  0.7246162E+02  0.7816164E-02  0.1226708E+00
        -11   -1    0    0    0    0  0.00000000000E+00  0.00000000000E+00  0.45593999997E+02  0.45594000000E+02  0.51100000000E-03 0.  1.
         11   -1    0    0    0    0 -0.00000000000E+00 -0.00000000000E+00 -0.45593999997E+02  0.45594000000E+02  0.51100000000E-03 0. -1.
    9900012    2    1    2    0    0  0.14759280752E+02 -0.69742600829E+01  0.91760942019E+01  0.72461618160E+02  0.70000062354E+02 0.  0.
         12    1    1    2    0    0 -0.14759280752E+02  0.69742600829E+01 -0.91760942019E+01  0.18726381840E+02  0.00000000000E+00 0. -1.
         11    1    3    3    0    0 -0.17366874259E+00  0.24019853156E+02 -0.61410362029E+01  0.24793060165E+02  0.51100000000E-03 0. -1.
        -11    1    3    3    0    0  0.35532764330E+01 -0.33171664200E+01  0.17014607991E+02  0.17695373741E+02  0.51100000000E-03 0.  1.
         12    1    3    3    0    0  0.11379673061E+02 -0.27676946819E+02 -0.16974775862E+01  0.29973184254E+02  0.00000000000E+00 0. -1.
</event>
<event>
 7    1  0.1333056E-013  0.7246164E+02  0.7816164E-02  0.1226708E+00
        -11   -1    0    0    0    0  0.00000000000E+00  0.00000000000E+00  0.45593999997E+02  0.45594000000E+02  0.51100000000E-03 0.  1.
         11   -1    0    0    0    0 -0.00000000000E+00 -0.00000000000E+00 -0.45593999997E+02  0.45594000000E+02  0.51100000000E-03 0. -1.
    9900012    2    1    2    0    0  0.15148402544E+01  0.95104213405E+01  0.16060317214E+02  0.72461637724E+02  0.70000087839E+02 0.  0.
         12    1    1    2    0    0 -0.15148402544E+01 -0.95104213405E+01 -0.16060317214E+02  0.18726362276E+02  0.00000000000E+00 0. -1.
         11    1    3    3    0    0  0.20651310603E+02  0.63139412222E+01  0.27836211133E+02  0.35230627782E+02  0.51100000000E-03 0.  1.
        -11    1    3    3    0    0 -0.12696011362E+02 -0.54694023640E+00 -0.21504071394E+02  0.24978249236E+02  0.51100000000E-03 0. -1.
        -12    1    3    3    0    0 -0.64404589869E+01  0.37434203546E+01  0.97281774754E+01  0.12252760705E+02  0.00000000000E+00 0.  1.
</event>
<event>
 7    1  0.1333056E-013  0.7246158E+02  0.7816164E-02  0.1226708E+00
        -11   -1    0    0    0    0  0.00000000000E+00  0.00000000000E+00  0.45593999997E+02  0.45594000000E+02  0.51100000000E-03 0. -1.
         11   -1    0    0    0    0 -0.00000000000E+00 -0.00000000000E+00 -0.45593999997E+02  0.45594000000E+02  0.51100000000E-03 0.  1.
    9900012    2    1    2    0    0 -0.11726169041E+02 -0.11644720169E+02 -0.88077305572E+01  0.72461583745E+02  0.70000017522E+02 0.  0.
         12    1    1    2    0    0  0.11726169041E+02  0.11644720169E+02  0.88077305572E+01  0.18726416255E+02  0.00000000000E+00 0. -1.
         11    1    3    3    0    0 -0.59899281392E+01 -0.32408502356E+02 -0.43435903977E+01  0.33242398257E+02  0.51100000000E-03 0. -1.
        -11    1    3    3    0    0 -0.16534938164E+02  0.18557800527E+02  0.41896156476E+01  0.25206130603E+02  0.51100000000E-03 0.  1.
        -12    1    3    3    0    0  0.10798697262E+02  0.22059816602E+01 -0.86537558072E+01  0.14013054885E+02  0.00000000000E+00 0.  1.
</event>
<event>
 7    1  0.1333056E-013  0.7246162E+02  0.7816164E-02  0.1226708E+00
        -11   -1    0    0    0    0  0.00000000000E+00  0.00000000000E+00  0.45593999997E+02  0.45594000000E+02  0.51100000000E-03 0.  1.
         11   -1    0    0    0    0 -0.00000000000E+00 -0.00000000000E+00 -0.45593999997E+02  0.45594000000E+02  0.51100000000E-03 0. -1.
    9900012    2    1    2    0    0  0.15208500725E+02 -0.10154890447E+02 -0.40320215042E+01  0.72461615093E+02  0.70000058358E+02 0.  0.
         12    1    1    2    0    0 -0.15208500725E+02  0.10154890447E+02  0.40320215042E+01  0.18726384907E+02  0.00000000000E+00 0. -1.
         11    1    3    3    0    0 -0.53168833204E+01  0.20303461007E+01 -0.31128998301E+02  0.31645001012E+02  0.51100000000E-03 0. -1.
        -11    1    3    3    0    0  0.62144739544E+01 -0.30739626649E+01 -0.19288105960E+01  0.71964743849E+01  0.51100000000E-03 0.  1.
         12    1    3    3    0    0  0.14310910091E+02 -0.91112738828E+01  0.29025787393E+02  0.33620139696E+02  0.00000000000E+00 0. -1.
</event>
<event>
 7    1  0.1333056E-013  0.7246156E+02  0.7816164E-02  0.1226708E+00
        -11   -1    0    0    0    0  0.00000000000E+00  0.00000000000E+00  0.45593999997E+02  0.45594000000E+02  0.51100000000E-03 0.  1.
         11   -1    0    0    0    0 -0.00000000000E+00 -0.00000000000E+00 -0.45593999997E+02  0.45594000000E+02  0.51100000000E-03 0. -1.
    9900012    2    1    2    0    0 -0.17150403220E+02  0.59021234081E+01 -0.46591945781E+01  0.72461561859E+02  0.69999989011E+02 0.  0.
         12    1    1    2    0    0  0.17150403220E+02 -0.59021234081E+01  0.46591945781E+01  0.18726438141E+02  0.00000000000E+00 0. -1.
         11    1    3    3    0    0  0.18048542785E+02 -0.48613425240E-01 -0.15046366405E+02  0.23497774409E+02  0.51100000000E-03 0. -1.
        -11    1    3    3    0    0 -0.21342806659E+02  0.18923664067E+02  0.90934489911E+01  0.29938458086E+02  0.51100000000E-03 0.  1.
         12    1    3    3    0    0 -0.13856139347E+02 -0.12972927233E+02  0.12937228356E+01  0.19025329363E+02  0.00000000000E+00 0. -1.
</event>
<event>
 7    1  0.1333056E-013  0.7246139E+02  0.7816164E-02  0.1226708E+00
        -11   -1    0    0    0    0  0.00000000000E+00  0.00000000000E+00  0.45593999997E+02  0.45594000000E+02  0.51100000000E-03 0. -1.
         11   -1    0    0    0    0 -0.00000000000E+00 -0.00000000000E+00 -0.45593999997E+02  0.45594000000E+02  0.51100000000E-03 0.  1.
    9900012    2    1    2    0    0  0.10322789292E+02  0.77175471091E+01 -0.13585483811E+02  0.72461391056E+02  0.69999766509E+02 0.  0.
         12    1    1    2    0    0 -0.10322789292E+02 -0.77175471091E+01  0.13585483811E+02  0.18726608944E+02  0.00000000000E+00 0. -1.
         11    1    3    3    0    0 -0.28440304083E+01 -0.16204403688E+02  0.18147619346E+02  0.24495046357E+02  0.51100000000E-03 0. -1.
        -11    1    3    3    0    0  0.32737365992E+01 -0.21163985284E+01 -0.14942465203E+02  0.15442595658E+02  0.51100000000E-03 0.  1.
         12    1    3    3    0    0  0.98930831011E+01  0.26038349325E+02 -0.16790637954E+02  0.32523749042E+02  0.00000000000E+00 0. -1.
</event>
<event>
 7    1  0.1333056E-013  0.7246120E+02  0.7816164E-02  0.1226709E+00
        -11   -1    0    0    0    0  0.00000000000E+00  0.00000000000E+00  0.45593999997E+02  0.45594000000E+02  0.51100000000E-03 0.  1.
         11   -1    0    0    0    0 -0.00000000000E+00 -0.00000000000E+00 -0.45593999997E+02  0.45594000000E+02  0.51100000000E-03 0. -1.
    9900012    2    1    2    0    0  0.89632776670E+01 -0.16135116519E+02 -0.31639492515E+01  0.72461203517E+02  0.69999522203E+02 0.  0.
         12    1    1    2    0    0 -0.89632776670E+01  0.16135116519E+02  0.31639492515E+01  0.18726796483E+02  0.00000000000E+00 0. -1.
         11    1    3    3    0    0 -0.10298483154E+02 -0.23342589090E+02  0.40711241492E+01  0.25836200820E+02  0.51100000000E-03 0.  1.
        -11    1    3    3    0    0 -0.35558184834E+01  0.19537409743E+02 -0.56229270214E+01  0.20639077816E+02  0.51100000000E-03 0. -1.
         12    1    3    3    0    0  0.22817579305E+02 -0.12329937172E+02 -0.16121463793E+01  0.25985924881E+02  0.00000000000E+00 0. -1.
</event>
<event>
 7    1  0.1333056E-013  0.7246151E+02  0.7816164E-02  0.1226708E+00
        -11   -1    0    0    0    0  0.00000000000E+00  0.00000000000E+00  0.45593999997E+02  0.45594000000E+02  0.51100000000E-03 0.  1.
         11   -1    0    0    0    0 -0.00000000000E+00 -0.00000000000E+00 -0.45593999997E+02  0.45594000000E+02  0.51100000000E-03 0. -1.
    9900012    2    1    2    0    0 -0.57234488225E+01 -0.15717013142E+02  0.84201628837E+01  0.72461507763E+02  0.69999918541E+02 0.  0.
         12    1    1    2    0    0  0.57234488225E+01  0.15717013142E+02 -0.84201628837E+01  0.18726492237E+02  0.00000000000E+00 0. -1.
         11    1    3    3    0    0 -0.52012857991E+01 -0.19417770866E+02  0.15906413721E+02  0.25634297281E+02  0.51100000000E-03 0.  1.
        -11    1    3    3    0    0  0.22238532182E+02 -0.12477119765E+01 -0.76002866969E+01  0.23534516289E+02  0.51100000000E-03 0. -1.
        -12    1    3    3    0    0 -0.22760695206E+02  0.49484697007E+01  0.11403585997E+00  0.23292694194E+02  0.00000000000E+00 0.  1.
</event>
<event>
 7    1  0.1333056E-013  0.7246154E+02  0.7816164E-02  0.1226708E+00
        -11   -1    0    0    0    0  0.00000000000E+00  0.00000000000E+00  0.45593999997E+02  0.45594000000E+02  0.51100000000E-03 0.  1.
         11   -1    0    0    0    0 -0.00000000000E+00 -0.00000000000E+00 -0.45593999997E+02  0.45594000000E+02  0.51100000000E-03 0. -1.
    9900012    2    1    2    0    0 -0.20103224983E+01  0.53040122185E+01  0.17846745778E+02  0.72461540724E+02  0.69999961479E+02 0.  0.
         12    1    1    2    0    0  0.20103224983E+01 -0.53040122185E+01 -0.17846745778E+02  0.18726459276E+02  0.00000000000E+00 0. -1.
         11    1    3    3    0    0 -0.13747187935E+02 -0.30560972161E+01  0.57818351104E+01  0.15223485929E+02  0.51100000000E-03 0. -1.
        -11    1    3    3    0    0  0.23372795807E+02  0.27652693979E+01 -0.14540640002E+02  0.27665222042E+02  0.51100000000E-03 0.  1.
        -12    1    3    3    0    0 -0.11635930370E+02  0.55948400367E+01  0.26605550669E+02  0.29572832753E+02  0.00000000000E+00 0.  1.
</event>
<event>
 7    1  0.1333056E-013  0.7246140E+02  0.7816164E-02  0.1226708E+00
        -11   -1    0    0    0    0  0.00000000000E+00  0.00000000000E+00  0.45593999997E+02  0.45594000000E+02  0.51100000000E-03 0.  1.
         11   -1    0    0    0    0 -0.00000000000E+00 -0.00000000000E+00 -0.45593999997E+02  0.45594000000E+02  0.51100000000E-03 0. -1.
    9900012    2    1    2    0    0 -0.80461325982E+01  0.80736789124E+01 -0.14858026965E+02  0.72461401103E+02  0.69999779596E+02 0.  0.
         12    1    1    2    0    0  0.80461325982E+01 -0.80736789124E+01  0.14858026965E+02  0.18726598897E+02  0.00000000000E+00 0. -1.
         11    1    3    3    0    0 -0.24658465892E+02  0.19107557106E+02 -0.30178870608E+01  0.31340809199E+02  0.51100000000E-03 0.  1.
        -11    1    3    3    0    0  0.13818423293E+02 -0.17514625423E+02 -0.20258772050E+02  0.30135174982E+02  0.51100000000E-03 0. -1.
        -12    1    3    3    0    0  0.27939100001E+01  0.64807472288E+01  0.84186321454E+01  0.10985416921E+02  0.00000000000E+00 0.  1.
</event>
<event>
 7    1  0.1333056E-013  0.7246152E+02  0.7816164E-02  0.1226708E+00
        -11   -1    0    0    0    0  0.00000000000E+00  0.00000000000E+00  0.45593999997E+02  0.45594000000E+02  0.51100000000E-03 0. -1.
         11   -1    0    0    0    0 -0.00000000000E+00 -0.00000000000E+00 -0.45593999997E+02  0.45594000000E+02  0.51100000000E-03 0.  1.
    9900012    2    1    2    0    0  0.92619142718E+01  0.13389186338E+02  0.92535272007E+01  0.72461517884E+02  0.69999931726E+02 0.  0.
         12    1    1    2    0    0 -0.92619142718E+01 -0.13389186338E+02 -0.92535272007E+01  0.18726482116E+02  0.00000000000E+00 0. -1.
         11    1    3    3    0    0 -0.30734739060E+01  0.21875061131E+02  0.21892229539E+02  0.31100389962E+02  0.51100000000E-03 0. -1.
        -11    1    3    3    0    0 -0.10426332127E+02  0.12084121574E+01 -0.12885927451E+02  0.16619740916E+02  0.51100000000E-03 0.  1.
         12    1    3    3    0    0  0.22761720305E+02 -0.96942869507E+01  0.24722511245E+00  0.24741387006E+02  0.00000000000E+00 0. -1.
</event>
<event>
 7    1  0.1333056E-013  0.7246193E+02  0.7816164E-02  0.1226707E+00
        -11   -1    0    0    0    0  0.00000000000E+00  0.00000000000E+00  0.45593999997E+02  0.45594000000E+02  0.51100000000E-03 0.  1.
         11   -1    0    0    0    0 -0.00000000000E+00 -0.00000000000E+00 -0.45593999997E+02  0.45594000000E+02  0.51100000000E-03 0. -1.
    9900012    2    1    2    0    0 -0.39025676949E+01 -0.48447330931E+01  0.17662504098E+02  0.72461934627E+02  0.70000474609E+02 0.  0.
         12    1    1    2    0    0  0.39025676949E+01  0.48447330931E+01 -0.17662504098E+02  0.18726065373E+02  0.00000000000E+00 0. -1.
         11    1    3    3    0    0 -0.50017803359E+01 -0.76755131366E+00 -0.74898990492E+01  0.90391111054E+01  0.51100000000E-03 0. -1.
        -11    1    3    3    0    0 -0.59297395534E+01 -0.17619499663E+02  0.38754149914E+02  0.42982469861E+02  0.51100000000E-03 0.  1.
        -12    1    3    3    0    0  0.70289521944E+01  0.13542317884E+02 -0.13601746767E+02  0.20440353660E+02  0.00000000000E+00 0.  1.
</event>
<event>
 7    1  0.1333056E-013  0.7246158E+02  0.7816164E-02  0.1226708E+00
        -11   -1    0    0    0    0  0.00000000000E+00  0.00000000000E+00  0.45593999997E+02  0.45594000000E+02  0.51100000000E-03 0.  1.
         11   -1    0    0    0    0 -0.00000000000E+00 -0.00000000000E+00 -0.45593999997E+02  0.45594000000E+02  0.51100000000E-03 0. -1.
    9900012    2    1    2    0    0  0.45986354972E+01 -0.39400178105E+01  0.17720257930E+02  0.72461582032E+02  0.70000015291E+02 0.  0.
         12    1    1    2    0    0 -0.45986354972E+01  0.39400178105E+01 -0.17720257930E+02  0.18726417968E+02  0.00000000000E+00 0. -1.
         11    1    3    3    0    0 -0.85615877838E+01  0.22201301865E+02  0.75264803613E+01  0.24956892771E+02  0.51100000000E-03 0. -1.
        -11    1    3    3    0    0  0.16866033034E+02 -0.13817066980E+02  0.21318527483E+02  0.30493507908E+02  0.51100000000E-03 0.  1.
         12    1    3    3    0    0 -0.37058097527E+01 -0.12324252695E+02 -0.11124749914E+02  0.17011181354E+02  0.00000000000E+00 0. -1.
</event>
<event>
 7    1  0.1333056E-013  0.7246160E+02  0.7816164E-02  0.1226708E+00
        -11   -1    0    0    0    0  0.00000000000E+00  0.00000000000E+00  0.45593999997E+02  0.45594000000E+02  0.51100000000E-03 0.  1.
         11   -1    0    0    0    0 -0.00000000000E+00 -0.00000000000E+00 -0.45593999997E+02  0.45594000000E+02  0.51100000000E-03 0. -1.
    9900012    2    1    2    0    0 -0.11388666993E+02 -0.14848445256E+02  0.70715757891E+00  0.72461597936E+02  0.70000036009E+02 0.  0.
         12    1    1    2    0    0  0.11388666993E+02  0.14848445256E+02 -0.70715757891E+00  0.18726402064E+02  0.00000000000E+00 0. -1.
         11    1    3    3    0    0  0.27022107274E+02 -0.14300603958E+02 -0.15672187676E+01  0.30613032029E+02  0.51100000000E-03 0.  1.
        -11    1    3    3    0    0 -0.37305343898E+02  0.11227339233E+00 -0.20251075485E+01  0.37360438294E+02  0.51100000000E-03 0. -1.
         12    1    3    3    0    0 -0.11054303694E+01 -0.66011469078E+00  0.42994838951E+01  0.44881276130E+01  0.00000000000E+00 0. -1.
</event>
<event>
 7    1  0.1333056E-013  0.7246160E+02  0.7816164E-02  0.1226708E+00
        -11   -1    0    0    0    0  0.00000000000E+00  0.00000000000E+00  0.45593999997E+02  0.45594000000E+02  0.51100000000E-03 0. -1.
         11   -1    0    0    0    0 -0.00000000000E+00 -0.00000000000E+00 -0.45593999997E+02  0.45594000000E+02  0.51100000000E-03 0.  1.
    9900012    2    1    2    0    0  0.16597996994E+02 -0.44802866443E+01 -0.74237079295E+01  0.72461603869E+02  0.70000043738E+02 0.  0.
         12    1    1    2    0    0 -0.16597996994E+02  0.44802866443E+01  0.74237079295E+01  0.18726396131E+02  0.00000000000E+00 0. -1.
         11    1    3    3    0    0  0.53749333410E+01 -0.65317753493E+01 -0.11379962713E+02  0.14179476339E+02  0.51100000000E-03 0. -1.
        -11    1    3    3    0    0 -0.19889394551E+02 -0.86840197374E+00  0.15225474595E+02  0.25063064747E+02  0.51100000000E-03 0.  1.
        -12    1    3    3    0    0  0.31112458204E+02  0.29198906787E+01 -0.11269219811E+02  0.33219062784E+02  0.00000000000E+00 0.  1.
</event>
<event>
 7    1  0.1389235E-013  0.7246151E+02  0.7816164E-02  0.1226708E+00
        -11   -1    0    0    0    0  0.00000000000E+00  0.00000000000E+00  0.45593999997E+02  0.45594000000E+02  0.51100000000E-03 0.  1.
         11   -1    0    0    0    0 -0.00000000000E+00 -0.00000000000E+00 -0.45593999997E+02  0.45594000000E+02  0.51100000000E-03 0. -1.
    9900012    2    1    2    0    0  0.10514067528E+02 -0.15475577212E+02  0.80155523558E+00  0.72461505485E+02  0.69999915574E+02 0.  0.
         12    1    1    2    0    0 -0.10514067528E+02  0.15475577212E+02 -0.80155523558E+00  0.18726494515E+02  0.00000000000E+00 0. -1.
         11    1    3    3    0    0 -0.89135782461E+01 -0.21418501301E+02 -0.13576279275E+01  0.23238916261E+02  0.51100000000E-03 0. -1.
        -11    1    3    3    0    0 -0.49808812175E-02  0.17560337926E+02  0.15086865856E+02  0.23151220584E+02  0.51100000000E-03 0.  1.
        -12    1    3    3    0    0  0.19432626655E+02 -0.11617413836E+02 -0.12927682693E+02  0.26071368640E+02  0.00000000000E+00 0.  1.
</event>
<event>
 7    1  0.1333056E-013  0.7246158E+02  0.7816164E-02  0.1226708E+00
        -11   -1    0    0    0    0  0.00000000000E+00  0.00000000000E+00  0.45593999997E+02  0.45594000000E+02  0.51100000000E-03 0.  1.
         11   -1    0    0    0    0 -0.00000000000E+00 -0.00000000000E+00 -0.45593999997E+02  0.45594000000E+02  0.51100000000E-03 0. -1.
    9900012    2    1    2    0    0 -0.56543087305E+01 -0.16409307412E+02  0.70315098160E+01  0.72461582637E+02  0.70000016079E+02 0.  0.
         12    1    1    2    0    0  0.56543087305E+01  0.16409307412E+02 -0.70315098160E+01  0.18726417363E+02  0.00000000000E+00 0. -1.
         11    1    3    3    0    0  0.54981373249E+01  0.97284531698E+01 -0.78247066389E+01  0.13641786883E+02  0.51100000000E-03 0. -1.
        -11    1    3    3    0    0 -0.22415147907E+02 -0.30389400424E+02 -0.23334711489E+01  0.37833842016E+02  0.51100000000E-03 0.  1.
        -12    1    3    3    0    0  0.11262701852E+02  0.42516398427E+01  0.17189687604E+02  0.20985953738E+02  0.00000000000E+00 0.  1.
</event>
<event>
 7    1  0.1333056E-013  0.7246157E+02  0.7816164E-02  0.1226708E+00
        -11   -1    0    0    0    0  0.00000000000E+00  0.00000000000E+00  0.45593999997E+02  0.45594000000E+02  0.51100000000E-03 0.  1.
         11   -1    0    0    0    0 -0.00000000000E+00 -0.00000000000E+00 -0.45593999997E+02  0.45594000000E+02  0.51100000000E-03 0. -1.
    9900012    2    1    2    0    0  0.16365152615E+02 -0.66651296481E+01  0.61997655084E+01  0.72461567726E+02  0.69999996655E+02 0.  0.
         12    1    1    2    0    0 -0.16365152615E+02  0.66651296481E+01 -0.61997655084E+01  0.18726432274E+02  0.00000000000E+00 0. -1.
         11    1    3    3    0    0 -0.19309190485E+02 -0.16299523767E+02 -0.91963033327E+01  0.26890357147E+02  0.51100000000E-03 0. -1.
        -11    1    3    3    0    0  0.17070777826E+02  0.14287120710E+02  0.23644586246E+01  0.22385797699E+02  0.51100000000E-03 0.  1.
        -12    1    3    3    0    0  0.18603565274E+02 -0.46527265907E+01  0.13031610217E+02  0.23185412881E+02  0.00000000000E+00 0.  1.
</event>
<event>
 7    1  0.1333056E-013  0.7246161E+02  0.7816164E-02  0.1226708E+00
        -11   -1    0    0    0    0  0.00000000000E+00  0.00000000000E+00  0.45593999997E+02  0.45594000000E+02  0.51100000000E-03 0.  1.
         11   -1    0    0    0    0 -0.00000000000E+00 -0.00000000000E+00 -0.45593999997E+02  0.45594000000E+02  0.51100000000E-03 0. -1.
    9900012    2    1    2    0    0  0.14238076321E+02 -0.31881142457E+01  0.11738435217E+02  0.72461608166E+02  0.70000049335E+02 0.  0.
         12    1    1    2    0    0 -0.14238076321E+02  0.31881142457E+01 -0.11738435217E+02  0.18726391834E+02  0.00000000000E+00 0. -1.
         11    1    3    3    0    0  0.32954621481E+02 -0.25072256605E+01 -0.40939202297E+01  0.33302453972E+02  0.51100000000E-03 0.  1.
        -11    1    3    3    0    0 -0.27192790430E+02 -0.17732518177E+01  0.12591464424E+02  0.30018948182E+02  0.51100000000E-03 0. -1.
         12    1    3    3    0    0  0.84762452703E+01  0.10923632325E+01  0.32408910232E+01  0.91402060118E+01  0.00000000000E+00 0. -1.
</event>
<event>
 7    1  0.1333056E-013  0.7246158E+02  0.7816164E-02  0.1226708E+00
        -11   -1    0    0    0    0  0.00000000000E+00  0.00000000000E+00  0.45593999997E+02  0.45594000000E+02  0.51100000000E-03 0. -1.
         11   -1    0    0    0    0 -0.00000000000E+00 -0.00000000000E+00 -0.45593999997E+02  0.45594000000E+02  0.51100000000E-03 0.  1.
    9900012    2    1    2    0    0 -0.14788666143E+02  0.15492526445E+01 -0.11383058517E+02  0.72461578793E+02  0.70000011071E+02 0.  0.
         12    1    1    2    0    0  0.14788666143E+02 -0.15492526445E+01  0.11383058517E+02  0.18726421207E+02  0.00000000000E+00 0. -1.
         11    1    3    3    0    0 -0.51550960788E+01  0.14283488964E+02  0.45975447935E+01  0.15866016859E+02  0.51100000000E-03 0. -1.
        -11    1    3    3    0    0  0.19610338896E+02 -0.44626819849E+01  0.36158592249E+01  0.20434171388E+02  0.51100000000E-03 0.  1.
        -12    1    3    3    0    0 -0.29243908959E+02 -0.82715543347E+01 -0.19596462535E+02  0.36161390546E+02  0.00000000000E+00 0.  1.
</event>
<event>
 7    1  0.1333056E-013  0.7246124E+02  0.7816164E-02  0.1226709E+00
        -11   -1    0    0    0    0  0.00000000000E+00  0.00000000000E+00  0.45593999997E+02  0.45594000000E+02  0.51100000000E-03 0.  1.
         11   -1    0    0    0    0 -0.00000000000E+00 -0.00000000000E+00 -0.45593999997E+02  0.45594000000E+02  0.51100000000E-03 0. -1.
    9900012    2    1    2    0    0 -0.14666008014E+01  0.66821919372E+01  0.17432406949E+02  0.72461243233E+02  0.69999573940E+02 0.  0.
         12    1    1    2    0    0  0.14666008014E+01 -0.66821919372E+01 -0.17432406949E+02  0.18726756767E+02  0.00000000000E+00 0. -1.
         11    1    3    3    0    0  0.14215841468E+02 -0.37687479829E+01  0.20441970102E+02  0.25182687543E+02  0.51100000000E-03 0. -1.
        -11    1    3    3    0    0 -0.29551033936E+02 -0.40454736644E+00 -0.12724526319E+01  0.29581183229E+02  0.51100000000E-03 0.  1.
        -12    1    3    3    0    0  0.13868591667E+02  0.10855487287E+02 -0.17371105213E+01  0.17697372461E+02  0.00000000000E+00 0.  1.
</event>
<event>
 7    1  0.1333056E-013  0.7246171E+02  0.7816164E-02  0.1226708E+00
        -11   -1    0    0    0    0  0.00000000000E+00  0.00000000000E+00  0.45593999997E+02  0.45594000000E+02  0.51100000000E-03 0.  1.
         11   -1    0    0    0    0 -0.00000000000E+00 -0.00000000000E+00 -0.45593999997E+02  0.45594000000E+02  0.51100000000E-03 0. -1.
    9900012    2    1    2    0    0 -0.95515947224E+00  0.59311283696E+01  0.17736500724E+02  0.72461706419E+02  0.70000177327E+02 0.  0.
         12    1    1    2    0    0  0.95515947224E+00 -0.59311283696E+01 -0.17736500724E+02  0.18726293581E+02  0.00000000000E+00 0. -1.
         11    1    3    3    0    0 -0.64498539778E+01  0.18113150424E+02 -0.98125781852E+01  0.21586419933E+02  0.51100000000E-03 0. -1.
        -11    1    3    3    0    0  0.33426417831E+01 -0.26484546240E+02  0.10934884117E+02  0.28847463225E+02  0.51100000000E-03 0.  1.
        -12    1    3    3    0    0  0.21520527225E+01  0.14302524186E+02  0.16614194793E+02  0.22027823261E+02  0.00000000000E+00 0.  1.
</event>
<event>
 7    1  0.1333056E-013  0.7246154E+02  0.7816164E-02  0.1226708E+00
        -11   -1    0    0    0    0  0.00000000000E+00  0.00000000000E+00  0.45593999997E+02  0.45594000000E+02  0.51100000000E-03 0.  1.
         11   -1    0    0    0    0 -0.00000000000E+00 -0.00000000000E+00 -0.45593999997E+02  0.45594000000E+02  0.51100000000E-03 0. -1.
    9900012    2    1    2    0    0  0.18355799799E+02 -0.84747741742E+00 -0.36092760982E+01  0.72461535352E+02  0.69999954482E+02 0.  0.
         12    1    1    2    0    0 -0.18355799799E+02  0.84747741742E+00  0.36092760982E+01  0.18726464648E+02  0.00000000000E+00 0. -1.
         11    1    3    3    0    0  0.34869461220E+02 -0.39585527949E+01 -0.18057203387E+02  0.39466594234E+02  0.51100000000E-03 0.  1.
        -11    1    3    3    0    0 -0.13378968575E+02  0.12708612042E+02  0.13480241528E+02  0.22852188781E+02  0.51100000000E-03 0. -1.
        -12    1    3    3    0    0 -0.31346928454E+01 -0.95975366640E+01  0.96768576094E+00  0.10142752338E+02  0.00000000000E+00 0.  1.
</event>
<event>
 7    1  0.1333056E-013  0.7246159E+02  0.7816164E-02  0.1226708E+00
        -11   -1    0    0    0    0  0.00000000000E+00  0.00000000000E+00  0.45593999997E+02  0.45594000000E+02  0.51100000000E-03 0.  1.
         11   -1    0    0    0    0 -0.00000000000E+00 -0.00000000000E+00 -0.45593999997E+02  0.45594000000E+02  0.51100000000E-03 0. -1.
    9900012    2    1    2    0    0  0.59248270009E+01 -0.15694979666E+02  0.83212086585E+01  0.72461588832E+02  0.70000024149E+02 0.  0.
         12    1    1    2    0    0 -0.59248270009E+01  0.15694979666E+02 -0.83212086585E+01  0.18726411168E+02  0.00000000000E+00 0. -1.
         11    1    3    3    0    0  0.16054738496E+02  0.10168886517E+02  0.62947674287E+01  0.20019614842E+02  0.51100000000E-03 0. -1.
        -11    1    3    3    0    0  0.18327193511E+01 -0.35616234880E+02  0.67597223507E+01  0.36298331832E+02  0.51100000000E-03 0.  1.
        -12    1    3    3    0    0 -0.11962630846E+02  0.97523686974E+01 -0.47332811209E+01  0.16143642158E+02  0.00000000000E+00 0.  1.
</event>
<event>
 7    1  0.1333056E-013  0.7246159E+02  0.7816164E-02  0.1226708E+00
        -11   -1    0    0    0    0  0.00000000000E+00  0.00000000000E+00  0.45593999997E+02  0.45594000000E+02  0.51100000000E-03 0.  1.
         11   -1    0    0    0    0 -0.00000000000E+00 -0.00000000000E+00 -0.45593999997E+02  0.45594000000E+02  0.51100000000E-03 0. -1.
    9900012    2    1    2    0    0  0.12313481809E+02 -0.57074908926E+01  0.12902752064E+02  0.72461593581E+02  0.70000030335E+02 0.  0.
         12    1    1    2    0    0 -0.12313481809E+02  0.57074908926E+01 -0.12902752064E+02  0.18726406419E+02  0.00000000000E+00 0. -1.
         11    1    3    3    0    0 -0.12360519596E+02 -0.31119770449E+01 -0.17966073750E+02  0.22028314780E+02  0.51100000000E-03 0. -1.
        -11    1    3    3    0    0  0.15379216286E+02 -0.15275381750E+02  0.26258625114E+02  0.34049566433E+02  0.51100000000E-03 0.  1.
         12    1    3    3    0    0  0.92947851191E+01  0.12679867903E+02  0.46102007006E+01  0.16383712367E+02  0.00000000000E+00 0. -1.
</event>
<event>
 7    1  0.1369727E-013  0.7246156E+02  0.7816164E-02  0.1226708E+00
        -11   -1    0    0    0    0  0.00000000000E+00  0.00000000000E+00  0.45593999997E+02  0.45594000000E+02  0.51100000000E-03 0. -1.
         11   -1    0    0    0    0 -0.00000000000E+00 -0.00000000000E+00 -0.45593999997E+02  0.45594000000E+02  0.51100000000E-03 0.  1.
    9900012    2    1    2    0    0  0.33867435834E+01 -0.10792350236E+02 -0.14924304057E+02  0.72461555936E+02  0.69999981295E+02 0.  0.
         12    1    1    2    0    0 -0.33867435834E+01  0.10792350236E+02  0.14924304057E+02  0.18726444064E+02  0.00000000000E+00 0. -1.
         11    1    3    3    0    0 -0.10126646805E+02 -0.63818116043E+01  0.10437322396E+02  0.15881252908E+02  0.51100000000E-03 0. -1.
        -11    1    3    3    0    0  0.31534073900E+02 -0.57225926295E+01 -0.12494304233E+02  0.34398452315E+02  0.51100000000E-03 0.  1.
        -12    1    3    3    0    0 -0.18020683512E+02  0.13120539981E+01 -0.12867322220E+02  0.22181850713E+02  0.00000000000E+00 0.  1.
</event>
<event>
 7    1  0.1333056E-013  0.7246158E+02  0.7816164E-02  0.1226708E+00
        -11   -1    0    0    0    0  0.00000000000E+00  0.00000000000E+00  0.45593999997E+02  0.45594000000E+02  0.51100000000E-03 0.  1.
         11   -1    0    0    0    0 -0.00000000000E+00 -0.00000000000E+00 -0.45593999997E+02  0.45594000000E+02  0.51100000000E-03 0. -1.
    9900012    2    1    2    0    0 -0.68024473035E+01 -0.92697080542E+01  0.14781006902E+02  0.72461576375E+02  0.70000007922E+02 0.  0.
         12    1    1    2    0    0  0.68024473035E+01  0.92697080542E+01 -0.14781006902E+02  0.18726423625E+02  0.00000000000E+00 0. -1.
         11    1    3    3    0    0  0.12584291703E+02 -0.28258290171E+02 -0.60779409083E+01  0.31525176082E+02  0.51100000000E-03 0. -1.
        -11    1    3    3    0    0 -0.24375076183E+02  0.15768632305E+02  0.15360562337E+02  0.32844192474E+02  0.51100000000E-03 0.  1.
         12    1    3    3    0    0  0.49883371765E+01  0.32199498122E+01  0.54983854733E+01  0.80922078194E+01  0.00000000000E+00 0. -1.
</event>
<event>
 7    1  0.1333056E-013  0.7246155E+02  0.7816164E-02  0.1226708E+00
        -11   -1    0    0    0    0  0.00000000000E+00  0.00000000000E+00  0.45593999997E+02  0.45594000000E+02  0.51100000000E-03 0. -1.
         11   -1    0    0    0    0 -0.00000000000E+00 -0.00000000000E+00 -0.45593999997E+02  0.45594000000E+02  0.51100000000E-03 0.  1.
    9900012    2    1    2    0    0  0.13948000188E+02 -0.10610844242E+02  0.65987387350E+01  0.72461546047E+02  0.69999968413E+02 0.  0.
         12    1    1    2    0    0 -0.13948000188E+02  0.10610844242E+02 -0.65987387350E+01  0.18726453953E+02  0.00000000000E+00 0. -1.
         11    1    3    3    0    0  0.25335586656E+01  0.24345395554E+02  0.11968808428E+01  0.24506116139E+02  0.51100000000E-03 0. -1.
        -11    1    3    3    0    0 -0.57258231478E+01 -0.18977273778E+02 -0.75137903709E+01  0.21198561667E+02  0.51100000000E-03 0.  1.
         12    1    3    3    0    0  0.17140264670E+02 -0.15978966019E+02  0.12915648263E+02  0.26756868241E+02  0.00000000000E+00 0. -1.
</event>
<event>
 7    1  0.1333056E-013  0.7246157E+02  0.7816164E-02  0.1226708E+00
        -11   -1    0    0    0    0  0.00000000000E+00  0.00000000000E+00  0.45593999997E+02  0.45594000000E+02  0.51100000000E-03 0. -1.
         11   -1    0    0    0    0 -0.00000000000E+00 -0.00000000000E+00 -0.45593999997E+02  0.45594000000E+02  0.51100000000E-03 0.  1.
    9900012    2    1    2    0    0  0.11574772786E+02  0.14162077795E+02  0.40173862344E+01  0.72461569356E+02  0.69999998777E+02 0.  0.
         12    1    1    2    0    0 -0.11574772786E+02 -0.14162077795E+02 -0.40173862344E+01  0.18726430644E+02  0.00000000000E+00 0. -1.
         11    1    3    3    0    0 -0.10868817055E+02 -0.79858114549E+01 -0.52383166179E+01  0.14468736297E+02  0.51100000000E-03 0. -1.
        -11    1    3    3    0    0  0.35141375739E+02  0.19970461533E+02  0.15976006210E+02  0.43462264062E+02  0.51100000000E-03 0.  1.
        -12    1    3    3    0    0 -0.12697785897E+02  0.21774277170E+01 -0.67203033578E+01  0.14530568997E+02  0.00000000000E+00 0.  1.
</event>
<event>
 7    1  0.1333056E-013  0.7246148E+02  0.7816164E-02  0.1226708E+00
        -11   -1    0    0    0    0  0.00000000000E+00  0.00000000000E+00  0.45593999997E+02  0.45594000000E+02  0.51100000000E-03 0. -1.
         11   -1    0    0    0    0 -0.00000000000E+00 -0.00000000000E+00 -0.45593999997E+02  0.45594000000E+02  0.51100000000E-03 0.  1.
    9900012    2    1    2    0    0 -0.96288510730E+01  0.13117296659E+02 -0.92684494535E+01  0.72461484043E+02  0.69999887642E+02 0.  0.
         12    1    1    2    0    0  0.96288510730E+01 -0.13117296659E+02  0.92684494535E+01  0.18726515957E+02  0.00000000000E+00 0. -1.
         11    1    3    3    0    0 -0.43162059294E+01  0.22162641194E+02  0.15418800044E+02  0.27341391577E+02  0.51100000000E-03 0. -1.
        -11    1    3    3    0    0 -0.16310983548E+02 -0.15642181720E+02 -0.22895792609E+02  0.32170535474E+02  0.51100000000E-03 0.  1.
         12    1    3    3    0    0  0.10998338404E+02  0.65968371842E+01 -0.17914568881E+01  0.12949556991E+02  0.00000000000E+00 0. -1.
</event>
<event>
 7    1  0.1333056E-013  0.7246154E+02  0.7816164E-02  0.1226708E+00
        -11   -1    0    0    0    0  0.00000000000E+00  0.00000000000E+00  0.45593999997E+02  0.45594000000E+02  0.51100000000E-03 0. -1.
         11   -1    0    0    0    0 -0.00000000000E+00 -0.00000000000E+00 -0.45593999997E+02  0.45594000000E+02  0.51100000000E-03 0.  1.
    9900012    2    1    2    0    0  0.22192063120E+00  0.11102590265E+02  0.15078580556E+02  0.72461538750E+02  0.69999958908E+02 0.  0.
         12    1    1    2    0    0 -0.22192063120E+00 -0.11102590265E+02 -0.15078580556E+02  0.18726461250E+02  0.00000000000E+00 0. -1.
         11    1    3    3    0    0 -0.16239626542E+02  0.11978054702E+02 -0.63154126468E+00  0.20189059148E+02  0.51100000000E-03 0. -1.
        -11    1    3    3    0    0  0.31631538714E+02  0.59539243028E+01  0.15281860046E+02  0.35630586618E+02  0.51100000000E-03 0.  1.
        -12    1    3    3    0    0 -0.15169991541E+02 -0.68293887402E+01  0.42826177468E+00  0.16641892983E+02  0.00000000000E+00 0.  1.
</event>
<event>
 7    1  0.1333056E-013  0.7246158E+02  0.7816164E-02  0.1226708E+00
        -11   -1    0    0    0    0  0.00000000000E+00  0.00000000000E+00  0.45593999997E+02  0.45594000000E+02  0.51100000000E-03 0.  1.
         11   -1    0    0    0    0 -0.00000000000E+00 -0.00000000000E+00 -0.45593999997E+02  0.45594000000E+02  0.51100000000E-03 0. -1.
    9900012    2    1    2    0    0 -0.94036763238E-02  0.25543293203E+01  0.18551392669E+02  0.72461578648E+02  0.70000010882E+02 0.  0.
         12    1    1    2    0    0  0.94036763238E-02 -0.25543293203E+01 -0.18551392669E+02  0.18726421352E+02  0.00000000000E+00 0. -1.
         11    1    3    3    0    0  0.23755529985E+01 -0.42579062163E+01 -0.95881269393E+01  0.10756634969E+02  0.51100000000E-03 0. -1.
        -11    1    3    3    0    0 -0.27008096998E+02  0.11443021569E+02  0.19410439085E+02  0.35173074814E+02  0.51100000000E-03 0.  1.
        -12    1    3    3    0    0  0.24623140324E+02 -0.46307860322E+01  0.87290805231E+01  0.26531868865E+02  0.00000000000E+00 0.  1.
</event>
<event>
 7    1  0.1333056E-013  0.7246155E+02  0.7816164E-02  0.1226708E+00
        -11   -1    0    0    0    0  0.00000000000E+00  0.00000000000E+00  0.45593999997E+02  0.45594000000E+02  0.51100000000E-03 0.  1.
         11   -1    0    0    0    0 -0.00000000000E+00 -0.00000000000E+00 -0.45593999997E+02  0.45594000000E+02  0.51100000000E-03 0. -1.
    9900012    2    1    2    0    0  0.68121334626E+01 -0.68883850965E+01  0.16025762207E+02  0.72461546362E+02  0.69999968824E+02 0.  0.
         12    1    1    2    0    0 -0.68121334626E+01  0.68883850965E+01 -0.16025762207E+02  0.18726453638E+02  0.00000000000E+00 0. -1.
         11    1    3    3    0    0  0.11672681091E+02 -0.21103257400E+02  0.22249515429E+02  0.32812191238E+02  0.51100000000E-03 0. -1.
        -11    1    3    3    0    0  0.93694146421E+01 -0.79553494846E+01 -0.50229123885E+01  0.13277920217E+02  0.51100000000E-03 0.  1.
         12    1    3    3    0    0 -0.14229962271E+02  0.22170221788E+02 -0.12008408339E+01  0.26371434907E+02  0.00000000000E+00 0. -1.
</event>
<event>
 7    1  0.1333056E-013  0.7246160E+02  0.7816164E-02  0.1226708E+00
        -11   -1    0    0    0    0  0.00000000000E+00  0.00000000000E+00  0.45593999997E+02  0.45594000000E+02  0.51100000000E-03 0.  1.
         11   -1    0    0    0    0 -0.00000000000E+00 -0.00000000000E+00 -0.45593999997E+02  0.45594000000E+02  0.51100000000E-03 0. -1.
    9900012    2    1    2    0    0 -0.70200845792E+01  0.26557982711E+01  0.17156436898E+02  0.72461596742E+02  0.70000034453E+02 0.  0.
         12    1    1    2    0    0  0.70200845792E+01 -0.26557982711E+01 -0.17156436898E+02  0.18726403258E+02  0.00000000000E+00 0. -1.
         11    1    3    3    0    0  0.11966821307E+02  0.44285880023E+01 -0.12575834690E+02  0.17915602761E+02  0.51100000000E-03 0. -1.
        -11    1    3    3    0    0 -0.25428359928E+02 -0.15022987627E+02  0.13049646152E+02  0.32289083462E+02  0.51100000000E-03 0.  1.
        -12    1    3    3    0    0  0.64414540421E+01  0.13250197896E+02  0.16682625436E+02  0.22256910519E+02  0.00000000000E+00 0.  1.
</event>
<event>
 7    1  0.1333056E-013  0.7246159E+02  0.7816164E-02  0.1226708E+00
        -11   -1    0    0    0    0  0.00000000000E+00  0.00000000000E+00  0.45593999997E+02  0.45594000000E+02  0.51100000000E-03 0. -1.
         11   -1    0    0    0    0 -0.00000000000E+00 -0.00000000000E+00 -0.45593999997E+02  0.45594000000E+02  0.51100000000E-03 0.  1.
    9900012    2    1    2    0    0  0.12771694610E+01 -0.10867209633E+02 -0.15197068413E+02  0.72461593633E+02  0.70000030403E+02 0.  0.
         12    1    1    2    0    0 -0.12771694610E+01  0.10867209633E+02  0.15197068413E+02  0.18726406367E+02  0.00000000000E+00 0. -1.
         11    1    3    3    0    0  0.23791643030E+02 -0.12663320436E+01 -0.14959694239E+02  0.28132513697E+02  0.51100000000E-03 0. -1.
        -11    1    3    3    0    0 -0.12238748242E+02 -0.19783122773E+02  0.11265509737E+02  0.25847062021E+02  0.51100000000E-03 0.  1.
         12    1    3    3    0    0 -0.10275725327E+02  0.10182245184E+02 -0.11502883912E+02  0.18482017916E+02  0.00000000000E+00 0. -1.
</event>
<event>
 7    1  0.1333056E-013  0.7246153E+02  0.7816164E-02  0.1226708E+00
        -11   -1    0    0    0    0  0.00000000000E+00  0.00000000000E+00  0.45593999997E+02  0.45594000000E+02  0.51100000000E-03 0.  1.
         11   -1    0    0    0    0 -0.00000000000E+00 -0.00000000000E+00 -0.45593999997E+02  0.45594000000E+02  0.51100000000E-03 0. -1.
    9900012    2    1    2    0    0 -0.12347953966E+02  0.11833858916E+02  0.76268321258E+01  0.72461528035E+02  0.69999944949E+02 0.  0.
         12    1    1    2    0    0  0.12347953966E+02 -0.11833858916E+02 -0.76268321258E+01  0.18726471965E+02  0.00000000000E+00 0. -1.
         11    1    3    3    0    0 -0.29069693725E+02  0.30698073552E+02  0.13105362732E+02  0.44262504964E+02  0.51100000000E-03 0. -1.
        -11    1    3    3    0    0  0.23583436096E+01 -0.10593330251E+02 -0.38494820869E+00  0.10859494268E+02  0.51100000000E-03 0.  1.
         12    1    3    3    0    0  0.14363396150E+02 -0.82708843850E+01 -0.50935823974E+01  0.17339528803E+02  0.00000000000E+00 0. -1.
</event>
<event>
 7    1  0.1333056E-013  0.7246161E+02  0.7816164E-02  0.1226708E+00
        -11   -1    0    0    0    0  0.00000000000E+00  0.00000000000E+00  0.45593999997E+02  0.45594000000E+02  0.51100000000E-03 0.  1.
         11   -1    0    0    0    0 -0.00000000000E+00 -0.00000000000E+00 -0.45593999997E+02  0.45594000000E+02  0.51100000000E-03 0. -1.
    9900012    2    1    2    0    0 -0.20556310902E+01 -0.17506118660E+02  0.63235849560E+01  0.72461613899E+02  0.70000056803E+02 0.  0.
         12    1    1    2    0    0  0.20556310902E+01  0.17506118660E+02 -0.63235849560E+01  0.18726386101E+02  0.00000000000E+00 0. -1.
         11    1    3    3    0    0  0.15269284131E+02 -0.13456232774E+02 -0.47006560515E+01  0.20888212128E+02  0.51100000000E-03 0. -1.
        -11    1    3    3    0    0 -0.25878357007E+02  0.11140386575E+02  0.17280745379E+02  0.33051803817E+02  0.51100000000E-03 0.  1.
        -12    1    3    3    0    0  0.85534417864E+01 -0.15190272461E+02 -0.62565043715E+01  0.18521597954E+02  0.00000000000E+00 0.  1.
</event>
<event>
 7    1  0.1333056E-013  0.7246156E+02  0.7816164E-02  0.1226708E+00
        -11   -1    0    0    0    0  0.00000000000E+00  0.00000000000E+00  0.45593999997E+02  0.45594000000E+02  0.51100000000E-03 0. -1.
         11   -1    0    0    0    0 -0.00000000000E+00 -0.00000000000E+00 -0.45593999997E+02  0.45594000000E+02  0.51100000000E-03 0.  1.
    9900012    2    1    2    0    0 -0.15543780006E+02  0.42493209285E+01 -0.95401112813E+01  0.72461560176E+02  0.69999986819E+02 0.  0.
         12    1    1    2    0    0  0.15543780006E+02 -0.42493209285E+01  0.95401112813E+01  0.18726439824E+02  0.00000000000E+00 0. -1.
         11    1    3    3    0    0 -0.92988380586E+01  0.16808699650E+02 -0.32665155206E+02  0.37894763993E+02  0.51100000000E-03 0.  1.
        -11    1    3    3    0    0 -0.85949996495E+01 -0.17893498785E+02  0.18325833984E+02  0.27016430357E+02  0.51100000000E-03 0. -1.
        -12    1    3    3    0    0  0.23500577020E+01  0.53341200632E+01  0.47992099405E+01  0.75503658258E+01  0.00000000000E+00 0.  1.
</event>
<event>
 7    1  0.1333056E-013  0.7246149E+02  0.7816164E-02  0.1226708E+00
        -11   -1    0    0    0    0  0.00000000000E+00  0.00000000000E+00  0.45593999997E+02  0.45594000000E+02  0.51100000000E-03 0.  1.
         11   -1    0    0    0    0 -0.00000000000E+00 -0.00000000000E+00 -0.45593999997E+02  0.45594000000E+02  0.51100000000E-03 0. -1.
    9900012    2    1    2    0    0  0.25091316597E+01  0.81293468811E+01  0.16682333175E+02  0.72461487710E+02  0.69999892419E+02 0.  0.
         12    1    1    2    0    0 -0.25091316597E+01 -0.81293468811E+01 -0.16682333175E+02  0.18726512290E+02  0.00000000000E+00 0. -1.
         11    1    3    3    0    0  0.37423588619E+00 -0.53087169609E+01 -0.18385548790E+01  0.56305250709E+01  0.51100000000E-03 0. -1.
        -11    1    3    3    0    0  0.13807745533E+02  0.18937856972E+02 -0.17056027983E+02  0.28986278724E+02  0.51100000000E-03 0.  1.
        -12    1    3    3    0    0 -0.11672849760E+02 -0.54997931300E+01  0.35576916037E+02  0.37844683916E+02  0.00000000000E+00 0.  1.
</event>
<event>
 7    1  0.1333056E-013  0.7246171E+02  0.7816164E-02  0.1226708E+00
        -11   -1    0    0    0    0  0.00000000000E+00  0.00000000000E+00  0.45593999997E+02  0.45594000000E+02  0.51100000000E-03 0.  1.
         11   -1    0    0    0    0 -0.00000000000E+00 -0.00000000000E+00 -0.45593999997E+02  0.45594000000E+02  0.51100000000E-03 0. -1.
    9900012    2    1    2    0    0  0.12351519279E+02  0.13831874950E+02  0.26063646539E+01  0.72461710195E+02  0.70000182247E+02 0.  0.
         12    1    1    2    0    0 -0.12351519279E+02 -0.13831874950E+02 -0.26063646539E+01  0.18726289805E+02  0.00000000000E+00 0. -1.
         11    1    3    3    0    0 -0.10611914037E+02 -0.89895118034E+01 -0.11571676624E+02  0.18092201141E+02  0.51100000000E-03 0. -1.
        -11    1    3    3    0    0  0.20445255427E+02  0.34654089005E+02  0.91162175339E+01  0.41255542375E+02  0.51100000000E-03 0.  1.
         12    1    3    3    0    0  0.25181778891E+01 -0.11832702251E+02  0.50618237437E+01  0.13113966679E+02  0.00000000000E+00 0. -1.
</event>
<event>
 7    1  0.1333056E-013  0.7246157E+02  0.7816164E-02  0.1226708E+00
        -11   -1    0    0    0    0  0.00000000000E+00  0.00000000000E+00  0.45593999997E+02  0.45594000000E+02  0.51100000000E-03 0. -1.
         11   -1    0    0    0    0 -0.00000000000E+00 -0.00000000000E+00 -0.45593999997E+02  0.45594000000E+02  0.51100000000E-03 0.  1.
    9900012    2    1    2    0    0  0.15776088191E+02 -0.27963492164E+01 -0.96940577327E+01  0.72461567268E+02  0.69999996057E+02 0.  0.
         12    1    1    2    0    0 -0.15776088191E+02  0.27963492164E+01  0.96940577327E+01  0.18726432732E+02  0.00000000000E+00 0. -1.
         11    1    3    3    0    0  0.15869951991E+01 -0.52586941028E+01  0.41290667509E+01  0.68717981579E+01  0.51100000000E-03 0. -1.
        -11    1    3    3    0    0  0.30981677069E+01  0.47209036858E+01 -0.38251811606E+02  0.38666350567E+02  0.51100000000E-03 0.  1.
        -12    1    3    3    0    0  0.11090925285E+02 -0.22585587994E+01  0.24428687122E+02  0.26923418543E+02  0.00000000000E+00 0.  1.
</event>
<event>
 7    1  0.1333056E-013  0.7246166E+02  0.7816164E-02  0.1226708E+00
        -11   -1    0    0    0    0  0.00000000000E+00  0.00000000000E+00  0.45593999997E+02  0.45594000000E+02  0.51100000000E-03 0. -1.
         11   -1    0    0    0    0 -0.00000000000E+00 -0.00000000000E+00 -0.45593999997E+02  0.45594000000E+02  0.51100000000E-03 0.  1.
    9900012    2    1    2    0    0  0.12362142569E+02  0.43141080153E+00 -0.14059415346E+02  0.72461659085E+02  0.70000115667E+02 0.  0.
         12    1    1    2    0    0 -0.12362142569E+02 -0.43141080153E+00  0.14059415346E+02  0.18726340915E+02  0.00000000000E+00 0. -1.
         11    1    3    3    0    0  0.17796489300E+02 -0.15179811037E+01 -0.48779935487E+01  0.18515240192E+02  0.51100000000E-03 0.  1.
        -11    1    3    3    0    0 -0.13012990545E+02 -0.20931332055E+02  0.61217764319E+01  0.25395565193E+02  0.51100000000E-03 0. -1.
        -12    1    3    3    0    0  0.75786438136E+01  0.22880723960E+02 -0.15303198229E+02  0.28550853701E+02  0.00000000000E+00 0.  1.
</event>
<event>
 7    1  0.1333056E-013  0.7246153E+02  0.7816164E-02  0.1226708E+00
        -11   -1    0    0    0    0  0.00000000000E+00  0.00000000000E+00  0.45593999997E+02  0.45594000000E+02  0.51100000000E-03 0. -1.
         11   -1    0    0    0    0 -0.00000000000E+00 -0.00000000000E+00 -0.45593999997E+02  0.45594000000E+02  0.51100000000E-03 0.  1.
    9900012    2    1    2    0    0  0.16823885839E+02 -0.43609971209E+01  0.69727522410E+01  0.72461529312E+02  0.69999946614E+02 0.  0.
         12    1    1    2    0    0 -0.16823885839E+02  0.43609971209E+01 -0.69727522410E+01  0.18726470688E+02  0.00000000000E+00 0. -1.
         11    1    3    3    0    0 -0.29190704732E+01 -0.23320342057E+02  0.52066549792E+01  0.24072153672E+02  0.51100000000E-03 0. -1.
        -11    1    3    3    0    0  0.29918744217E+02  0.17275683256E+02  0.91084333480E+01  0.35728756566E+02  0.51100000000E-03 0.  1.
        -12    1    3    3    0    0 -0.10175787905E+02  0.16836616801E+01 -0.73423360861E+01  0.12660619074E+02  0.00000000000E+00 0.  1.
</event>
<event>
 7    1  0.1333056E-013  0.7246167E+02  0.7816164E-02  0.1226708E+00
        -11   -1    0    0    0    0  0.00000000000E+00  0.00000000000E+00  0.45593999997E+02  0.45594000000E+02  0.51100000000E-03 0.  1.
         11   -1    0    0    0    0 -0.00000000000E+00 -0.00000000000E+00 -0.45593999997E+02  0.45594000000E+02  0.51100000000E-03 0. -1.
    9900012    2    1    2    0    0  0.16092026466E+02 -0.88017506620E+01  0.37750795931E+01  0.72461672105E+02  0.70000132627E+02 0.  0.
         12    1    1    2    0    0 -0.16092026466E+02  0.88017506620E+01 -0.37750795931E+01  0.18726327895E+02  0.00000000000E+00 0. -1.
         11    1    3    3    0    0 -0.44541532388E+00  0.21114262374E+02 -0.16162446358E+02  0.26593892963E+02  0.51100000000E-03 0. -1.
        -11    1    3    3    0    0  0.17828865651E+02 -0.22239977589E+02  0.48821290796E+01  0.28919201894E+02  0.51100000000E-03 0.  1.
         12    1    3    3    0    0 -0.12914238607E+01 -0.76760354469E+01  0.15055396871E+02  0.16948577248E+02  0.00000000000E+00 0. -1.
</event>
<event>
 7    1  0.1333056E-013  0.7246157E+02  0.7816164E-02  0.1226708E+00
        -11   -1    0    0    0    0  0.00000000000E+00  0.00000000000E+00  0.45593999997E+02  0.45594000000E+02  0.51100000000E-03 0.  1.
         11   -1    0    0    0    0 -0.00000000000E+00 -0.00000000000E+00 -0.45593999997E+02  0.45594000000E+02  0.51100000000E-03 0. -1.
    9900012    2    1    2    0    0 -0.11023644547E+01  0.15902357635E+02  0.98274607097E+01  0.72461570288E+02  0.69999999992E+02 0.  0.
         12    1    1    2    0    0  0.11023644547E+01 -0.15902357635E+02 -0.98274607097E+01  0.18726429712E+02  0.00000000000E+00 0. -1.
         11    1    3    3    0    0 -0.10396394128E+02  0.30989998716E+02  0.34147220258E+01  0.32865260658E+02  0.51100000000E-03 0. -1.
        -11    1    3    3    0    0  0.66124093644E+01 -0.24337816718E+02 -0.38612775169E+01  0.25513971555E+02  0.51100000000E-03 0.  1.
         12    1    3    3    0    0  0.26816203089E+01  0.92501756364E+01  0.10274016201E+02  0.14082338076E+02  0.00000000000E+00 0. -1.
</event>
<event>
 8    1  0.1333056E-013  0.7246159E+02  0.7816164E-02  0.1226708E+00
        -11   -1    0    0    0    0  0.00000000000E+00  0.00000000000E+00  0.45593999997E+02  0.45594000000E+02  0.51100000000E-03 0. -1.
         11   -1    0    0    0    0 -0.00000000000E+00 -0.00000000000E+00 -0.45593999997E+02  0.45594000000E+02  0.51100000000E-03 0.  1.
    9900012    2    1    2    0    0 -0.13995074077E+02  0.12115369108E+02 -0.28344625426E+01  0.72461589641E+02  0.70000025203E+02 0.  0.
        -24    2    3    3    0    0  0.48437749501E+01  0.95810939594E+01 -0.94916831421E+01  0.52320999542E+02  0.50320328168E+02 0.  0.
         12    1    1    2    0    0  0.13995074077E+02 -0.12115369108E+02  0.28344625426E+01  0.18726410359E+02  0.00000000000E+00 0. -1.
         11    1    4    4    0    0  0.14325157782E+02 -0.15466626524E+02 -0.13797094654E+02  0.25194969789E+02  0.51100000000E-03 0. -1.
        -11    1    3    3    0    0 -0.18838849027E+02  0.25342751484E+01  0.66572205995E+01  0.20140590099E+02  0.51100000000E-03 0.  1.
        -12    1    4    4    0    0 -0.94813828324E+01  0.25047720484E+02  0.43054115122E+01  0.27126029752E+02  0.00000000000E+00 0.  1.
</event>
<event>
 7    1  0.1333056E-013  0.7246167E+02  0.7816164E-02  0.1226708E+00
        -11   -1    0    0    0    0  0.00000000000E+00  0.00000000000E+00  0.45593999997E+02  0.45594000000E+02  0.51100000000E-03 0. -1.
         11   -1    0    0    0    0 -0.00000000000E+00 -0.00000000000E+00 -0.45593999997E+02  0.45594000000E+02  0.51100000000E-03 0.  1.
    9900012    2    1    2    0    0  0.16023582928E+02  0.75319199956E+01  0.60983811974E+01  0.72461674095E+02  0.70000135220E+02 0.  0.
         12    1    1    2    0    0 -0.16023582928E+02 -0.75319199956E+01 -0.60983811974E+01  0.18726325905E+02  0.00000000000E+00 0. -1.
         11    1    3    3    0    0  0.22916634816E+02 -0.25802126359E+02  0.74564162339E+01  0.35306090399E+02  0.51100000000E-03 0. -1.
        -11    1    3    3    0    0 -0.11622622704E+01  0.13067552470E+02  0.65441542495E+01  0.14660754969E+02  0.51100000000E-03 0.  1.
         12    1    3    3    0    0 -0.57307896181E+01  0.20266493884E+02 -0.79021892859E+01  0.22494828728E+02  0.00000000000E+00 0. -1.
</event>
<event>
 7    1  0.1333056E-013  0.7246159E+02  0.7816164E-02  0.1226708E+00
        -11   -1    0    0    0    0  0.00000000000E+00  0.00000000000E+00  0.45593999997E+02  0.45594000000E+02  0.51100000000E-03 0.  1.
         11   -1    0    0    0    0 -0.00000000000E+00 -0.00000000000E+00 -0.45593999997E+02  0.45594000000E+02  0.51100000000E-03 0. -1.
    9900012    2    1    2    0    0 -0.45571522560E+01 -0.52943130338E+01  0.17374720124E+02  0.72461593870E+02  0.70000030711E+02 0.  0.
         12    1    1    2    0    0  0.45571522560E+01  0.52943130338E+01 -0.17374720124E+02  0.18726406130E+02  0.00000000000E+00 0. -1.
         11    1    3    3    0    0 -0.30757268895E+02  0.50553660312E+01 -0.74480995605E+01  0.32047472645E+02  0.51100000000E-03 0. -1.
        -11    1    3    3    0    0  0.21093123976E+02 -0.38822823636E+01  0.23915159346E+02  0.32123618137E+02  0.51100000000E-03 0.  1.
        -12    1    3    3    0    0  0.51069926633E+01 -0.64673967014E+01  0.90766033849E+00  0.82905030876E+01  0.00000000000E+00 0.  1.
</event>
<event>
 7    1  0.1333056E-013  0.7246160E+02  0.7816164E-02  0.1226708E+00
        -11   -1    0    0    0    0  0.00000000000E+00  0.00000000000E+00  0.45593999997E+02  0.45594000000E+02  0.51100000000E-03 0.  1.
         11   -1    0    0    0    0 -0.00000000000E+00 -0.00000000000E+00 -0.45593999997E+02  0.45594000000E+02  0.51100000000E-03 0. -1.
    9900012    2    1    2    0    0  0.76046850214E+01 -0.62195272970E+01  0.15942534469E+02  0.72461597266E+02  0.70000035135E+02 0.  0.
         12    1    1    2    0    0 -0.76046850214E+01  0.62195272970E+01 -0.15942534469E+02  0.18726402734E+02  0.00000000000E+00 0. -1.
         11    1    3    3    0    0  0.11380896153E+02 -0.23618384225E+02  0.11916926831E+02  0.28798715526E+02  0.51100000000E-03 0. -1.
        -11    1    3    3    0    0 -0.21046083951E+02  0.36415341706E+01  0.28969813660E+01  0.21554371298E+02  0.51100000000E-03 0.  1.
         12    1    3    3    0    0  0.17269872819E+02  0.13757322757E+02  0.11286262725E+01  0.22108510441E+02  0.00000000000E+00 0. -1.
</event>
<event>
 7    1  0.1500080E-013  0.7246143E+02  0.7816164E-02  0.1226708E+00
        -11   -1    0    0    0    0  0.00000000000E+00  0.00000000000E+00  0.45593999997E+02  0.45594000000E+02  0.51100000000E-03 0. -1.
         11   -1    0    0    0    0 -0.00000000000E+00 -0.00000000000E+00 -0.45593999997E+02  0.45594000000E+02  0.51100000000E-03 0.  1.
    9900012    2    1    2    0    0  0.17318388133E+01  0.94238249652E+00 -0.18622484404E+02  0.72461433955E+02  0.69999822392E+02 0.  0.
         12    1    1    2    0    0 -0.17318388133E+01 -0.94238249652E+00  0.18622484404E+02  0.18726566045E+02  0.00000000000E+00 0. -1.
         11    1    3    3    0    0  0.18539447545E+00  0.20490355856E+02  0.95038510555E+01  0.22587878151E+02  0.51100000000E-03 0. -1.
        -11    1    3    3    0    0 -0.80792964012E+01 -0.25818863102E+02 -0.10897542384E+02  0.29165821650E+02  0.51100000000E-03 0.  1.
        -12    1    3    3    0    0  0.96257407391E+01  0.62708897430E+01 -0.17228793076E+02  0.20707734154E+02  0.00000000000E+00 0.  1.
</event>
<event>
 7    1  0.1333056E-013  0.7246158E+02  0.7816164E-02  0.1226708E+00
        -11   -1    0    0    0    0  0.00000000000E+00  0.00000000000E+00  0.45593999997E+02  0.45594000000E+02  0.51100000000E-03 0. -1.
         11   -1    0    0    0    0 -0.00000000000E+00 -0.00000000000E+00 -0.45593999997E+02  0.45594000000E+02  0.51100000000E-03 0.  1.
    9900012    2    1    2    0    0 -0.10871393850E+02 -0.11235234497E+02  0.10308303020E+02  0.72461579904E+02  0.70000012519E+02 0.  0.
         12    1    1    2    0    0  0.10871393850E+02  0.11235234497E+02 -0.10308303020E+02  0.18726420096E+02  0.00000000000E+00 0. -1.
         11    1    3    3    0    0  0.19195334658E+01 -0.73735245200E+01  0.25840331817E+02  0.26940234247E+02  0.51100000000E-03 0. -1.
        -11    1    3    3    0    0 -0.15245393238E+02 -0.73777902777E+01 -0.27784773865E+02  0.32539936437E+02  0.51100000000E-03 0.  1.
        -12    1    3    3    0    0  0.24544659227E+01  0.35160803004E+01  0.12252745068E+02  0.12981409220E+02  0.00000000000E+00 0.  1.
</event>
<event>
 7    1  0.1333056E-013  0.7246157E+02  0.7816164E-02  0.1226708E+00
        -11   -1    0    0    0    0  0.00000000000E+00  0.00000000000E+00  0.45593999997E+02  0.45594000000E+02  0.51100000000E-03 0.  1.
         11   -1    0    0    0    0 -0.00000000000E+00 -0.00000000000E+00 -0.45593999997E+02  0.45594000000E+02  0.51100000000E-03 0. -1.
    9900012    2    1    2    0    0 -0.23990798003E+01  0.15326789281E+02 -0.10488709354E+02  0.72461572752E+02  0.70000003202E+02 0.  0.
         12    1    1    2    0    0  0.23990798003E+01 -0.15326789281E+02  0.10488709354E+02  0.18726427248E+02  0.00000000000E+00 0. -1.
         11    1    3    3    0    0 -0.26619219668E+01  0.38069914041E+02 -0.45634324896E+01  0.38434738193E+02  0.51100000000E-03 0.  1.
        -11    1    3    3    0    0 -0.64286361879E+01 -0.25281578797E+02 -0.28642038672E+01  0.26242889585E+02  0.51100000000E-03 0. -1.
         12    1    3    3    0    0  0.66914783544E+01  0.25384540375E+01 -0.30610729970E+01  0.77839449742E+01  0.00000000000E+00 0. -1.
</event>
<event>
 7    1  0.1333056E-013  0.7246156E+02  0.7816164E-02  0.1226708E+00
        -11   -1    0    0    0    0  0.00000000000E+00  0.00000000000E+00  0.45593999997E+02  0.45594000000E+02  0.51100000000E-03 0. -1.
         11   -1    0    0    0    0 -0.00000000000E+00 -0.00000000000E+00 -0.45593999997E+02  0.45594000000E+02  0.51100000000E-03 0.  1.
    9900012    2    1    2    0    0  0.10235880138E+01 -0.76762366587E+01 -0.17050133945E+02  0.72461563895E+02  0.69999991663E+02 0.  0.
         12    1    1    2    0    0 -0.10235880138E+01  0.76762366587E+01  0.17050133945E+02  0.18726436105E+02  0.00000000000E+00 0. -1.
         11    1    3    3    0    0  0.24757405569E+02 -0.17563434473E+02 -0.33059079102E+01  0.30534118431E+02  0.51100000000E-03 0. -1.
        -11    1    3    3    0    0 -0.75432461950E+01  0.19117351641E+02 -0.10249723193E+02  0.22965855584E+02  0.51100000000E-03 0.  1.
         12    1    3    3    0    0 -0.16190571360E+02 -0.92301538264E+01 -0.34945028420E+01  0.18961589879E+02  0.00000000000E+00 0. -1.
</event>
<event>
 7    1  0.1333056E-013  0.7246154E+02  0.7816164E-02  0.1226708E+00
        -11   -1    0    0    0    0  0.00000000000E+00  0.00000000000E+00  0.45593999997E+02  0.45594000000E+02  0.51100000000E-03 0.  1.
         11   -1    0    0    0    0 -0.00000000000E+00 -0.00000000000E+00 -0.45593999997E+02  0.45594000000E+02  0.51100000000E-03 0. -1.
    9900012    2    1    2    0    0 -0.11179220272E+02 -0.13961783451E+02  0.55474226623E+01  0.72461541146E+02  0.69999962028E+02 0.  0.
         12    1    1    2    0    0  0.11179220272E+02  0.13961783451E+02 -0.55474226623E+01  0.18726458854E+02  0.00000000000E+00 0. -1.
         11    1    3    3    0    0  0.38335225244E+01  0.10305128107E+02 -0.23436965124E+01  0.11242084942E+02  0.51100000000E-03 0. -1.
        -11    1    3    3    0    0 -0.43002154349E+01 -0.40645057789E+02  0.26415425850E+01  0.40957176697E+02  0.51100000000E-03 0.  1.
        -12    1    3    3    0    0 -0.10712527362E+02  0.16378146231E+02  0.52495765897E+01  0.20262279507E+02  0.00000000000E+00 0.  1.
</event>
<event>
 7    1  0.1333056E-013  0.7246162E+02  0.7816164E-02  0.1226708E+00
        -11   -1    0    0    0    0  0.00000000000E+00  0.00000000000E+00  0.45593999997E+02  0.45594000000E+02  0.51100000000E-03 0.  1.
         11   -1    0    0    0    0 -0.00000000000E+00 -0.00000000000E+00 -0.45593999997E+02  0.45594000000E+02  0.51100000000E-03 0. -1.
    9900012    2    1    2    0    0  0.11606866404E+02 -0.17270490761E+01  0.14593674774E+02  0.72461617817E+02  0.70000061907E+02 0.  0.
         12    1    1    2    0    0 -0.11606866404E+02  0.17270490761E+01 -0.14593674774E+02  0.18726382183E+02  0.00000000000E+00 0. -1.
         11    1    3    3    0    0 -0.11032093957E+02 -0.55627485029E+01  0.22103957447E+02  0.25322642103E+02  0.51100000000E-03 0.  1.
        -11    1    3    3    0    0  0.21313907204E+02 -0.47185120852E+01 -0.21530894047E+02  0.30661480645E+02  0.51100000000E-03 0. -1.
         12    1    3    3    0    0  0.13250531578E+01  0.85542115120E+01  0.14020611375E+02  0.16477495070E+02  0.00000000000E+00 0. -1.
</event>
<event>
 7    1  0.1333056E-013  0.7246150E+02  0.7816164E-02  0.1226708E+00
        -11   -1    0    0    0    0  0.00000000000E+00  0.00000000000E+00  0.45593999997E+02  0.45594000000E+02  0.51100000000E-03 0.  1.
         11   -1    0    0    0    0 -0.00000000000E+00 -0.00000000000E+00 -0.45593999997E+02  0.45594000000E+02  0.51100000000E-03 0. -1.
    9900012    2    1    2    0    0 -0.16255326529E+02 -0.90147741139E+01  0.22759508636E+01  0.72461501523E+02  0.69999910412E+02 0.  0.
         12    1    1    2    0    0  0.16255326529E+02  0.90147741139E+01 -0.22759508636E+01  0.18726498477E+02  0.00000000000E+00 0. -1.
         11    1    3    3    0    0  0.35885816109E+01 -0.26993251285E+01  0.18782993976E+02  0.19312305328E+02  0.51100000000E-03 0.  1.
        -11    1    3    3    0    0 -0.18530330725E+02  0.39896769594E+01 -0.30385707076E+02  0.35813152246E+02  0.51100000000E-03 0. -1.
         12    1    3    3    0    0 -0.13135774147E+01 -0.10305125945E+02  0.13878663964E+02  0.17336043949E+02  0.00000000000E+00 0. -1.
</event>
<event>
 7    1  0.1333056E-013  0.7246157E+02  0.7816164E-02  0.1226708E+00
        -11   -1    0    0    0    0  0.00000000000E+00  0.00000000000E+00  0.45593999997E+02  0.45594000000E+02  0.51100000000E-03 0.  1.
         11   -1    0    0    0    0 -0.00000000000E+00 -0.00000000000E+00 -0.45593999997E+02  0.45594000000E+02  0.51100000000E-03 0. -1.
    9900012    2    1    2    0    0 -0.85047414638E+00  0.14525462535E+02  0.11788424301E+02  0.72461566393E+02  0.69999994918E+02 0.  0.
         12    1    1    2    0    0  0.85047414638E+00 -0.14525462535E+02 -0.11788424301E+02  0.18726433607E+02  0.00000000000E+00 0. -1.
         11    1    3    3    0    0  0.18449136863E+02  0.13585159031E+02 -0.66995663040E+01  0.23870722356E+02  0.51100000000E-03 0. -1.
        -11    1    3    3    0    0 -0.12131390529E+02  0.13842067632E+02  0.26136807523E+02  0.31967267325E+02  0.51100000000E-03 0.  1.
         12    1    3    3    0    0 -0.71682204801E+01 -0.12901764127E+02 -0.76488169186E+01  0.16623576712E+02  0.00000000000E+00 0. -1.
</event>
<event>
 7    1  0.1333056E-013  0.7246156E+02  0.7816164E-02  0.1226708E+00
        -11   -1    0    0    0    0  0.00000000000E+00  0.00000000000E+00  0.45593999997E+02  0.45594000000E+02  0.51100000000E-03 0.  1.
         11   -1    0    0    0    0 -0.00000000000E+00 -0.00000000000E+00 -0.45593999997E+02  0.45594000000E+02  0.51100000000E-03 0. -1.
    9900012    2    1    2    0    0 -0.10462722584E+02  0.55527160171E+01  0.14504424760E+02  0.72461559957E+02  0.69999986534E+02 0.  0.
         12    1    1    2    0    0  0.10462722584E+02 -0.55527160171E+01 -0.14504424760E+02  0.18726440043E+02  0.00000000000E+00 0. -1.
         11    1    3    3    0    0 -0.18163904284E+02 -0.19165939134E+02 -0.15898626477E+02  0.30822507455E+02  0.51100000000E-03 0. -1.
        -11    1    3    3    0    0  0.66524970551E+01  0.92343299593E+01  0.19817144709E+02  0.22852741444E+02  0.51100000000E-03 0.  1.
         12    1    3    3    0    0  0.10486846452E+01  0.15484325191E+02  0.10585906529E+02  0.18786311058E+02  0.00000000000E+00 0. -1.
</event>
<event>
 7    1  0.1333056E-013  0.7246156E+02  0.7816164E-02  0.1226708E+00
        -11   -1    0    0    0    0  0.00000000000E+00  0.00000000000E+00  0.45593999997E+02  0.45594000000E+02  0.51100000000E-03 0.  1.
         11   -1    0    0    0    0 -0.00000000000E+00 -0.00000000000E+00 -0.45593999997E+02  0.45594000000E+02  0.51100000000E-03 0. -1.
    9900012    2    1    2    0    0  0.52903179677E+01  0.12372256588E+02  0.13023799488E+02  0.72461560125E+02  0.69999986752E+02 0.  0.
         12    1    1    2    0    0 -0.52903179677E+01 -0.12372256588E+02 -0.13023799488E+02  0.18726439875E+02  0.00000000000E+00 0. -1.
         11    1    3    3    0    0  0.16942569286E+02 -0.15753341755E+02 -0.87149375264E+01  0.24721823695E+02  0.51100000000E-03 0. -1.
        -11    1    3    3    0    0  0.61549916729E+01  0.11384727919E+02  0.19217605400E+02  0.23169210385E+02  0.51100000000E-03 0.  1.
         12    1    3    3    0    0 -0.17807242991E+02  0.16740870425E+02  0.25211316148E+01  0.24570526045E+02  0.00000000000E+00 0. -1.
</event>
<event>
 7    1  0.1333056E-013  0.7246151E+02  0.7816164E-02  0.1226708E+00
        -11   -1    0    0    0    0  0.00000000000E+00  0.00000000000E+00  0.45593999997E+02  0.45594000000E+02  0.51100000000E-03 0.  1.
         11   -1    0    0    0    0 -0.00000000000E+00 -0.00000000000E+00 -0.45593999997E+02  0.45594000000E+02  0.51100000000E-03 0. -1.
    9900012    2    1    2    0    0 -0.13367047329E+02 -0.12494028958E+02  0.39878270610E+01  0.72461508643E+02  0.69999919687E+02 0.  0.
         12    1    1    2    0    0  0.13367047329E+02  0.12494028958E+02 -0.39878270610E+01  0.18726491357E+02  0.00000000000E+00 0. -1.
         11    1    3    3    0    0 -0.16044848251E+02  0.63305444457E+01 -0.93060660537E+01  0.19598872774E+02  0.51100000000E-03 0. -1.
        -11    1    3    3    0    0 -0.16402261796E+02 -0.39241719803E+01  0.21477625518E+02  0.27307905740E+02  0.51100000000E-03 0.  1.
         12    1    3    3    0    0  0.19080062718E+02 -0.14900401423E+02 -0.81837324029E+01  0.25554730128E+02  0.00000000000E+00 0. -1.
</event>
<event>
 7    1  0.1333056E-013  0.7246161E+02  0.7816164E-02  0.1226708E+00
        -11   -1    0    0    0    0  0.00000000000E+00  0.00000000000E+00  0.45593999997E+02  0.45594000000E+02  0.51100000000E-03 0.  1.
         11   -1    0    0    0    0 -0.00000000000E+00 -0.00000000000E+00 -0.45593999997E+02  0.45594000000E+02  0.51100000000E-03 0. -1.
    9900012    2    1    2    0    0  0.10351817466E+02 -0.63085021892E+01  0.14273064122E+02  0.72461609954E+02  0.70000051665E+02 0.  0.
         12    1    1    2    0    0 -0.10351817466E+02  0.63085021892E+01 -0.14273064122E+02  0.18726390046E+02  0.00000000000E+00 0. -1.
         11    1    3    3    0    0 -0.15654176600E+02 -0.87582431007E+01 -0.69241082468E+01  0.19227671271E+02  0.51100000000E-03 0. -1.
        -11    1    3    3    0    0  0.24772902246E+02  0.10333731784E+02  0.30729912489E+02  0.40802085977E+02  0.51100000000E-03 0.  1.
        -12    1    3    3    0    0  0.12330918201E+01 -0.78839908726E+01 -0.95327401202E+01  0.12431852706E+02  0.00000000000E+00 0.  1.
</event>
<event>
 7    1  0.1333056E-013  0.7246157E+02  0.7816164E-02  0.1226708E+00
        -11   -1    0    0    0    0  0.00000000000E+00  0.00000000000E+00  0.45593999997E+02  0.45594000000E+02  0.51100000000E-03 0. -1.
         11   -1    0    0    0    0 -0.00000000000E+00 -0.00000000000E+00 -0.45593999997E+02  0.45594000000E+02  0.51100000000E-03 0.  1.
    9900012    2    1    2    0    0 -0.26463806782E+01 -0.16877805204E+02  0.76691204662E+01  0.72461573541E+02  0.70000004229E+02 0.  0.
         12    1    1    2    0    0  0.26463806782E+01  0.16877805204E+02 -0.76691204662E+01  0.18726426459E+02  0.00000000000E+00 0. -1.
         11    1    3    3    0    0 -0.21960499590E+02 -0.32754429153E+02  0.11383734106E+02  0.41045165048E+02  0.51100000000E-03 0. -1.
        -11    1    3    3    0    0  0.14002696166E+02  0.72091743034E+01 -0.10737013872E+02  0.19061247630E+02  0.51100000000E-03 0.  1.
         12    1    3    3    0    0  0.53114227460E+01  0.86674496452E+01  0.70224002318E+01  0.12355160863E+02  0.00000000000E+00 0. -1.
</event>
<event>
 7    1  0.1333056E-013  0.7246162E+02  0.7816164E-02  0.1226708E+00
        -11   -1    0    0    0    0  0.00000000000E+00  0.00000000000E+00  0.45593999997E+02  0.45594000000E+02  0.51100000000E-03 0. -1.
         11   -1    0    0    0    0 -0.00000000000E+00 -0.00000000000E+00 -0.45593999997E+02  0.45594000000E+02  0.51100000000E-03 0.  1.
    9900012    2    1    2    0    0  0.27632738637E-01 -0.81726548521E+01 -0.16848868309E+02  0.72461617162E+02  0.70000061054E+02 0.  0.
         12    1    1    2    0    0 -0.27632738637E-01  0.81726548521E+01  0.16848868309E+02  0.18726382838E+02  0.00000000000E+00 0. -1.
         11    1    3    3    0    0 -0.93285680371E+01  0.17874933261E+02 -0.24343657359E+02  0.31609319426E+02  0.51100000000E-03 0. -1.
        -11    1    3    3    0    0  0.43078572707E+01 -0.27633789776E+02 -0.39483369929E+01  0.28244881605E+02  0.51100000000E-03 0.  1.
         12    1    3    3    0    0  0.50483435050E+01  0.15862016619E+01  0.11443126043E+02  0.12607416131E+02  0.00000000000E+00 0. -1.
</event>
<event>
 7    1  0.1333056E-013  0.7246157E+02  0.7816164E-02  0.1226708E+00
        -11   -1    0    0    0    0  0.00000000000E+00  0.00000000000E+00  0.45593999997E+02  0.45594000000E+02  0.51100000000E-03 0. -1.
         11   -1    0    0    0    0 -0.00000000000E+00 -0.00000000000E+00 -0.45593999997E+02  0.45594000000E+02  0.51100000000E-03 0.  1.
    9900012    2    1    2    0    0 -0.64070872844E+01  0.10946108871E+02 -0.13777194897E+02  0.72461570385E+02  0.70000000118E+02 0.  0.
         12    1    1    2    0    0  0.64070872844E+01 -0.10946108871E+02  0.13777194897E+02  0.18726429615E+02  0.00000000000E+00 0. -1.
         11    1    3    3    0    0 -0.14622329672E+02  0.96336326477E+01 -0.18525599682E+01  0.17608275944E+02  0.51100000000E-03 0. -1.
        -11    1    3    3    0    0  0.23010323814E+02 -0.74800976554E+01 -0.23803254370E+02  0.33941446372E+02  0.51100000000E-03 0.  1.
        -12    1    3    3    0    0 -0.14795081427E+02  0.87925738790E+01  0.11878619441E+02  0.20911848069E+02  0.00000000000E+00 0.  1.
</event>
<event>
 7    1  0.1333056E-013  0.7246153E+02  0.7816164E-02  0.1226708E+00
        -11   -1    0    0    0    0  0.00000000000E+00  0.00000000000E+00  0.45593999997E+02  0.45594000000E+02  0.51100000000E-03 0.  1.
         11   -1    0    0    0    0 -0.00000000000E+00 -0.00000000000E+00 -0.45593999997E+02  0.45594000000E+02  0.51100000000E-03 0. -1.
    9900012    2    1    2    0    0  0.11714980206E+02  0.98333947713E+01  0.10804826278E+02  0.72461529835E+02  0.69999947294E+02 0.  0.
         12    1    1    2    0    0 -0.11714980206E+02 -0.98333947713E+01 -0.10804826278E+02  0.18726470165E+02  0.00000000000E+00 0. -1.
         11    1    3    3    0    0  0.21835411573E+02 -0.25941036886E+02  0.67025700343E+01  0.34563666452E+02  0.51100000000E-03 0. -1.
        -11    1    3    3    0    0 -0.68708544271E+01  0.31710358907E+02  0.30519006826E+01  0.32589409332E+02  0.51100000000E-03 0.  1.
         12    1    3    3    0    0 -0.32495769405E+01  0.40640727499E+01  0.10503555606E+01  0.53084540511E+01  0.00000000000E+00 0. -1.
</event>
<event>
 7    1  0.1333056E-013  0.7246158E+02  0.7816164E-02  0.1226708E+00
        -11   -1    0    0    0    0  0.00000000000E+00  0.00000000000E+00  0.45593999997E+02  0.45594000000E+02  0.51100000000E-03 0. -1.
         11   -1    0    0    0    0 -0.00000000000E+00 -0.00000000000E+00 -0.45593999997E+02  0.45594000000E+02  0.51100000000E-03 0.  1.
    9900012    2    1    2    0    0 -0.14160971727E+02  0.49288794783E+01 -0.11218370590E+02  0.72461579844E+02  0.70000012441E+02 0.  0.
         12    1    1    2    0    0  0.14160971727E+02 -0.49288794783E+01  0.11218370590E+02  0.18726420156E+02  0.00000000000E+00 0. -1.
         11    1    3    3    0    0  0.22588909603E+02  0.12609486156E+02 -0.75533932260E+01  0.26950171199E+02  0.51100000000E-03 0. -1.
        -11    1    3    3    0    0 -0.35679822196E+02 -0.92300474329E+01 -0.10581339609E+02  0.38343294534E+02  0.51100000000E-03 0.  1.
        -12    1    3    3    0    0 -0.10700591343E+01  0.15494407558E+01  0.69163622449E+01  0.71681141111E+01  0.00000000000E+00 0.  1.
</event>
<event>
 7    1  0.1333056E-013  0.7246139E+02  0.7816164E-02  0.1226709E+00
        -11   -1    0    0    0    0  0.00000000000E+00  0.00000000000E+00  0.45593999997E+02  0.45594000000E+02  0.51100000000E-03 0. -1.
         11   -1    0    0    0    0 -0.00000000000E+00 -0.00000000000E+00 -0.45593999997E+02  0.45594000000E+02  0.51100000000E-03 0.  1.
    9900012    2    1    2    0    0 -0.17288691662E+02 -0.27223509346E+01 -0.66615292655E+01  0.72461387222E+02  0.69999761514E+02 0.  0.
         12    1    1    2    0    0  0.17288691662E+02  0.27223509346E+01  0.66615292655E+01  0.18726612778E+02  0.00000000000E+00 0. -1.
         11    1    3    3    0    0 -0.33741904273E+02  0.69119920829E+01  0.12080177922E+02  0.36499622429E+02  0.51100000000E-03 0. -1.
        -11    1    3    3    0    0  0.14864467276E+02 -0.76479233771E+00 -0.21843189583E+02  0.26432219471E+02  0.51100000000E-03 0.  1.
        -12    1    3    3    0    0  0.15887453350E+01 -0.88695506798E+01  0.31014823955E+01  0.95295453223E+01  0.00000000000E+00 0.  1.
</event>
<event>
 7    1  0.1333056E-013  0.7246145E+02  0.7816164E-02  0.1226708E+00
        -11   -1    0    0    0    0  0.00000000000E+00  0.00000000000E+00  0.45593999997E+02  0.45594000000E+02  0.51100000000E-03 0.  1.
         11   -1    0    0    0    0 -0.00000000000E+00 -0.00000000000E+00 -0.45593999997E+02  0.45594000000E+02  0.51100000000E-03 0. -1.
    9900012    2    1    2    0    0  0.15512021344E+02  0.79676334901E+01 -0.68247808725E+01  0.72461451371E+02  0.69999845080E+02 0.  0.
         12    1    1    2    0    0 -0.15512021344E+02 -0.79676334901E+01  0.68247808725E+01  0.18726548629E+02  0.00000000000E+00 0. -1.
         11    1    3    3    0    0  0.33039647740E+02  0.19143505418E+02 -0.18009276518E+02  0.42218789223E+02  0.51100000000E-03 0. -1.
        -11    1    3    3    0    0 -0.10865188280E+01 -0.17934054996E+01  0.11116620814E+02  0.11312651547E+02  0.51100000000E-03 0.  1.
         12    1    3    3    0    0 -0.16441107568E+02 -0.93824664281E+01  0.67874831738E-01  0.18930010601E+02  0.00000000000E+00 0. -1.
</event>
<event>
 7    1  0.1333056E-013  0.7246157E+02  0.7816164E-02  0.1226708E+00
        -11   -1    0    0    0    0  0.00000000000E+00  0.00000000000E+00  0.45593999997E+02  0.45594000000E+02  0.51100000000E-03 0.  1.
         11   -1    0    0    0    0 -0.00000000000E+00 -0.00000000000E+00 -0.45593999997E+02  0.45594000000E+02  0.51100000000E-03 0. -1.
    9900012    2    1    2    0    0 -0.17294374753E+02  0.85662061961E-01  0.71816707432E+01  0.72461571330E+02  0.70000001349E+02 0.  0.
         12    1    1    2    0    0  0.17294374753E+02 -0.85662061961E-01 -0.71816707432E+01  0.18726428670E+02  0.00000000000E+00 0. -1.
         11    1    3    3    0    0  0.12940521932E+02  0.17642551003E+01  0.16176174953E+02  0.20790342476E+02  0.51100000000E-03 0.  1.
        -11    1    3    3    0    0 -0.20681664827E+02 -0.15619545836E+02  0.85691833766E+01  0.27297112963E+02  0.51100000000E-03 0. -1.
        -12    1    3    3    0    0 -0.95532318578E+01  0.13940952797E+02 -0.17563687586E+02  0.24374115891E+02  0.00000000000E+00 0.  1.
</event>
<event>
 7    1  0.1333056E-013  0.7246157E+02  0.7816164E-02  0.1226708E+00
        -11   -1    0    0    0    0  0.00000000000E+00  0.00000000000E+00  0.45593999997E+02  0.45594000000E+02  0.51100000000E-03 0. -1.
         11   -1    0    0    0    0 -0.00000000000E+00 -0.00000000000E+00 -0.45593999997E+02  0.45594000000E+02  0.51100000000E-03 0.  1.
    9900012    2    1    2    0    0 -0.12759490795E+02 -0.62258843050E+01 -0.12211183575E+02  0.72461568279E+02  0.69999997374E+02 0.  0.
         12    1    1    2    0    0  0.12759490795E+02  0.62258843050E+01  0.12211183575E+02  0.18726431721E+02  0.00000000000E+00 0. -1.
         11    1    3    3    0    0 -0.18668312788E+02  0.96540227861E+01  0.86469533911E+01  0.22726105287E+02  0.51100000000E-03 0. -1.
        -11    1    3    3    0    0  0.67468192666E+01 -0.27197609704E+02 -0.24744259970E+01  0.28130985196E+02  0.51100000000E-03 0.  1.
        -12    1    3    3    0    0 -0.83799727310E+00  0.11317702613E+02 -0.18383710969E+02  0.21604477796E+02  0.00000000000E+00 0.  1.
</event>
<event>
 7    1  0.1333056E-013  0.7246164E+02  0.7816164E-02  0.1226708E+00
        -11   -1    0    0    0    0  0.00000000000E+00  0.00000000000E+00  0.45593999997E+02  0.45594000000E+02  0.51100000000E-03 0.  1.
         11   -1    0    0    0    0 -0.00000000000E+00 -0.00000000000E+00 -0.45593999997E+02  0.45594000000E+02  0.51100000000E-03 0. -1.
    9900012    2    1    2    0    0 -0.15306252519E+02 -0.17666824998E+01  0.10643027622E+02  0.72461639697E+02  0.70000090410E+02 0.  0.
         12    1    1    2    0    0  0.15306252519E+02  0.17666824998E+01 -0.10643027622E+02  0.18726360303E+02  0.00000000000E+00 0. -1.
         11    1    3    3    0    0  0.42500055155E+00  0.17374033753E+02 -0.16985571236E+02  0.24301179083E+02  0.51100000000E-03 0. -1.
        -11    1    3    3    0    0 -0.38873757665E+01 -0.25047500422E+02  0.22735448606E+02  0.34049810445E+02  0.51100000000E-03 0.  1.
        -12    1    3    3    0    0 -0.11843877304E+02  0.59067841690E+01  0.48931502520E+01  0.14110650170E+02  0.00000000000E+00 0.  1.
</event>
<event>
 7    1  0.1333056E-013  0.7246157E+02  0.7816164E-02  0.1226708E+00
        -11   -1    0    0    0    0  0.00000000000E+00  0.00000000000E+00  0.45593999997E+02  0.45594000000E+02  0.51100000000E-03 0. -1.
         11   -1    0    0    0    0 -0.00000000000E+00 -0.00000000000E+00 -0.45593999997E+02  0.45594000000E+02  0.51100000000E-03 0.  1.
    9900012    2    1    2    0    0  0.38601614276E+01  0.93478239596E+01 -0.15760601510E+02  0.72461568974E+02  0.69999998279E+02 0.  0.
         12    1    1    2    0    0 -0.38601614276E+01 -0.93478239596E+01  0.15760601510E+02  0.18726431026E+02  0.00000000000E+00 0. -1.
         11    1    3    3    0    0  0.16347446812E+02 -0.23201050603E+02 -0.18955289129E+02  0.34129616941E+02  0.51100000000E-03 0.  1.
        -11    1    3    3    0    0 -0.29137448359E+01  0.25716221044E+02  0.52069151390E+01  0.26399354145E+02  0.51100000000E-03 0. -1.
        -12    1    3    3    0    0 -0.95735405489E+01  0.68326535181E+01 -0.20122275205E+01  0.11932597887E+02  0.00000000000E+00 0.  1.
</event>
<event>
 7    1  0.1333056E-013  0.7246170E+02  0.7816164E-02  0.1226708E+00
        -11   -1    0    0    0    0  0.00000000000E+00  0.00000000000E+00  0.45593999997E+02  0.45594000000E+02  0.51100000000E-03 0.  1.
         11   -1    0    0    0    0 -0.00000000000E+00 -0.00000000000E+00 -0.45593999997E+02  0.45594000000E+02  0.51100000000E-03 0. -1.
    9900012    2    1    2    0    0 -0.43038135852E+01  0.16430272218E+02  0.78865487198E+01  0.72461700119E+02  0.70000169121E+02 0.  0.
         12    1    1    2    0    0  0.43038135852E+01 -0.16430272218E+02 -0.78865487198E+01  0.18726299881E+02  0.00000000000E+00 0. -1.
         11    1    3    3    0    0 -0.13915811614E+02 -0.20329350437E+02  0.11679503000E+02  0.27264319039E+02  0.51100000000E-03 0. -1.
        -11    1    3    3    0    0  0.84069323550E+01  0.86722458459E+01  0.82357753830E+01  0.14618904065E+02  0.51100000000E-03 0.  1.
         12    1    3    3    0    0  0.12050656740E+01  0.28087376809E+02 -0.12028729663E+02  0.30578477015E+02  0.00000000000E+00 0. -1.
</event>
<event>
 7    1  0.1333056E-013  0.7246156E+02  0.7816164E-02  0.1226708E+00
        -11   -1    0    0    0    0  0.00000000000E+00  0.00000000000E+00  0.45593999997E+02  0.45594000000E+02  0.51100000000E-03 0. -1.
         11   -1    0    0    0    0 -0.00000000000E+00 -0.00000000000E+00 -0.45593999997E+02  0.45594000000E+02  0.51100000000E-03 0.  1.
    9900012    2    1    2    0    0 -0.87566555420E+01  0.12354105262E+02 -0.11017108845E+02  0.72461558255E+02  0.69999984317E+02 0.  0.
         12    1    1    2    0    0  0.87566555420E+01 -0.12354105262E+02  0.11017108845E+02  0.18726441745E+02  0.00000000000E+00 0. -1.
         11    1    3    3    0    0 -0.92881556742E+01 -0.95101953805E+01  0.10563854654E+02  0.16979654809E+02  0.51100000000E-03 0. -1.
        -11    1    3    3    0    0 -0.68503936040E+00  0.27642250286E+02 -0.32741767187E+02  0.42855415044E+02  0.51100000000E-03 0.  1.
        -12    1    3    3    0    0  0.12165394927E+01 -0.57779496434E+01  0.11160803688E+02  0.12626488403E+02  0.00000000000E+00 0.  1.
</event>
<event>
 7    1  0.1333056E-013  0.7246149E+02  0.7816164E-02  0.1226708E+00
        -11   -1    0    0    0    0  0.00000000000E+00  0.00000000000E+00  0.45593999997E+02  0.45594000000E+02  0.51100000000E-03 0. -1.
         11   -1    0    0    0    0 -0.00000000000E+00 -0.00000000000E+00 -0.45593999997E+02  0.45594000000E+02  0.51100000000E-03 0.  1.
    9900012    2    1    2    0    0 -0.27239743530E+01  0.18431227033E+02  0.18846573643E+01  0.72461492061E+02  0.69999898086E+02 0.  0.
         12    1    1    2    0    0  0.27239743530E+01 -0.18431227033E+02 -0.18846573643E+01  0.18726507939E+02  0.00000000000E+00 0. -1.
         11    1    3    3    0    0  0.97188087744E+00  0.16785349953E+02  0.26529121047E+02  0.31408387244E+02  0.51100000000E-03 0. -1.
        -11    1    3    3    0    0 -0.23247863320E+01  0.99166457005E+01 -0.29607528958E+02  0.31310545583E+02  0.51100000000E-03 0.  1.
        -12    1    3    3    0    0 -0.13710688984E+01 -0.82707686202E+01  0.49630652757E+01  0.97425592338E+01  0.00000000000E+00 0.  1.
</event>
<event>
 7    1  0.1333056E-013  0.7246157E+02  0.7816164E-02  0.1226708E+00
        -11   -1    0    0    0    0  0.00000000000E+00  0.00000000000E+00  0.45593999997E+02  0.45594000000E+02  0.51100000000E-03 0.  1.
         11   -1    0    0    0    0 -0.00000000000E+00 -0.00000000000E+00 -0.45593999997E+02  0.45594000000E+02  0.51100000000E-03 0. -1.
    9900012    2    1    2    0    0 -0.46608735344E+01 -0.18027224721E+02  0.19936194273E+01  0.72461572373E+02  0.70000002708E+02 0.  0.
         12    1    1    2    0    0  0.46608735344E+01  0.18027224721E+02 -0.19936194273E+01  0.18726427627E+02  0.00000000000E+00 0. -1.
         11    1    3    3    0    0 -0.10982042809E+02  0.17846455457E+02 -0.25622021190E+01  0.21110805683E+02  0.51100000000E-03 0. -1.
        -11    1    3    3    0    0  0.17617229945E+02 -0.26366878603E+02  0.13079984752E+02  0.34302552085E+02  0.51100000000E-03 0.  1.
        -12    1    3    3    0    0 -0.11296060670E+02 -0.95068015752E+01 -0.85241632060E+01  0.17048214605E+02  0.00000000000E+00 0.  1.
</event>
<event>
 7    1  0.1333056E-013  0.7246160E+02  0.7816164E-02  0.1226708E+00
        -11   -1    0    0    0    0  0.00000000000E+00  0.00000000000E+00  0.45593999997E+02  0.45594000000E+02  0.51100000000E-03 0.  1.
         11   -1    0    0    0    0 -0.00000000000E+00 -0.00000000000E+00 -0.45593999997E+02  0.45594000000E+02  0.51100000000E-03 0. -1.
    9900012    2    1    2    0    0  0.14220083129E+02 -0.51870964813E+01  0.11025481050E+02  0.72461602416E+02  0.70000041844E+02 0.  0.
         12    1    1    2    0    0 -0.14220083129E+02  0.51870964813E+01 -0.11025481050E+02  0.18726397584E+02  0.00000000000E+00 0. -1.
         11    1    3    3    0    0  0.25452469364E+02 -0.24968481941E+02 -0.44044273093E+01  0.35925649157E+02  0.51100000000E-03 0. -1.
        -11    1    3    3    0    0 -0.48746957286E+00 -0.10177653029E+01  0.12944676330E+02  0.12993772291E+02  0.51100000000E-03 0.  1.
         12    1    3    3    0    0 -0.10744916663E+02  0.20799150762E+02  0.24852320292E+01  0.23542180969E+02  0.00000000000E+00 0. -1.
</event>
<event>
 7    1  0.1333056E-013  0.7246210E+02  0.7816164E-02  0.1226707E+00
        -11   -1    0    0    0    0  0.00000000000E+00  0.00000000000E+00  0.45593999997E+02  0.45594000000E+02  0.51100000000E-03 0.  1.
         11   -1    0    0    0    0 -0.00000000000E+00 -0.00000000000E+00 -0.45593999997E+02  0.45594000000E+02  0.51100000000E-03 0. -1.
    9900012    2    1    2    0    0 -0.98391064325E+01 -0.53205887984E+01  0.15018082773E+02  0.72462095730E+02  0.70000684475E+02 0.  0.
         12    1    1    2    0    0  0.98391064325E+01  0.53205887984E+01 -0.15018082773E+02  0.18725904270E+02  0.00000000000E+00 0. -1.
         11    1    3    3    0    0  0.17461471000E+02 -0.52050244844E+01 -0.39144529452E+01  0.18636474761E+02  0.51100000000E-03 0. -1.
        -11    1    3    3    0    0 -0.13587680790E+02  0.19062404584E+02  0.19156248834E+02  0.30248342226E+02  0.51100000000E-03 0.  1.
        -12    1    3    3    0    0 -0.13712896643E+02 -0.19177968898E+02 -0.22371311592E+00  0.23577278744E+02  0.00000000000E+00 0.  1.
</event>
<event>
 7    1  0.1333056E-013  0.7246155E+02  0.7816164E-02  0.1226708E+00
        -11   -1    0    0    0    0  0.00000000000E+00  0.00000000000E+00  0.45593999997E+02  0.45594000000E+02  0.51100000000E-03 0. -1.
         11   -1    0    0    0    0 -0.00000000000E+00 -0.00000000000E+00 -0.45593999997E+02  0.45594000000E+02  0.51100000000E-03 0.  1.
    9900012    2    1    2    0    0 -0.36694596309E+01  0.17743771588E+02  0.47300559197E+01  0.72461553643E+02  0.69999978309E+02 0.  0.
         12    1    1    2    0    0  0.36694596309E+01 -0.17743771588E+02 -0.47300559197E+01  0.18726446357E+02  0.00000000000E+00 0. -1.
         11    1    3    3    0    0  0.52623017188E+01  0.22351411237E+02  0.33032245427E+02  0.40229425075E+02  0.51100000000E-03 0. -1.
        -11    1    3    3    0    0 -0.29051349556E+00  0.31017535565E+01 -0.10841654350E+02  0.11280369787E+02  0.51100000000E-03 0.  1.
         12    1    3    3    0    0 -0.86412478542E+01 -0.77093932055E+01 -0.17460535157E+02  0.20951758781E+02  0.00000000000E+00 0. -1.
</event>
<event>
 7    1  0.1333056E-013  0.7246158E+02  0.7816164E-02  0.1226708E+00
        -11   -1    0    0    0    0  0.00000000000E+00  0.00000000000E+00  0.45593999997E+02  0.45594000000E+02  0.51100000000E-03 0. -1.
         11   -1    0    0    0    0 -0.00000000000E+00 -0.00000000000E+00 -0.45593999997E+02  0.45594000000E+02  0.51100000000E-03 0.  1.
    9900012    2    1    2    0    0  0.12333761921E+02  0.10074700693E+02 -0.98517685557E+01  0.72461584944E+02  0.70000019085E+02 0.  0.
         12    1    1    2    0    0 -0.12333761921E+02 -0.10074700693E+02  0.98517685557E+01  0.18726415056E+02  0.00000000000E+00 0. -1.
         11    1    3    3    0    0 -0.14092963380E+01  0.12399609999E+02  0.12080707745E+02  0.17368936185E+02  0.51100000000E-03 0. -1.
        -11    1    3    3    0    0 -0.13699741398E+02 -0.12384829635E+02 -0.17661328921E+02  0.25553658426E+02  0.51100000000E-03 0.  1.
        -12    1    3    3    0    0  0.27442799656E+02  0.10059920328E+02 -0.42711473805E+01  0.29538990334E+02  0.00000000000E+00 0.  1.
</event>
<event>
 7    1  0.1333056E-013  0.7246171E+02  0.7816164E-02  0.1226708E+00
        -11   -1    0    0    0    0  0.00000000000E+00  0.00000000000E+00  0.45593999997E+02  0.45594000000E+02  0.51100000000E-03 0. -1.
         11   -1    0    0    0    0 -0.00000000000E+00 -0.00000000000E+00 -0.45593999997E+02  0.45594000000E+02  0.51100000000E-03 0.  1.
    9900012    2    1    2    0    0 -0.11373568931E+02 -0.51757598497E+01 -0.13947305607E+02  0.72461711154E+02  0.70000183496E+02 0.  0.
         12    1    1    2    0    0  0.11373568931E+02  0.51757598497E+01  0.13947305607E+02  0.18726288846E+02  0.00000000000E+00 0. -1.
         11    1    3    3    0    0  0.19371255172E+02 -0.58286564665E+01 -0.25925962533E+02  0.32884256061E+02  0.51100000000E-03 0.  1.
        -11    1    3    3    0    0 -0.26552043928E+02 -0.68872618785E+01  0.13880709547E+02  0.30742796078E+02  0.51100000000E-03 0. -1.
        -12    1    3    3    0    0 -0.41927801755E+01  0.75401584954E+01 -0.19020526210E+01  0.88346590148E+01  0.00000000000E+00 0.  1.
</event>
<event>
 7    1  0.1333056E-013  0.7246155E+02  0.7816164E-02  0.1226708E+00
        -11   -1    0    0    0    0  0.00000000000E+00  0.00000000000E+00  0.45593999997E+02  0.45594000000E+02  0.51100000000E-03 0. -1.
         11   -1    0    0    0    0 -0.00000000000E+00 -0.00000000000E+00 -0.45593999997E+02  0.45594000000E+02  0.51100000000E-03 0.  1.
    9900012    2    1    2    0    0 -0.17674590650E+01  0.17067928656E+02 -0.74994508197E+01  0.72461551785E+02  0.69999975888E+02 0.  0.
         12    1    1    2    0    0  0.17674590650E+01 -0.17067928656E+02  0.74994508197E+01  0.18726448215E+02  0.00000000000E+00 0. -1.
         11    1    3    3    0    0  0.88822925888E+01  0.71185606727E+01 -0.20209382067E+01  0.11560848549E+02  0.51100000000E-03 0. -1.
        -11    1    3    3    0    0  0.71824496287E+01 -0.19341378327E+02  0.10406994273E+02  0.23108051158E+02  0.51100000000E-03 0.  1.
        -12    1    3    3    0    0 -0.17832201283E+02  0.29290746311E+02 -0.15885506886E+02  0.37792652077E+02  0.00000000000E+00 0.  1.
</event>
<event>
 7    1  0.1333056E-013  0.7246175E+02  0.7816164E-02  0.1226708E+00
        -11   -1    0    0    0    0  0.00000000000E+00  0.00000000000E+00  0.45593999997E+02  0.45594000000E+02  0.51100000000E-03 0.  1.
         11   -1    0    0    0    0 -0.00000000000E+00 -0.00000000000E+00 -0.45593999997E+02  0.45594000000E+02  0.51100000000E-03 0. -1.
    9900012    2    1    2    0    0  0.40909523428E+01  0.12149074594E+02  0.13650516373E+02  0.72461748324E+02  0.70000231917E+02 0.  0.
         12    1    1    2    0    0 -0.40909523428E+01 -0.12149074594E+02 -0.13650516373E+02  0.18726251676E+02  0.00000000000E+00 0. -1.
         11    1    3    3    0    0 -0.19904910337E+02  0.54311692591E+01  0.18813072110E+02  0.27921940075E+02  0.51100000000E-03 0. -1.
        -11    1    3    3    0    0  0.21414145561E+02 -0.10540023891E+02  0.49443003415E+01  0.24374245421E+02  0.51100000000E-03 0.  1.
         12    1    3    3    0    0  0.25817171192E+01  0.17257929225E+02 -0.10106856078E+02  0.20165562829E+02  0.00000000000E+00 0. -1.
</event>
<event>
 7    1  0.1333056E-013  0.7246198E+02  0.7816164E-02  0.1226707E+00
        -11   -1    0    0    0    0  0.00000000000E+00  0.00000000000E+00  0.45593999997E+02  0.45594000000E+02  0.51100000000E-03 0.  1.
         11   -1    0    0    0    0 -0.00000000000E+00 -0.00000000000E+00 -0.45593999997E+02  0.45594000000E+02  0.51100000000E-03 0. -1.
    9900012    2    1    2    0    0 -0.49088386041E+01  0.15526613478E+02  0.92461571565E+01  0.72461979475E+02  0.70000533032E+02 0.  0.
         12    1    1    2    0    0  0.49088386041E+01 -0.15526613478E+02 -0.92461571565E+01  0.18726020525E+02  0.00000000000E+00 0. -1.
         11    1    3    3    0    0 -0.19449639141E+02 -0.15833128399E+02  0.23501230459E+02  0.34369815987E+02  0.51100000000E-03 0. -1.
        -11    1    3    3    0    0  0.17610625263E+01  0.10438945292E+02 -0.23732785212E+01  0.10849210627E+02  0.51100000000E-03 0.  1.
         12    1    3    3    0    0  0.12779738011E+02  0.20920796585E+02 -0.11881794781E+02  0.27242952861E+02  0.00000000000E+00 0. -1.
</event>
<event>
 7    1  0.1333056E-013  0.7246164E+02  0.7816164E-02  0.1226708E+00
        -11   -1    0    0    0    0  0.00000000000E+00  0.00000000000E+00  0.45593999997E+02  0.45594000000E+02  0.51100000000E-03 0. -1.
         11   -1    0    0    0    0 -0.00000000000E+00 -0.00000000000E+00 -0.45593999997E+02  0.45594000000E+02  0.51100000000E-03 0.  1.
    9900012    2    1    2    0    0  0.17834112099E+02  0.25706160311E+01 -0.51002815084E+01  0.72461641769E+02  0.70000093108E+02 0.  0.
         12    1    1    2    0    0 -0.17834112099E+02 -0.25706160311E+01  0.51002815084E+01  0.18726358231E+02  0.00000000000E+00 0. -1.
         11    1    3    3    0    0 -0.10400985935E+02 -0.10621262872E+02  0.42471567187E+01  0.15460597461E+02  0.51100000000E-03 0. -1.
        -11    1    3    3    0    0  0.29191988692E+02 -0.67680687743E+00 -0.23261271898E+02  0.37332519898E+02  0.51100000000E-03 0.  1.
        -12    1    3    3    0    0 -0.95689065824E+00  0.13868685780E+02  0.13913833671E+02  0.19668524409E+02  0.00000000000E+00 0.  1.
</event>
<event>
 7    1  0.1333056E-013  0.7246158E+02  0.7816164E-02  0.1226708E+00
        -11   -1    0    0    0    0  0.00000000000E+00  0.00000000000E+00  0.45593999997E+02  0.45594000000E+02  0.51100000000E-03 0.  1.
         11   -1    0    0    0    0 -0.00000000000E+00 -0.00000000000E+00 -0.45593999997E+02  0.45594000000E+02  0.51100000000E-03 0. -1.
    9900012    2    1    2    0    0  0.80671717130E+01  0.14708769685E+02  0.83217610511E+01  0.72461578236E+02  0.70000010345E+02 0.  0.
         12    1    1    2    0    0 -0.80671717130E+01 -0.14708769685E+02 -0.83217610511E+01  0.18726421764E+02  0.00000000000E+00 0. -1.
         11    1    3    3    0    0  0.34570822448E+02  0.11207559010E+02 -0.87041841959E+01  0.37369960750E+02  0.51100000000E-03 0. -1.
        -11    1    3    3    0    0 -0.51104408758E+01  0.72914820771E+01  0.59077023301E+01  0.10685656925E+02  0.51100000000E-03 0.  1.
         12    1    3    3    0    0 -0.21393209859E+02 -0.37902714022E+01  0.11118242917E+02  0.24405960561E+02  0.00000000000E+00 0. -1.
</event>
<event>
 7    1  0.1808348E-013  0.7246152E+02  0.7816164E-02  0.1226708E+00
        -11   -1    0    0    0    0  0.00000000000E+00  0.00000000000E+00  0.45593999997E+02  0.45594000000E+02  0.51100000000E-03 0. -1.
         11   -1    0    0    0    0 -0.00000000000E+00 -0.00000000000E+00 -0.45593999997E+02  0.45594000000E+02  0.51100000000E-03 0.  1.
    9900012    2    1    2    0    0 -0.11656869147E+02 -0.47959629876E+00 -0.14648153547E+02  0.72461521066E+02  0.69999935871E+02 0.  0.
         12    1    1    2    0    0  0.11656869147E+02  0.47959629876E+00  0.14648153547E+02  0.18726478934E+02  0.00000000000E+00 0. -1.
         11    1    3    3    0    0 -0.93493994324E+01 -0.22821641472E+02  0.42759861476E+01  0.25030434415E+02  0.51100000000E-03 0. -1.
        -11    1    3    3    0    0 -0.62414214507E+01  0.23312559532E+02  0.37276178624E+01  0.24419785192E+02  0.51100000000E-03 0.  1.
        -12    1    3    3    0    0  0.39339517363E+01 -0.97051435877E+00 -0.22651757557E+02  0.23011301458E+02  0.00000000000E+00 0.  1.
</event>
<event>
 7    1  0.1333056E-013  0.7246158E+02  0.7816164E-02  0.1226708E+00
        -11   -1    0    0    0    0  0.00000000000E+00  0.00000000000E+00  0.45593999997E+02  0.45594000000E+02  0.51100000000E-03 0.  1.
         11   -1    0    0    0    0 -0.00000000000E+00 -0.00000000000E+00 -0.45593999997E+02  0.45594000000E+02  0.51100000000E-03 0. -1.
    9900012    2    1    2    0    0  0.76615375276E+01 -0.81329247030E+01  0.15027811166E+02  0.72461582031E+02  0.70000015289E+02 0.  0.
         12    1    1    2    0    0 -0.76615375276E+01  0.81329247030E+01 -0.15027811166E+02  0.18726417969E+02  0.00000000000E+00 0. -1.
         11    1    3    3    0    0  0.80320781517E+01 -0.63103708880E+01  0.63878145666E+01  0.12047374626E+02  0.51100000000E-03 0. -1.
        -11    1    3    3    0    0 -0.25969136670E+02 -0.34570412194E+01 -0.10690263468E+02  0.28295387021E+02  0.51100000000E-03 0.  1.
        -12    1    3    3    0    0  0.25598596046E+02  0.16344874044E+01  0.19330260067E+02  0.32118820384E+02  0.00000000000E+00 0.  1.
</event>
<event>
 7    1  0.1333056E-013  0.7246156E+02  0.7816164E-02  0.1226708E+00
        -11   -1    0    0    0    0  0.00000000000E+00  0.00000000000E+00  0.45593999997E+02  0.45594000000E+02  0.51100000000E-03 0.  1.
         11   -1    0    0    0    0 -0.00000000000E+00 -0.00000000000E+00 -0.45593999997E+02  0.45594000000E+02  0.51100000000E-03 0. -1.
    9900012    2    1    2    0    0  0.65714994041E+01 -0.14117616240E+02  0.10401342258E+02  0.72461558440E+02  0.69999984558E+02 0.  0.
         12    1    1    2    0    0 -0.65714994041E+01  0.14117616240E+02 -0.10401342258E+02  0.18726441560E+02  0.00000000000E+00 0. -1.
         11    1    3    3    0    0  0.76215418909E+01  0.98683324246E+01 -0.11591344163E+02  0.17024427902E+02  0.51100000000E-03 0. -1.
        -11    1    3    3    0    0  0.10688735945E+01 -0.36205034816E+02  0.86865296363E+01  0.37247856773E+02  0.51100000000E-03 0.  1.
         12    1    3    3    0    0 -0.21189160813E+01  0.12219086151E+02  0.13306156785E+02  0.18189273765E+02  0.00000000000E+00 0. -1.
</event>
<event>
 7    1  0.1333056E-013  0.7246157E+02  0.7816164E-02  0.1226708E+00
        -11   -1    0    0    0    0  0.00000000000E+00  0.00000000000E+00  0.45593999997E+02  0.45594000000E+02  0.51100000000E-03 0.  1.
         11   -1    0    0    0    0 -0.00000000000E+00 -0.00000000000E+00 -0.45593999997E+02  0.45594000000E+02  0.51100000000E-03 0. -1.
    9900012    2    1    2    0    0 -0.13562674625E+02  0.91042660073E+01 -0.91567122055E+01  0.72461569990E+02  0.69999999603E+02 0.  0.
         12    1    1    2    0    0  0.13562674625E+02 -0.91042660073E+01  0.91567122055E+01  0.18726430010E+02  0.00000000000E+00 0. -1.
         11    1    3    3    0    0  0.20760679726E+02  0.31696609390E+01 -0.32042812297E+01  0.21244293154E+02  0.51100000000E-03 0. -1.
        -11    1    3    3    0    0 -0.27116767533E+02  0.12920669732E+02 -0.18401463547E+02  0.35226079099E+02  0.51100000000E-03 0.  1.
         12    1    3    3    0    0 -0.72065868188E+01 -0.69860646638E+01  0.12449032572E+02  0.15991197736E+02  0.00000000000E+00 0. -1.
</event>
<event>
 7    1  0.1333056E-013  0.7246151E+02  0.7816164E-02  0.1226708E+00
        -11   -1    0    0    0    0  0.00000000000E+00  0.00000000000E+00  0.45593999997E+02  0.45594000000E+02  0.51100000000E-03 0.  1.
         11   -1    0    0    0    0 -0.00000000000E+00 -0.00000000000E+00 -0.45593999997E+02  0.45594000000E+02  0.51100000000E-03 0. -1.
    9900012    2    1    2    0    0  0.36761003263E+01 -0.10057753878E+02  0.15362594681E+02  0.72461509619E+02  0.69999920959E+02 0.  0.
         12    1    1    2    0    0 -0.36761003263E+01  0.10057753878E+02 -0.15362594681E+02  0.18726490381E+02  0.00000000000E+00 0. -1.
         11    1    3    3    0    0 -0.19952950204E+01  0.44361221141E+01 -0.21593513792E+02  0.22134593282E+02  0.51100000000E-03 0. -1.
        -11    1    3    3    0    0 -0.69795286678E+01  0.57233435112E+01  0.16926076195E+02  0.19182349622E+02  0.51100000000E-03 0.  1.
         12    1    3    3    0    0  0.12650924014E+02 -0.20217219503E+02  0.20030032277E+02  0.31144566715E+02  0.00000000000E+00 0. -1.
</event>
<event>
 7    1  0.1333056E-013  0.7246157E+02  0.7816164E-02  0.1226708E+00
        -11   -1    0    0    0    0  0.00000000000E+00  0.00000000000E+00  0.45593999997E+02  0.45594000000E+02  0.51100000000E-03 0. -1.
         11   -1    0    0    0    0 -0.00000000000E+00 -0.00000000000E+00 -0.45593999997E+02  0.45594000000E+02  0.51100000000E-03 0.  1.
    9900012    2    1    2    0    0 -0.18487916364E+02  0.27998559825E+01 -0.10183413357E+01  0.72461567770E+02  0.69999996711E+02 0.  0.
         12    1    1    2    0    0  0.18487916364E+02 -0.27998559825E+01  0.10183413357E+01  0.18726432230E+02  0.00000000000E+00 0. -1.
         11    1    3    3    0    0 -0.40508190451E+01 -0.39377933703E+01  0.68077955239E+01  0.88465491419E+01  0.51100000000E-03 0. -1.
        -11    1    3    3    0    0  0.21640994134E+01  0.88003647430E+01 -0.32536196276E+02  0.33774751135E+02  0.51100000000E-03 0.  1.
        -12    1    3    3    0    0 -0.16601196732E+02 -0.20627153902E+01  0.24710059416E+02  0.29840267493E+02  0.00000000000E+00 0.  1.
</event>
<event>
 7    1  0.1333056E-013  0.7246158E+02  0.7816164E-02  0.1226708E+00
        -11   -1    0    0    0    0  0.00000000000E+00  0.00000000000E+00  0.45593999997E+02  0.45594000000E+02  0.51100000000E-03 0. -1.
         11   -1    0    0    0    0 -0.00000000000E+00 -0.00000000000E+00 -0.45593999997E+02  0.45594000000E+02  0.51100000000E-03 0.  1.
    9900012    2    1    2    0    0  0.33068379277E+01 -0.11719949039E+02 -0.14226254209E+02  0.72461583061E+02  0.70000016631E+02 0.  0.
         12    1    1    2    0    0 -0.33068379277E+01  0.11719949039E+02  0.14226254209E+02  0.18726416939E+02  0.00000000000E+00 0. -1.
         11    1    3    3    0    0  0.53606916970E+01  0.25555495803E+02 -0.70824772769E+01  0.27055163386E+02  0.51100000000E-03 0. -1.
        -11    1    3    3    0    0 -0.85685378190E+01 -0.17814797601E+01 -0.15762903614E+01  0.88925925385E+01  0.51100000000E-03 0.  1.
         12    1    3    3    0    0  0.65146840497E+01 -0.35493965081E+02 -0.55674865708E+01  0.36513827137E+02  0.00000000000E+00 0. -1.
</event>
<event>
 7    1  0.1333056E-013  0.7246160E+02  0.7816164E-02  0.1226708E+00
        -11   -1    0    0    0    0  0.00000000000E+00  0.00000000000E+00  0.45593999997E+02  0.45594000000E+02  0.51100000000E-03 0.  1.
         11   -1    0    0    0    0 -0.00000000000E+00 -0.00000000000E+00 -0.45593999997E+02  0.45594000000E+02  0.51100000000E-03 0. -1.
    9900012    2    1    2    0    0 -0.11111033953E+02 -0.12932908887E+02  0.77435584733E+01  0.72461604041E+02  0.70000043961E+02 0.  0.
         12    1    1    2    0    0  0.11111033953E+02  0.12932908887E+02 -0.77435584733E+01  0.18726395959E+02  0.00000000000E+00 0. -1.
         11    1    3    3    0    0 -0.27184204161E+02  0.58478035935E+01 -0.17989593383E+02  0.33118019764E+02  0.51100000000E-03 0. -1.
        -11    1    3    3    0    0  0.52374680436E+01  0.14886345637E+01  0.10325326164E+02  0.11673022960E+02  0.51100000000E-03 0.  1.
         12    1    3    3    0    0  0.10835702165E+02 -0.20269347044E+02  0.15407825692E+02  0.27670561317E+02  0.00000000000E+00 0. -1.
</event>
<event>
 7    1  0.1333056E-013  0.7246157E+02  0.7816164E-02  0.1226708E+00
        -11   -1    0    0    0    0  0.00000000000E+00  0.00000000000E+00  0.45593999997E+02  0.45594000000E+02  0.51100000000E-03 0. -1.
         11   -1    0    0    0    0 -0.00000000000E+00 -0.00000000000E+00 -0.45593999997E+02  0.45594000000E+02  0.51100000000E-03 0.  1.
    9900012    2    1    2    0    0 -0.16001058096E+01  0.55954645676E+01 -0.17799147020E+02  0.72461569562E+02  0.69999999046E+02 0.  0.
         12    1    1    2    0    0  0.16001058096E+01 -0.55954645676E+01  0.17799147020E+02  0.18726430438E+02  0.00000000000E+00 0. -1.
         11    1    3    3    0    0  0.12648489473E+02 -0.12530080658E+02 -0.23114700218E+01  0.17953553998E+02  0.51100000000E-03 0. -1.
        -11    1    3    3    0    0  0.88150218462E+01  0.25195309411E+02 -0.17557435164E+01  0.26750530126E+02  0.51100000000E-03 0.  1.
        -12    1    3    3    0    0 -0.23063617129E+02 -0.70697641852E+01 -0.13731933481E+02  0.27757485438E+02  0.00000000000E+00 0.  1.
</event>
<event>
 7    1  0.1333056E-013  0.7246159E+02  0.7816164E-02  0.1226708E+00
        -11   -1    0    0    0    0  0.00000000000E+00  0.00000000000E+00  0.45593999997E+02  0.45594000000E+02  0.51100000000E-03 0.  1.
         11   -1    0    0    0    0 -0.00000000000E+00 -0.00000000000E+00 -0.45593999997E+02  0.45594000000E+02  0.51100000000E-03 0. -1.
    9900012    2    1    2    0    0  0.70039884694E+01 -0.42197097772E+01  0.16846853035E+02  0.72461594519E+02  0.70000031557E+02 0.  0.
         12    1    1    2    0    0 -0.70039884694E+01  0.42197097772E+01 -0.16846853035E+02  0.18726405481E+02  0.00000000000E+00 0. -1.
         11    1    3    3    0    0 -0.75523591393E+01  0.15789739407E+01  0.52667659527E+00  0.77336069057E+01  0.51100000000E-03 0. -1.
        -11    1    3    3    0    0  0.36077337050E+02  0.14920453337E+01  0.20651142503E+02  0.41596515898E+02  0.51100000000E-03 0.  1.
        -12    1    3    3    0    0 -0.21520989442E+02 -0.72907290516E+01 -0.43309660633E+01  0.23131471715E+02  0.00000000000E+00 0.  1.
</event>
<event>
 7    1  0.1333056E-013  0.7246198E+02  0.7816164E-02  0.1226707E+00
        -11   -1    0    0    0    0  0.00000000000E+00  0.00000000000E+00  0.45593999997E+02  0.45594000000E+02  0.51100000000E-03 0. -1.
         11   -1    0    0    0    0 -0.00000000000E+00 -0.00000000000E+00 -0.45593999997E+02  0.45594000000E+02  0.51100000000E-03 0.  1.
    9900012    2    1    2    0    0 -0.16812903608E+02 -0.31064231001E+01 -0.76380892411E+01  0.72461975343E+02  0.70000527649E+02 0.  0.
         12    1    1    2    0    0  0.16812903608E+02  0.31064231001E+01  0.76380892411E+01  0.18726024657E+02  0.00000000000E+00 0. -1.
         11    1    3    3    0    0 -0.11675731861E+02  0.20956388632E+02 -0.11986353339E+02  0.26817263201E+02  0.51100000000E-03 0. -1.
        -11    1    3    3    0    0 -0.55240451964E+01 -0.28730087608E+02  0.15815838195E+02  0.33257687041E+02  0.51100000000E-03 0.  1.
        -12    1    3    3    0    0  0.38687344952E+00  0.46672758761E+01 -0.11467574097E+02  0.12387025101E+02  0.00000000000E+00 0.  1.
</event>
<event>
 7    1  0.1333056E-013  0.7246160E+02  0.7816164E-02  0.1226708E+00
        -11   -1    0    0    0    0  0.00000000000E+00  0.00000000000E+00  0.45593999997E+02  0.45594000000E+02  0.51100000000E-03 0. -1.
         11   -1    0    0    0    0 -0.00000000000E+00 -0.00000000000E+00 -0.45593999997E+02  0.45594000000E+02  0.51100000000E-03 0.  1.
    9900012    2    1    2    0    0  0.99681595464E+01 -0.54640835441E+01 -0.14881457806E+02  0.72461596177E+02  0.70000033717E+02 0.  0.
         12    1    1    2    0    0 -0.99681595464E+01  0.54640835441E+01  0.14881457806E+02  0.18726403823E+02  0.00000000000E+00 0. -1.
         11    1    3    3    0    0 -0.15681258407E+02 -0.14816181087E+02  0.82813504078E+01  0.23108480090E+02  0.51100000000E-03 0. -1.
        -11    1    3    3    0    0  0.27128726546E+02 -0.27244398187E+01 -0.53554476018E+01  0.27786169142E+02  0.51100000000E-03 0.  1.
         12    1    3    3    0    0 -0.14793085929E+01  0.12076537361E+02 -0.17807360612E+02  0.21566946945E+02  0.00000000000E+00 0. -1.
</event>
<event>
 7    1  0.1333056E-013  0.7246157E+02  0.7816164E-02  0.1226708E+00
        -11   -1    0    0    0    0  0.00000000000E+00  0.00000000000E+00  0.45593999997E+02  0.45594000000E+02  0.51100000000E-03 0. -1.
         11   -1    0    0    0    0 -0.00000000000E+00 -0.00000000000E+00 -0.45593999997E+02  0.45594000000E+02  0.51100000000E-03 0.  1.
    9900012    2    1    2    0    0 -0.12590956690E+01  0.14413554906E+02 -0.11888789578E+02  0.72461569359E+02  0.69999998781E+02 0.  0.
         12    1    1    2    0    0  0.12590956690E+01 -0.14413554906E+02  0.11888789578E+02  0.18726430641E+02  0.00000000000E+00 0. -1.
         11    1    3    3    0    0  0.24277392660E+02  0.94969878271E+01 -0.14300433669E+02  0.29733600111E+02  0.51100000000E-03 0. -1.
        -11    1    3    3    0    0 -0.22004320340E+02  0.18295249226E+02 -0.34659938184E+00  0.28618637097E+02  0.51100000000E-03 0.  1.
         12    1    3    3    0    0 -0.35321679890E+01 -0.13378682147E+02  0.27582434734E+01  0.14109332151E+02  0.00000000000E+00 0. -1.
</event>
<event>
 7    1  0.1333056E-013  0.7246159E+02  0.7816164E-02  0.1226708E+00
        -11   -1    0    0    0    0  0.00000000000E+00  0.00000000000E+00  0.45593999997E+02  0.45594000000E+02  0.51100000000E-03 0.  1.
         11   -1    0    0    0    0 -0.00000000000E+00 -0.00000000000E+00 -0.45593999997E+02  0.45594000000E+02  0.51100000000E-03 0. -1.
    9900012    2    1    2    0    0  0.16227199449E+01  0.91810042006E+01  0.16240515322E+02  0.72461590946E+02  0.70000026902E+02 0.  0.
         12    1    1    2    0    0 -0.16227199449E+01 -0.91810042006E+01 -0.16240515322E+02  0.18726409054E+02  0.00000000000E+00 0. -1.
         11    1    3    3    0    0 -0.12714720614E+01  0.17233491075E+02 -0.18565557468E+02  0.25363157930E+02  0.51100000000E-03 0. -1.
        -11    1    3    3    0    0 -0.33085204162E+01 -0.17453844341E+02  0.29973247963E+02  0.34842195444E+02  0.51100000000E-03 0.  1.
        -12    1    3    3    0    0  0.62027124226E+01  0.94013574665E+01  0.48328248271E+01  0.12256237572E+02  0.00000000000E+00 0.  1.
</event>
<event>
 7    1  0.1333056E-013  0.7246157E+02  0.7816164E-02  0.1226708E+00
        -11   -1    0    0    0    0  0.00000000000E+00  0.00000000000E+00  0.45593999997E+02  0.45594000000E+02  0.51100000000E-03 0.  1.
         11   -1    0    0    0    0 -0.00000000000E+00 -0.00000000000E+00 -0.45593999997E+02  0.45594000000E+02  0.51100000000E-03 0. -1.
    9900012    2    1    2    0    0  0.54339847227E+01  0.14878448227E+02  0.99891236653E+01  0.72461574735E+02  0.70000005785E+02 0.  0.
         12    1    1    2    0    0 -0.54339847227E+01 -0.14878448227E+02 -0.99891236653E+01  0.18726425265E+02  0.00000000000E+00 0. -1.
         11    1    3    3    0    0 -0.14045827348E+02 -0.10188280576E+01  0.46451221579E+01  0.14829040314E+02  0.51100000000E-03 0.  1.
        -11    1    3    3    0    0  0.11506726233E+02  0.29263713267E+02 -0.12603578190E+02  0.33876538286E+02  0.51100000000E-03 0. -1.
        -12    1    3    3    0    0  0.79730858379E+01 -0.13366436982E+02  0.17947579698E+02  0.23755996135E+02  0.00000000000E+00 0.  1.
</event>
<event>
 7    1  0.1333056E-013  0.7246158E+02  0.7816164E-02  0.1226708E+00
        -11   -1    0    0    0    0  0.00000000000E+00  0.00000000000E+00  0.45593999997E+02  0.45594000000E+02  0.51100000000E-03 0.  1.
         11   -1    0    0    0    0 -0.00000000000E+00 -0.00000000000E+00 -0.45593999997E+02  0.45594000000E+02  0.51100000000E-03 0. -1.
    9900012    2    1    2    0    0  0.91367987017E+01  0.94272494416E+01  0.13353827600E+02  0.72461579249E+02  0.70000011666E+02 0.  0.
         12    1    1    2    0    0 -0.91367987017E+01 -0.94272494416E+01 -0.13353827600E+02  0.18726420751E+02  0.00000000000E+00 0. -1.
         11    1    3    3    0    0 -0.86285285192E+00 -0.10034595592E+02  0.23573653618E+02  0.25635030113E+02  0.51100000000E-03 0.  1.
        -11    1    3    3    0    0  0.10697799662E+02  0.22999344996E+02 -0.22574682122E+02  0.33956281613E+02  0.51100000000E-03 0. -1.
         12    1    3    3    0    0 -0.69814810819E+00 -0.35374999620E+01  0.12354856104E+02  0.12870267523E+02  0.00000000000E+00 0. -1.
</event>
<event>
 7    1  0.1333056E-013  0.7246157E+02  0.7816164E-02  0.1226708E+00
        -11   -1    0    0    0    0  0.00000000000E+00  0.00000000000E+00  0.45593999997E+02  0.45594000000E+02  0.51100000000E-03 0.  1.
         11   -1    0    0    0    0 -0.00000000000E+00 -0.00000000000E+00 -0.45593999997E+02  0.45594000000E+02  0.51100000000E-03 0. -1.
    9900012    2    1    2    0    0  0.11503898010E+02  0.36897369115E+01  0.14308228260E+02  0.72461568843E+02  0.69999998110E+02 0.  0.
         12    1    1    2    0    0 -0.11503898010E+02 -0.36897369115E+01 -0.14308228260E+02  0.18726431157E+02  0.00000000000E+00 0. -1.
         11    1    3    3    0    0 -0.90762793745E+01  0.65809240662E+01  0.93975289166E+01  0.14628771611E+02  0.51100000000E-03 0. -1.
        -11    1    3    3    0    0  0.13205890034E+02  0.17536280100E+02 -0.16402759697E+02  0.27403780346E+02  0.51100000000E-03 0.  1.
        -12    1    3    3    0    0  0.73742873504E+01 -0.20427467255E+02  0.21313459041E+02  0.30429016886E+02  0.00000000000E+00 0.  1.
</event>
<event>
 7    1  0.1333056E-013  0.7246159E+02  0.7816164E-02  0.1226708E+00
        -11   -1    0    0    0    0  0.00000000000E+00  0.00000000000E+00  0.45593999997E+02  0.45594000000E+02  0.51100000000E-03 0.  1.
         11   -1    0    0    0    0 -0.00000000000E+00 -0.00000000000E+00 -0.45593999997E+02  0.45594000000E+02  0.51100000000E-03 0. -1.
    9900012    2    1    2    0    0 -0.13923469941E+02 -0.52437975377E+01  0.11371803825E+02  0.72461592174E+02  0.70000028503E+02 0.  0.
         12    1    1    2    0    0  0.13923469941E+02  0.52437975377E+01 -0.11371803825E+02  0.18726407826E+02  0.00000000000E+00 0. -1.
         11    1    3    3    0    0 -0.12297283138E+02 -0.13823479275E+02 -0.86372514979E+01  0.20418468736E+02  0.51100000000E-03 0. -1.
        -11    1    3    3    0    0  0.21234492316E+02  0.66543222662E+01  0.10434518616E+01  0.22277173537E+02  0.51100000000E-03 0.  1.
         12    1    3    3    0    0 -0.22860679119E+02  0.19253594710E+01  0.18965603461E+02  0.29765949901E+02  0.00000000000E+00 0. -1.
</event>
<event>
 7    1  0.1333056E-013  0.7246157E+02  0.7816164E-02  0.1226708E+00
        -11   -1    0    0    0    0  0.00000000000E+00  0.00000000000E+00  0.45593999997E+02  0.45594000000E+02  0.51100000000E-03 0.  1.
         11   -1    0    0    0    0 -0.00000000000E+00 -0.00000000000E+00 -0.45593999997E+02  0.45594000000E+02  0.51100000000E-03 0. -1.
    9900012    2    1    2    0    0 -0.27221490195E+01 -0.10081949666E+01  0.18500070409E+02  0.72461570615E+02  0.70000000418E+02 0.  0.
         12    1    1    2    0    0  0.27221490195E+01  0.10081949666E+01 -0.18500070409E+02  0.18726429385E+02  0.00000000000E+00 0. -1.
         11    1    3    3    0    0  0.54357095837E+01  0.17263636997E+02 -0.23088973527E+01  0.18245851811E+02  0.51100000000E-03 0. -1.
        -11    1    3    3    0    0  0.12517288203E+02 -0.25072518606E+02  0.88833194539E+01  0.29397738995E+02  0.51100000000E-03 0.  1.
         12    1    3    3    0    0 -0.20675146807E+02  0.68006866427E+01  0.11925648307E+02  0.24817979810E+02  0.00000000000E+00 0. -1.
</event>
<event>
 7    1  0.1333056E-013  0.7246175E+02  0.7816164E-02  0.1226708E+00
        -11   -1    0    0    0    0  0.00000000000E+00  0.00000000000E+00  0.45593999997E+02  0.45594000000E+02  0.51100000000E-03 0.  1.
         11   -1    0    0    0    0 -0.00000000000E+00 -0.00000000000E+00 -0.45593999997E+02  0.45594000000E+02  0.51100000000E-03 0. -1.
    9900012    2    1    2    0    0 -0.77435722494E+01 -0.13172451265E+02  0.10825706797E+02  0.72461753414E+02  0.70000238547E+02 0.  0.
         12    1    1    2    0    0  0.77435722494E+01  0.13172451265E+02 -0.10825706797E+02  0.18726246586E+02  0.00000000000E+00 0. -1.
         11    1    3    3    0    0  0.94373978699E+01 -0.16872510431E+02 -0.22264822872E+02  0.29486749984E+02  0.51100000000E-03 0. -1.
        -11    1    3    3    0    0 -0.35079379800E+01 -0.63980847859E+01  0.20677789216E+02  0.21927427686E+02  0.51100000000E-03 0.  1.
         12    1    3    3    0    0 -0.13673032139E+02  0.10098143952E+02  0.12412740454E+02  0.21047575745E+02  0.00000000000E+00 0. -1.
</event>
<event>
 7    1  0.1333056E-013  0.7246159E+02  0.7816164E-02  0.1226708E+00
        -11   -1    0    0    0    0  0.00000000000E+00  0.00000000000E+00  0.45593999997E+02  0.45594000000E+02  0.51100000000E-03 0.  1.
         11   -1    0    0    0    0 -0.00000000000E+00 -0.00000000000E+00 -0.45593999997E+02  0.45594000000E+02  0.51100000000E-03 0. -1.
    9900012    2    1    2    0    0  0.87072014028E+01 -0.16574960620E+02  0.36560513013E+00  0.72461592364E+02  0.70000028750E+02 0.  0.
         12    1    1    2    0    0 -0.87072014028E+01  0.16574960620E+02 -0.36560513013E+00  0.18726407636E+02  0.00000000000E+00 0. -1.
         11    1    3    3    0    0 -0.12211619383E+02 -0.12656288351E+02  0.26242192062E+02  0.31590472096E+02  0.51100000000E-03 0.  1.
        -11    1    3    3    0    0  0.93687727013E+01  0.94941341602E+01 -0.15102719903E+02  0.20149556673E+02  0.51100000000E-03 0. -1.
         12    1    3    3    0    0  0.11550048085E+02 -0.13412806429E+02 -0.10773867029E+02  0.20721563595E+02  0.00000000000E+00 0. -1.
</event>
<event>
 7    1  0.1333056E-013  0.7246156E+02  0.7816164E-02  0.1226708E+00
        -11   -1    0    0    0    0  0.00000000000E+00  0.00000000000E+00  0.45593999997E+02  0.45594000000E+02  0.51100000000E-03 0. -1.
         11   -1    0    0    0    0 -0.00000000000E+00 -0.00000000000E+00 -0.45593999997E+02  0.45594000000E+02  0.51100000000E-03 0.  1.
    9900012    2    1    2    0    0 -0.12378395809E+02 -0.12575424782E+02  0.62700631613E+01  0.72461556576E+02  0.69999982129E+02 0.  0.
         12    1    1    2    0    0  0.12378395809E+02  0.12575424782E+02 -0.62700631613E+01  0.18726443424E+02  0.00000000000E+00 0. -1.
         11    1    3    3    0    0  0.95365121248E+01  0.16626622745E+02  0.25869893056E+01  0.19341203720E+02  0.51100000000E-03 0. -1.
        -11    1    3    3    0    0  0.64731798354E+00 -0.27297253168E+02 -0.68451283733E+01  0.28149863832E+02  0.51100000000E-03 0.  1.
         12    1    3    3    0    0 -0.22562225918E+02 -0.19047943594E+01  0.10528202229E+02  0.24970489024E+02  0.00000000000E+00 0. -1.
</event>
<event>
 7    1  0.1333056E-013  0.7246158E+02  0.7816164E-02  0.1226708E+00
        -11   -1    0    0    0    0  0.00000000000E+00  0.00000000000E+00  0.45593999997E+02  0.45594000000E+02  0.51100000000E-03 0.  1.
         11   -1    0    0    0    0 -0.00000000000E+00 -0.00000000000E+00 -0.45593999997E+02  0.45594000000E+02  0.51100000000E-03 0. -1.
    9900012    2    1    2    0    0  0.16497604822E+02  0.65612789772E+00 -0.88361368759E+01  0.72461580599E+02  0.70000013424E+02 0.  0.
         12    1    1    2    0    0 -0.16497604822E+02 -0.65612789772E+00  0.88361368759E+01  0.18726419401E+02  0.00000000000E+00 0. -1.
         11    1    3    3    0    0 -0.46617719332E+01 -0.25381066195E+02  0.57923859265E+01  0.26447729084E+02  0.51100000000E-03 0.  1.
        -11    1    3    3    0    0  0.33013214494E+01  0.25201729210E+02 -0.11358920494E+02  0.27839736952E+02  0.51100000000E-03 0. -1.
        -12    1    3    3    0    0  0.17858055306E+02  0.83546488204E+00 -0.32696023087E+01  0.18174114563E+02  0.00000000000E+00 0.  1.
</event>
<event>
 7    1  0.1333056E-013  0.7246158E+02  0.7816164E-02  0.1226708E+00
        -11   -1    0    0    0    0  0.00000000000E+00  0.00000000000E+00  0.45593999997E+02  0.45594000000E+02  0.51100000000E-03 0. -1.
         11   -1    0    0    0    0 -0.00000000000E+00 -0.00000000000E+00 -0.45593999997E+02  0.45594000000E+02  0.51100000000E-03 0.  1.
    9900012    2    1    2    0    0 -0.49824861919E+01  0.11544581297E+02 -0.13877186845E+02  0.72461579074E+02  0.70000011437E+02 0.  0.
         12    1    1    2    0    0  0.49824861919E+01 -0.11544581297E+02  0.13877186845E+02  0.18726420926E+02  0.00000000000E+00 0. -1.
         11    1    3    3    0    0 -0.24046560431E+02  0.66606964568E+01 -0.45054190654E+01  0.25355487514E+02  0.51100000000E-03 0. -1.
        -11    1    3    3    0    0  0.23109999849E+01 -0.17777143098E+02 -0.25118597622E+01  0.18101850109E+02  0.51100000000E-03 0.  1.
         12    1    3    3    0    0  0.16753074254E+02  0.22661027938E+02 -0.68599080175E+01  0.29004241451E+02  0.00000000000E+00 0. -1.
</event>
<event>
 7    1  0.1333056E-013  0.7246157E+02  0.7816164E-02  0.1226708E+00
        -11   -1    0    0    0    0  0.00000000000E+00  0.00000000000E+00  0.45593999997E+02  0.45594000000E+02  0.51100000000E-03 0. -1.
         11   -1    0    0    0    0 -0.00000000000E+00 -0.00000000000E+00 -0.45593999997E+02  0.45594000000E+02  0.51100000000E-03 0.  1.
    9900012    2    1    2    0    0  0.81219719431E+01 -0.83861173041E+01 -0.14641920140E+02  0.72461569025E+02  0.69999998347E+02 0.  0.
         12    1    1    2    0    0 -0.81219719431E+01  0.83861173041E+01  0.14641920140E+02  0.18726430975E+02  0.00000000000E+00 0. -1.
         11    1    3    3    0    0  0.21800383945E+02  0.23933465687E+01  0.54118238091E+01  0.22589216125E+02  0.51100000000E-03 0. -1.
        -11    1    3    3    0    0 -0.18398061855E+02 -0.74662904152E+01 -0.31396469770E+02  0.37147980925E+02  0.51100000000E-03 0.  1.
        -12    1    3    3    0    0  0.47196498530E+01 -0.33131734576E+01  0.11342725821E+02  0.12724371974E+02  0.00000000000E+00 0.  1.
</event>
<event>
 7    1  0.1333056E-013  0.7246158E+02  0.7816164E-02  0.1226708E+00
        -11   -1    0    0    0    0  0.00000000000E+00  0.00000000000E+00  0.45593999997E+02  0.45594000000E+02  0.51100000000E-03 0. -1.
         11   -1    0    0    0    0 -0.00000000000E+00 -0.00000000000E+00 -0.45593999997E+02  0.45594000000E+02  0.51100000000E-03 0.  1.
    9900012    2    1    2    0    0  0.11216084166E+02  0.14903559689E+02 -0.16620250168E+01  0.72461575820E+02  0.70000007198E+02 0.  0.
         12    1    1    2    0    0 -0.11216084166E+02 -0.14903559689E+02  0.16620250168E+01  0.18726424180E+02  0.00000000000E+00 0. -1.
         11    1    3    3    0    0 -0.13993464959E+02  0.25904416123E+02  0.71835473081E+01  0.30306091606E+02  0.51100000000E-03 0. -1.
        -11    1    3    3    0    0  0.11366455217E+02 -0.11746570683E+02  0.96954551148E+01  0.19004738282E+02  0.51100000000E-03 0.  1.
        -12    1    3    3    0    0  0.13843093908E+02  0.74571424851E+00 -0.18541027440E+02  0.23150745932E+02  0.00000000000E+00 0.  1.
</event>
<event>
 7    1  0.1333056E-013  0.7246145E+02  0.7816164E-02  0.1226708E+00
        -11   -1    0    0    0    0  0.00000000000E+00  0.00000000000E+00  0.45593999997E+02  0.45594000000E+02  0.51100000000E-03 0.  1.
         11   -1    0    0    0    0 -0.00000000000E+00 -0.00000000000E+00 -0.45593999997E+02  0.45594000000E+02  0.51100000000E-03 0. -1.
    9900012    2    1    2    0    0  0.82422923444E+01 -0.21283368241E+01  0.16679876951E+02  0.72461454781E+02  0.69999849523E+02 0.  0.
         12    1    1    2    0    0 -0.82422923444E+01  0.21283368241E+01 -0.16679876951E+02  0.18726545219E+02  0.00000000000E+00 0. -1.
         11    1    3    3    0    0 -0.38042554946E+01  0.49580540675E+01 -0.16443097783E+02  0.17590626054E+02  0.51100000000E-03 0. -1.
        -11    1    3    3    0    0  0.39057654866E+01 -0.23722423614E+02  0.24880815779E+02  0.34598603732E+02  0.51100000000E-03 0.  1.
        -12    1    3    3    0    0  0.81407823524E+01  0.16636032722E+02  0.82421589552E+01  0.20272224996E+02  0.00000000000E+00 0.  1.
</event>
<event>
 7    1  0.1333056E-013  0.7246160E+02  0.7816164E-02  0.1226708E+00
        -11   -1    0    0    0    0  0.00000000000E+00  0.00000000000E+00  0.45593999997E+02  0.45594000000E+02  0.51100000000E-03 0. -1.
         11   -1    0    0    0    0 -0.00000000000E+00 -0.00000000000E+00 -0.45593999997E+02  0.45594000000E+02  0.51100000000E-03 0.  1.
    9900012    2    1    2    0    0  0.12507523070E+02 -0.11022291431E+02 -0.85293028466E+01  0.72461600218E+02  0.70000038981E+02 0.  0.
         12    1    1    2    0    0 -0.12507523070E+02  0.11022291431E+02  0.85293028466E+01  0.18726399782E+02  0.00000000000E+00 0. -1.
         11    1    3    3    0    0 -0.11503486511E+02  0.55107437385E+01 -0.46822772966E+01  0.13587575921E+02  0.51100000000E-03 0. -1.
        -11    1    3    3    0    0  0.32884472547E+02 -0.49233724652E+01  0.13766610004E+02  0.35988160308E+02  0.51100000000E-03 0.  1.
        -12    1    3    3    0    0 -0.88734629651E+01 -0.11609662704E+02 -0.17613635554E+02  0.22885863989E+02  0.00000000000E+00 0.  1.
</event>
<event>
 7    1  0.1461838E-013  0.7246153E+02  0.7816164E-02  0.1226708E+00
        -11   -1    0    0    0    0  0.00000000000E+00  0.00000000000E+00  0.45593999997E+02  0.45594000000E+02  0.51100000000E-03 0. -1.
         11   -1    0    0    0    0 -0.00000000000E+00 -0.00000000000E+00 -0.45593999997E+02  0.45594000000E+02  0.51100000000E-03 0.  1.
    9900012    2    1    2    0    0 -0.10037335391E+02  0.47175429860E+01 -0.15088980455E+02  0.72461530905E+02  0.69999948688E+02 0.  0.
         12    1    1    2    0    0  0.10037335391E+02 -0.47175429860E+01  0.15088980455E+02  0.18726469095E+02  0.00000000000E+00 0. -1.
         11    1    3    3    0    0 -0.18028517831E+01 -0.18294796234E+02 -0.26391879042E+02  0.32163350625E+02  0.51100000000E-03 0. -1.
        -11    1    3    3    0    0  0.10330482787E+02  0.14184992978E+02  0.86716402271E+01  0.19573713110E+02  0.51100000000E-03 0.  1.
        -12    1    3    3    0    0 -0.18564966396E+02  0.88273462410E+01  0.26312583598E+01  0.20724467170E+02  0.00000000000E+00 0.  1.
</event>
<event>
 7    1  0.1333056E-013  0.7246156E+02  0.7816164E-02  0.1226708E+00
        -11   -1    0    0    0    0  0.00000000000E+00  0.00000000000E+00  0.45593999997E+02  0.45594000000E+02  0.51100000000E-03 0. -1.
         11   -1    0    0    0    0 -0.00000000000E+00 -0.00000000000E+00 -0.45593999997E+02  0.45594000000E+02  0.51100000000E-03 0.  1.
    9900012    2    1    2    0    0 -0.42549938111E+01  0.13126748456E+02 -0.12659505089E+02  0.72461559696E+02  0.69999986194E+02 0.  0.
         12    1    1    2    0    0  0.42549938111E+01 -0.13126748456E+02  0.12659505089E+02  0.18726440304E+02  0.00000000000E+00 0. -1.
         11    1    3    3    0    0  0.18099624050E+02  0.29725749860E+02  0.62723115411E+01  0.35363236388E+02  0.51100000000E-03 0. -1.
        -11    1    3    3    0    0 -0.20256091459E+00 -0.46918213997E+01  0.12417086942E+01  0.48575775561E+01  0.51100000000E-03 0.  1.
         12    1    3    3    0    0 -0.22152056946E+02 -0.11907180005E+02 -0.20173525325E+02  0.32240745752E+02  0.00000000000E+00 0. -1.
</event>
<event>
 7    1  0.1333056E-013  0.7246150E+02  0.7816164E-02  0.1226708E+00
        -11   -1    0    0    0    0  0.00000000000E+00  0.00000000000E+00  0.45593999997E+02  0.45594000000E+02  0.51100000000E-03 0. -1.
         11   -1    0    0    0    0 -0.00000000000E+00 -0.00000000000E+00 -0.45593999997E+02  0.45594000000E+02  0.51100000000E-03 0.  1.
    9900012    2    1    2    0    0  0.12671008757E+02  0.16148350985E+01 -0.13693780758E+02  0.72461500414E+02  0.69999908968E+02 0.  0.
         12    1    1    2    0    0 -0.12671008757E+02 -0.16148350985E+01  0.13693780758E+02  0.18726499586E+02  0.00000000000E+00 0. -1.
         11    1    3    3    0    0  0.20235317680E+02  0.16022660374E+02  0.18960910285E+02  0.32026705203E+02  0.51100000000E-03 0. -1.
        -11    1    3    3    0    0 -0.77169369441E+01 -0.70456059341E+01 -0.31233458818E+02  0.32935097219E+02  0.51100000000E-03 0.  1.
         12    1    3    3    0    0  0.15262802119E+00 -0.73622193413E+01 -0.14212322237E+01  0.74996979923E+01  0.00000000000E+00 0. -1.
</event>
<event>
 7    1  0.1333056E-013  0.7246161E+02  0.7816164E-02  0.1226708E+00
        -11   -1    0    0    0    0  0.00000000000E+00  0.00000000000E+00  0.45593999997E+02  0.45594000000E+02  0.51100000000E-03 0.  1.
         11   -1    0    0    0    0 -0.00000000000E+00 -0.00000000000E+00 -0.45593999997E+02  0.45594000000E+02  0.51100000000E-03 0. -1.
    9900012    2    1    2    0    0  0.11608226654E+02  0.89808852933E+01  0.11630585272E+02  0.72461608450E+02  0.70000049705E+02 0.  0.
         12    1    1    2    0    0 -0.11608226654E+02 -0.89808852933E+01 -0.11630585272E+02  0.18726391550E+02  0.00000000000E+00 0. -1.
         11    1    3    3    0    0  0.12409520374E+02  0.18589877429E+02  0.34287773812E+02  0.40929587977E+02  0.51100000000E-03 0. -1.
        -11    1    3    3    0    0 -0.61094953442E+01  0.38606794290E+01 -0.97469706380E+01  0.12134010709E+02  0.51100000000E-03 0.  1.
         12    1    3    3    0    0  0.53082016242E+01 -0.13469671565E+02 -0.12910217902E+02  0.19398009764E+02  0.00000000000E+00 0. -1.
</event>
<event>
 7    1  0.1333056E-013  0.7246157E+02  0.7816164E-02  0.1226708E+00
        -11   -1    0    0    0    0  0.00000000000E+00  0.00000000000E+00  0.45593999997E+02  0.45594000000E+02  0.51100000000E-03 0. -1.
         11   -1    0    0    0    0 -0.00000000000E+00 -0.00000000000E+00 -0.45593999997E+02  0.45594000000E+02  0.51100000000E-03 0.  1.
    9900012    2    1    2    0    0 -0.33384127327E+00  0.13721741047E+02 -0.12738972679E+02  0.72461573425E+02  0.70000004078E+02 0.  0.
         12    1    1    2    0    0  0.33384127327E+00 -0.13721741047E+02  0.12738972679E+02  0.18726426575E+02  0.00000000000E+00 0. -1.
         11    1    3    3    0    0  0.11796230439E+02 -0.11408445297E+02  0.12966701466E+02  0.20915043003E+02  0.51100000000E-03 0. -1.
        -11    1    3    3    0    0 -0.15208212565E+01  0.17989331698E+02 -0.32416070912E+02  0.37104320582E+02  0.51100000000E-03 0.  1.
        -12    1    3    3    0    0 -0.10609250456E+02  0.71408546451E+01  0.67103967664E+01  0.14442209840E+02  0.00000000000E+00 0.  1.
</event>
<event>
 7    1  0.1333056E-013  0.7246154E+02  0.7816164E-02  0.1226708E+00
        -11   -1    0    0    0    0  0.00000000000E+00  0.00000000000E+00  0.45593999997E+02  0.45594000000E+02  0.51100000000E-03 0. -1.
         11   -1    0    0    0    0 -0.00000000000E+00 -0.00000000000E+00 -0.45593999997E+02  0.45594000000E+02  0.51100000000E-03 0.  1.
    9900012    2    1    2    0    0  0.14905032146E+02  0.11111943217E+02  0.22461185943E+01  0.72461539734E+02  0.69999960190E+02 0.  0.
         12    1    1    2    0    0 -0.14905032146E+02 -0.11111943217E+02 -0.22461185943E+01  0.18726460266E+02  0.00000000000E+00 0. -1.
         11    1    3    3    0    0  0.19139509713E+02  0.13054413581E+02 -0.70950154958E+01  0.24229688218E+02  0.51100000000E-03 0. -1.
        -11    1    3    3    0    0 -0.24646866363E+02  0.12271236346E+01  0.11936109817E+02  0.27412489339E+02  0.51100000000E-03 0.  1.
         12    1    3    3    0    0  0.20412388795E+02 -0.31695939981E+01 -0.25949757269E+01  0.20819362177E+02  0.00000000000E+00 0. -1.
</event>
<event>
 7    1  0.1333056E-013  0.7246158E+02  0.7816164E-02  0.1226708E+00
        -11   -1    0    0    0    0  0.00000000000E+00  0.00000000000E+00  0.45593999997E+02  0.45594000000E+02  0.51100000000E-03 0. -1.
         11   -1    0    0    0    0 -0.00000000000E+00 -0.00000000000E+00 -0.45593999997E+02  0.45594000000E+02  0.51100000000E-03 0.  1.
    9900012    2    1    2    0    0 -0.10799769056E+01  0.18541107446E+02 -0.23958165715E+01  0.72461576090E+02  0.70000007550E+02 0.  0.
         12    1    1    2    0    0  0.10799769056E+01 -0.18541107446E+02  0.23958165715E+01  0.18726423910E+02  0.00000000000E+00 0. -1.
         11    1    3    3    0    0 -0.12760137700E+02  0.24770630399E+02  0.13445608491E+02  0.30938481418E+02  0.51100000000E-03 0. -1.
        -11    1    3    3    0    0 -0.90506189193E+01 -0.54327435514E+01 -0.17789636647E+02  0.20685733674E+02  0.51100000000E-03 0.  1.
         12    1    3    3    0    0  0.20730779714E+02 -0.79677940212E+00  0.19482115845E+01  0.20837360998E+02  0.00000000000E+00 0. -1.
</event>
<event>
 7    1  0.1333056E-013  0.7246160E+02  0.7816164E-02  0.1226708E+00
        -11   -1    0    0    0    0  0.00000000000E+00  0.00000000000E+00  0.45593999997E+02  0.45594000000E+02  0.51100000000E-03 0.  1.
         11   -1    0    0    0    0 -0.00000000000E+00 -0.00000000000E+00 -0.45593999997E+02  0.45594000000E+02  0.51100000000E-03 0. -1.
    9900012    2    1    2    0    0  0.15313451516E+02  0.90665051036E+01  0.58287983661E+01  0.72461596114E+02  0.70000033634E+02 0.  0.
         12    1    1    2    0    0 -0.15313451516E+02 -0.90665051036E+01 -0.58287983661E+01  0.18726403886E+02  0.00000000000E+00 0. -1.
         11    1    3    3    0    0 -0.21906447212E+02  0.13577821424E+02  0.12150939177E+02  0.28493771025E+02  0.51100000000E-03 0. -1.
        -11    1    3    3    0    0  0.21574278582E+02 -0.12653660337E+02  0.60530003801E+00  0.25018613164E+02  0.51100000000E-03 0.  1.
         12    1    3    3    0    0  0.15645620146E+02  0.81423440170E+01 -0.69274408493E+01  0.18949211925E+02  0.00000000000E+00 0. -1.
</event>
<event>
 7    1  0.1333056E-013  0.7246161E+02  0.7816164E-02  0.1226708E+00
        -11   -1    0    0    0    0  0.00000000000E+00  0.00000000000E+00  0.45593999997E+02  0.45594000000E+02  0.51100000000E-03 0. -1.
         11   -1    0    0    0    0 -0.00000000000E+00 -0.00000000000E+00 -0.45593999997E+02  0.45594000000E+02  0.51100000000E-03 0.  1.
    9900012    2    1    2    0    0  0.17060754199E+02 -0.16424812081E+01 -0.75439066696E+01  0.72461612036E+02  0.70000054376E+02 0.  0.
         12    1    1    2    0    0 -0.17060754199E+02  0.16424812081E+01  0.75439066696E+01  0.18726387964E+02  0.00000000000E+00 0. -1.
         11    1    3    3    0    0 -0.74422844920E+01 -0.28256318649E+01  0.22266874250E+02  0.23647103058E+02  0.51100000000E-03 0. -1.
        -11    1    3    3    0    0  0.16126839728E+02 -0.12695392569E+02 -0.24035269569E+02  0.31606045872E+02  0.51100000000E-03 0.  1.
        -12    1    3    3    0    0  0.83761989625E+01  0.13878543226E+02 -0.57755113500E+01  0.17208463107E+02  0.00000000000E+00 0.  1.
</event>
<event>
 7    1  0.1333056E-013  0.7246156E+02  0.7816164E-02  0.1226708E+00
        -11   -1    0    0    0    0  0.00000000000E+00  0.00000000000E+00  0.45593999997E+02  0.45594000000E+02  0.51100000000E-03 0.  1.
         11   -1    0    0    0    0 -0.00000000000E+00 -0.00000000000E+00 -0.45593999997E+02  0.45594000000E+02  0.51100000000E-03 0. -1.
    9900012    2    1    2    0    0  0.15099555118E+02  0.11075707263E+02  0.10775796233E+00  0.72461562327E+02  0.69999989621E+02 0.  0.
         12    1    1    2    0    0 -0.15099555118E+02 -0.11075707263E+02 -0.10775796233E+00  0.18726437673E+02  0.00000000000E+00 0. -1.
         11    1    3    3    0    0 -0.34100599829E+00  0.33551242450E+02  0.24553367242E+01  0.33642693616E+02  0.51100000000E-03 0. -1.
        -11    1    3    3    0    0  0.11302062885E+02 -0.53310217452E+01  0.11041524574E+02  0.16675481506E+02  0.51100000000E-03 0.  1.
         12    1    3    3    0    0  0.41384982314E+01 -0.17144513442E+02 -0.13389103335E+02  0.22143387205E+02  0.00000000000E+00 0. -1.
</event>
<event>
 7    1  0.1333056E-013  0.7246184E+02  0.7816164E-02  0.1226707E+00
        -11   -1    0    0    0    0  0.00000000000E+00  0.00000000000E+00  0.45593999997E+02  0.45594000000E+02  0.51100000000E-03 0.  1.
         11   -1    0    0    0    0 -0.00000000000E+00 -0.00000000000E+00 -0.45593999997E+02  0.45594000000E+02  0.51100000000E-03 0. -1.
    9900012    2    1    2    0    0  0.23267215867E+01 -0.17978452721E+02 -0.46936736829E+01  0.72461842673E+02  0.70000354823E+02 0.  0.
         12    1    1    2    0    0 -0.23267215867E+01  0.17978452721E+02  0.46936736829E+01  0.18726157327E+02  0.00000000000E+00 0. -1.
         11    1    3    3    0    0 -0.59001264961E+01  0.47047931930E+01  0.26707542456E+02  0.27753187131E+02  0.51100000000E-03 0. -1.
        -11    1    3    3    0    0  0.11594081956E+02 -0.73031688390E+01 -0.63071787926E+01  0.15084413017E+02  0.51100000000E-03 0.  1.
         12    1    3    3    0    0 -0.33672338729E+01 -0.15380077075E+02 -0.25094037346E+02  0.29624242524E+02  0.00000000000E+00 0. -1.
</event>
<event>
 7    1  0.1333056E-013  0.7246156E+02  0.7816164E-02  0.1226708E+00
        -11   -1    0    0    0    0  0.00000000000E+00  0.00000000000E+00  0.45593999997E+02  0.45594000000E+02  0.51100000000E-03 0.  1.
         11   -1    0    0    0    0 -0.00000000000E+00 -0.00000000000E+00 -0.45593999997E+02  0.45594000000E+02  0.51100000000E-03 0. -1.
    9900012    2    1    2    0    0  0.10631890122E+02  0.43403277306E+01  0.14792019810E+02  0.72461564609E+02  0.69999992594E+02 0.  0.
         12    1    1    2    0    0 -0.10631890122E+02 -0.43403277306E+01 -0.14792019810E+02  0.18726435391E+02  0.00000000000E+00 0. -1.
         11    1    3    3    0    0  0.23227092266E+02 -0.66893753756E+01  0.93207671094E+01  0.25906027442E+02  0.51100000000E-03 0. -1.
        -11    1    3    3    0    0 -0.21488245234E+02 -0.94784833206E+00  0.17230851613E+02  0.27559850277E+02  0.51100000000E-03 0.  1.
        -12    1    3    3    0    0  0.88930430902E+01  0.11977551438E+02 -0.11759598913E+02  0.18995686891E+02  0.00000000000E+00 0.  1.
</event>
<event>
 7    1  0.1333056E-013  0.7246160E+02  0.7816164E-02  0.1226708E+00
        -11   -1    0    0    0    0  0.00000000000E+00  0.00000000000E+00  0.45593999997E+02  0.45594000000E+02  0.51100000000E-03 0.  1.
         11   -1    0    0    0    0 -0.00000000000E+00 -0.00000000000E+00 -0.45593999997E+02  0.45594000000E+02  0.51100000000E-03 0. -1.
    9900012    2    1    2    0    0  0.94743886323E+01 -0.16119228138E+02 -0.10414269488E+01  0.72461598162E+02  0.70000036302E+02 0.  0.
         12    1    1    2    0    0 -0.94743886323E+01  0.16119228138E+02  0.10414269488E+01  0.18726401838E+02  0.00000000000E+00 0. -1.
         11    1    3    3    0    0  0.31629982654E+02  0.11016707374E+02  0.72595892767E-01  0.33493714552E+02  0.51100000000E-03 0.  1.
        -11    1    3    3    0    0 -0.10319244054E+02 -0.15019422391E+02  0.78060098314E+01  0.19824319322E+02  0.51100000000E-03 0. -1.
         12    1    3    3    0    0 -0.11836349968E+02 -0.12116513120E+02 -0.89200326729E+01  0.19143564288E+02  0.00000000000E+00 0. -1.
</event>
<event>
 7    1  0.1333056E-013  0.7246156E+02  0.7816164E-02  0.1226708E+00
        -11   -1    0    0    0    0  0.00000000000E+00  0.00000000000E+00  0.45593999997E+02  0.45594000000E+02  0.51100000000E-03 0. -1.
         11   -1    0    0    0    0 -0.00000000000E+00 -0.00000000000E+00 -0.45593999997E+02  0.45594000000E+02  0.51100000000E-03 0.  1.
    9900012    2    1    2    0    0  0.12714824737E+02 -0.13747945141E+02  0.81359303866E-01  0.72461564594E+02  0.69999992574E+02 0.  0.
         12    1    1    2    0    0 -0.12714824737E+02  0.13747945141E+02 -0.81359303866E-01  0.18726435406E+02  0.00000000000E+00 0. -1.
         11    1    3    3    0    0  0.60458134918E+01  0.83542369579E+01  0.15029562487E+02  0.18227256644E+02  0.51100000000E-03 0. -1.
        -11    1    3    3    0    0  0.66068143557E+01 -0.33352324078E+02  0.18116253915E+01  0.34048634395E+02  0.51100000000E-03 0.  1.
         12    1    3    3    0    0  0.62196889413E-01  0.11250141980E+02 -0.16759828575E+02  0.20185673555E+02  0.00000000000E+00 0. -1.
</event>
<event>
 7    1  0.1333056E-013  0.7246159E+02  0.7816164E-02  0.1226708E+00
        -11   -1    0    0    0    0  0.00000000000E+00  0.00000000000E+00  0.45593999997E+02  0.45594000000E+02  0.51100000000E-03 0. -1.
         11   -1    0    0    0    0 -0.00000000000E+00 -0.00000000000E+00 -0.45593999997E+02  0.45594000000E+02  0.51100000000E-03 0.  1.
    9900012    2    1    2    0    0 -0.17682376269E+02 -0.56912267482E+01  0.23710559043E+01  0.72461590880E+02  0.70000026817E+02 0.  0.
         12    1    1    2    0    0  0.17682376269E+02  0.56912267482E+01 -0.23710559043E+01  0.18726409120E+02  0.00000000000E+00 0. -1.
         11    1    3    3    0    0 -0.29334991981E+02 -0.12352569021E+02 -0.81761595586E+01  0.32863008099E+02  0.51100000000E-03 0. -1.
        -11    1    3    3    0    0  0.14265217711E+02 -0.14007356707E+01 -0.99296717425E+01  0.17437226785E+02  0.51100000000E-03 0.  1.
         12    1    3    3    0    0 -0.26126019992E+01  0.80620779438E+01  0.20476887205E+02  0.22161355996E+02  0.00000000000E+00 0. -1.
</event>
<event>
 7    1  0.1333056E-013  0.7246155E+02  0.7816164E-02  0.1226708E+00
        -11   -1    0    0    0    0  0.00000000000E+00  0.00000000000E+00  0.45593999997E+02  0.45594000000E+02  0.51100000000E-03 0.  1.
         11   -1    0    0    0    0 -0.00000000000E+00 -0.00000000000E+00 -0.45593999997E+02  0.45594000000E+02  0.51100000000E-03 0. -1.
    9900012    2    1    2    0    0  0.42042147406E+01 -0.47245235205E+01  0.17626216342E+02  0.72461546876E+02  0.69999969493E+02 0.  0.
         12    1    1    2    0    0 -0.42042147406E+01  0.47245235205E+01 -0.17626216342E+02  0.18726453124E+02  0.00000000000E+00 0. -1.
         11    1    3    3    0    0 -0.16560324505E+02 -0.79520813194E+01  0.22070093991E+02  0.28715309402E+02  0.51100000000E-03 0. -1.
        -11    1    3    3    0    0  0.10895207699E+02  0.15934384830E+02  0.10338245437E+02  0.21897248450E+02  0.51100000000E-03 0.  1.
         12    1    3    3    0    0  0.98693315467E+01 -0.12706827032E+02 -0.14782123087E+02  0.21848989023E+02  0.00000000000E+00 0. -1.
</event>
<event>
 7    1  0.1333056E-013  0.7246159E+02  0.7816164E-02  0.1226708E+00
        -11   -1    0    0    0    0  0.00000000000E+00  0.00000000000E+00  0.45593999997E+02  0.45594000000E+02  0.51100000000E-03 0.  1.
         11   -1    0    0    0    0 -0.00000000000E+00 -0.00000000000E+00 -0.45593999997E+02  0.45594000000E+02  0.51100000000E-03 0. -1.
    9900012    2    1    2    0    0 -0.13031982963E+02 -0.81289205610E+01  0.10712912809E+02  0.72461590032E+02  0.70000025713E+02 0.  0.
         12    1    1    2    0    0  0.13031982963E+02  0.81289205610E+01 -0.10712912809E+02  0.18726409968E+02  0.00000000000E+00 0. -1.
         11    1    3    3    0    0 -0.11734976947E+02  0.60919117459E+01 -0.78413168345E+01  0.15372290741E+02  0.51100000000E-03 0. -1.
        -11    1    3    3    0    0  0.35406128960E+01 -0.33244781512E+02  0.65139566000E+01  0.34061460161E+02  0.51100000000E-03 0.  1.
        -12    1    3    3    0    0 -0.48376189117E+01  0.19023949205E+02  0.12040273043E+02  0.23027839131E+02  0.00000000000E+00 0.  1.
</event>
<event>
 7    1  0.1333056E-013  0.7246160E+02  0.7816164E-02  0.1226708E+00
        -11   -1    0    0    0    0  0.00000000000E+00  0.00000000000E+00  0.45593999997E+02  0.45594000000E+02  0.51100000000E-03 0. -1.
         11   -1    0    0    0    0 -0.00000000000E+00 -0.00000000000E+00 -0.45593999997E+02  0.45594000000E+02  0.51100000000E-03 0.  1.
    9900012    2    1    2    0    0  0.15866260652E+02 -0.68940836969E+01 -0.71701831807E+01  0.72461597677E+02  0.70000035672E+02 0.  0.
         12    1    1    2    0    0 -0.15866260652E+02  0.68940836969E+01  0.71701831807E+01  0.18726402323E+02  0.00000000000E+00 0. -1.
         11    1    3    3    0    0  0.13726048453E+02  0.26880602975E+01 -0.21611796023E+02  0.25742956355E+02  0.51100000000E-03 0.  1.
        -11    1    3    3    0    0  0.45756581866E+00  0.60649313770E+01  0.26312436345E+02  0.27006241237E+02  0.51100000000E-03 0. -1.
         12    1    3    3    0    0  0.16826463803E+01 -0.15647075371E+02 -0.11870823502E+02  0.19712400086E+02  0.00000000000E+00 0. -1.
</event>
<event>
 7    1  0.1333056E-013  0.7246155E+02  0.7816164E-02  0.1226708E+00
        -11   -1    0    0    0    0  0.00000000000E+00  0.00000000000E+00  0.45593999997E+02  0.45594000000E+02  0.51100000000E-03 0.  1.
         11   -1    0    0    0    0 -0.00000000000E+00 -0.00000000000E+00 -0.45593999997E+02  0.45594000000E+02  0.51100000000E-03 0. -1.
    9900012    2    1    2    0    0 -0.46270074282E+01 -0.11788867367E+02 -0.13794688393E+02  0.72461547603E+02  0.69999970440E+02 0.  0.
         12    1    1    2    0    0  0.46270074282E+01  0.11788867367E+02  0.13794688393E+02  0.18726452397E+02  0.00000000000E+00 0. -1.
         11    1    3    3    0    0  0.66920991345E+01 -0.27017199268E+02 -0.22946801891E+02  0.36073105833E+02  0.51100000000E-03 0. -1.
        -11    1    3    3    0    0  0.85833680804E+01  0.10749646251E+02  0.80944555713E+01  0.15960868190E+02  0.51100000000E-03 0.  1.
         12    1    3    3    0    0 -0.19902474643E+02  0.44786856499E+01  0.10576579273E+01  0.20427573580E+02  0.00000000000E+00 0. -1.
</event>
<event>
 7    1  0.1333056E-013  0.7246152E+02  0.7816164E-02  0.1226708E+00
        -11   -1    0    0    0    0  0.00000000000E+00  0.00000000000E+00  0.45593999997E+02  0.45594000000E+02  0.51100000000E-03 0.  1.
         11   -1    0    0    0    0 -0.00000000000E+00 -0.00000000000E+00 -0.45593999997E+02  0.45594000000E+02  0.51100000000E-03 0. -1.
    9900012    2    1    2    0    0  0.67881917706E+01  0.79625845170E+01  0.15530576541E+02  0.72461518552E+02  0.69999932596E+02 0.  0.
         12    1    1    2    0    0 -0.67881917706E+01 -0.79625845170E+01 -0.15530576541E+02  0.18726481448E+02  0.00000000000E+00 0. -1.
         11    1    3    3    0    0  0.14458405893E+02 -0.16069315960E+02  0.20060841038E+02  0.29490774147E+02  0.51100000000E-03 0.  1.
        -11    1    3    3    0    0 -0.20054633577E+02  0.62099803939E+01 -0.30939454469E+01  0.21220854910E+02  0.51100000000E-03 0. -1.
         12    1    3    3    0    0  0.12384419455E+02  0.17821920083E+02 -0.14363190494E+01  0.21749889496E+02  0.00000000000E+00 0. -1.
</event>
<event>
 7    1  0.1333056E-013  0.7246167E+02  0.7816164E-02  0.1226708E+00
        -11   -1    0    0    0    0  0.00000000000E+00  0.00000000000E+00  0.45593999997E+02  0.45594000000E+02  0.51100000000E-03 0.  1.
         11   -1    0    0    0    0 -0.00000000000E+00 -0.00000000000E+00 -0.45593999997E+02  0.45594000000E+02  0.51100000000E-03 0. -1.
    9900012    2    1    2    0    0 -0.18630223899E+02  0.14291473172E+01 -0.12440670346E+01  0.72461670745E+02  0.70000130856E+02 0.  0.
         12    1    1    2    0    0  0.18630223899E+02 -0.14291473172E+01  0.12440670346E+01  0.18726329255E+02  0.00000000000E+00 0. -1.
         11    1    3    3    0    0 -0.23193105062E+02 -0.27990185655E+02 -0.77580383509E+01  0.37169312272E+02  0.51100000000E-03 0. -1.
        -11    1    3    3    0    0  0.13722294437E+01  0.90890572759E+01 -0.62138374911E+01  0.11095303170E+02  0.51100000000E-03 0.  1.
         12    1    3    3    0    0  0.31906517195E+01  0.20330275697E+02  0.12727808807E+02  0.24197055303E+02  0.00000000000E+00 0. -1.
</event>
<event>
 7    1  0.1333056E-013  0.7246170E+02  0.7816164E-02  0.1226708E+00
        -11   -1    0    0    0    0  0.00000000000E+00  0.00000000000E+00  0.45593999997E+02  0.45594000000E+02  0.51100000000E-03 0. -1.
         11   -1    0    0    0    0 -0.00000000000E+00 -0.00000000000E+00 -0.45593999997E+02  0.45594000000E+02  0.51100000000E-03 0.  1.
    9900012    2    1    2    0    0  0.15935112360E+02  0.73771242828E+01  0.65057337035E+01  0.72461699254E+02  0.70000167994E+02 0.  0.
         12    1    1    2    0    0 -0.15935112360E+02 -0.73771242828E+01 -0.65057337035E+01  0.18726300746E+02  0.00000000000E+00 0. -1.
         11    1    3    3    0    0  0.28427329066E+02 -0.55059538250E+01 -0.21612739355E+02  0.36132244160E+02  0.51100000000E-03 0. -1.
        -11    1    3    3    0    0 -0.82828583603E+01  0.14123407661E+02  0.13992504065E+02  0.21537561534E+02  0.51100000000E-03 0.  1.
         12    1    3    3    0    0 -0.42093583456E+01 -0.12403295535E+01  0.14125968994E+02  0.14791893560E+02  0.00000000000E+00 0. -1.
</event>
<event>
 7    1  0.1333056E-013  0.7246153E+02  0.7816164E-02  0.1226708E+00
        -11   -1    0    0    0    0  0.00000000000E+00  0.00000000000E+00  0.45593999997E+02  0.45594000000E+02  0.51100000000E-03 0. -1.
         11   -1    0    0    0    0 -0.00000000000E+00 -0.00000000000E+00 -0.45593999997E+02  0.45594000000E+02  0.51100000000E-03 0.  1.
    9900012    2    1    2    0    0 -0.71219584835E+01 -0.16823099222E+02 -0.41160301870E+01  0.72461530376E+02  0.69999947999E+02 0.  0.
         12    1    1    2    0    0  0.71219584835E+01  0.16823099222E+02  0.41160301870E+01  0.18726469624E+02  0.00000000000E+00 0. -1.
         11    1    3    3    0    0  0.89113059691E+01  0.18387216542E+02 -0.18377535549E+02  0.27481537791E+02  0.51100000000E-03 0. -1.
        -11    1    3    3    0    0 -0.77047298117E+01 -0.23325867820E+02 -0.96183586030E-01  0.24565590214E+02  0.51100000000E-03 0.  1.
         12    1    3    3    0    0 -0.83285346409E+01 -0.11884447945E+02  0.14357688948E+02  0.20414402370E+02  0.00000000000E+00 0. -1.
</event>
<event>
 7    1  0.1333056E-013  0.7246157E+02  0.7816164E-02  0.1226708E+00
        -11   -1    0    0    0    0  0.00000000000E+00  0.00000000000E+00  0.45593999997E+02  0.45594000000E+02  0.51100000000E-03 0. -1.
         11   -1    0    0    0    0 -0.00000000000E+00 -0.00000000000E+00 -0.45593999997E+02  0.45594000000E+02  0.51100000000E-03 0.  1.
    9900012    2    1    2    0    0 -0.45425606123E+01 -0.14794214629E+01 -0.18106781771E+02  0.72461572394E+02  0.70000002735E+02 0.  0.
         12    1    1    2    0    0  0.45425606123E+01  0.14794214629E+01  0.18106781771E+02  0.18726427606E+02  0.00000000000E+00 0. -1.
         11    1    3    3    0    0 -0.17414959871E+02 -0.19027398445E+02 -0.26327209756E+02  0.36857084702E+02  0.51100000000E-03 0.  1.
        -11    1    3    3    0    0  0.17147821025E+02  0.20579099509E+02  0.11786429295E+02  0.29265457767E+02  0.51100000000E-03 0. -1.
         12    1    3    3    0    0 -0.42754217667E+01 -0.30311225263E+01 -0.35660013099E+01  0.63390299254E+01  0.00000000000E+00 0. -1.
</event>
<event>
 7    1  0.1333056E-013  0.7246155E+02  0.7816164E-02  0.1226708E+00
        -11   -1    0    0    0    0  0.00000000000E+00  0.00000000000E+00  0.45593999997E+02  0.45594000000E+02  0.51100000000E-03 0.  1.
         11   -1    0    0    0    0 -0.00000000000E+00 -0.00000000000E+00 -0.45593999997E+02  0.45594000000E+02  0.51100000000E-03 0. -1.
    9900012    2    1    2    0    0  0.15255148095E+02 -0.57243561478E+01  0.92299668186E+01  0.72461545873E+02  0.69999968187E+02 0.  0.
         12    1    1    2    0    0 -0.15255148095E+02  0.57243561478E+01 -0.92299668186E+01  0.18726454127E+02  0.00000000000E+00 0. -1.
         11    1    3    3    0    0  0.16191198822E+02 -0.24221217653E+02  0.12364846287E+02  0.31649829824E+02  0.51100000000E-03 0. -1.
        -11    1    3    3    0    0  0.15659717676E+02  0.15079264109E+02  0.45431403676E+01  0.22209256818E+02  0.51100000000E-03 0.  1.
         12    1    3    3    0    0 -0.16595768403E+02  0.34175973967E+01 -0.76780198358E+01  0.18602459231E+02  0.00000000000E+00 0. -1.
</event>
<event>
 7    1  0.1333056E-013  0.7246155E+02  0.7816164E-02  0.1226708E+00
        -11   -1    0    0    0    0  0.00000000000E+00  0.00000000000E+00  0.45593999997E+02  0.45594000000E+02  0.51100000000E-03 0.  1.
         11   -1    0    0    0    0 -0.00000000000E+00 -0.00000000000E+00 -0.45593999997E+02  0.45594000000E+02  0.51100000000E-03 0. -1.
    9900012    2    1    2    0    0  0.18292782406E+01 -0.18340714449E+01  0.18546428297E+02  0.72461545997E+02  0.69999968348E+02 0.  0.
         12    1    1    2    0    0 -0.18292782406E+01  0.18340714449E+01 -0.18546428297E+02  0.18726454003E+02  0.00000000000E+00 0. -1.
         11    1    3    3    0    0  0.24877062667E+02 -0.23205413344E+02  0.12526528737E+02  0.36252908544E+02  0.51100000000E-03 0. -1.
        -11    1    3    3    0    0 -0.97047615194E+01  0.13443355314E+00  0.54291141868E+01  0.11120959925E+02  0.51100000000E-03 0.  1.
         12    1    3    3    0    0 -0.13343022907E+02  0.21236908346E+02  0.59078537347E+00  0.25087677528E+02  0.00000000000E+00 0. -1.
</event>
<event>
 7    1  0.2795755E-013  0.7246154E+02  0.7816164E-02  0.1226708E+00
        -11   -1    0    0    0    0  0.00000000000E+00  0.00000000000E+00  0.45593999997E+02  0.45594000000E+02  0.51100000000E-03 0. -1.
         11   -1    0    0    0    0 -0.00000000000E+00 -0.00000000000E+00 -0.45593999997E+02  0.45594000000E+02  0.51100000000E-03 0.  1.
    9900012    2    1    2    0    0  0.48180721381E+01 -0.35302058034E+01 -0.17748356442E+02  0.72461539349E+02  0.69999959688E+02 0.  0.
         12    1    1    2    0    0 -0.48180721381E+01  0.35302058034E+01  0.17748356442E+02  0.18726460651E+02  0.00000000000E+00 0. -1.
         11    1    3    3    0    0 -0.17206326236E+02 -0.42687466869E+01 -0.54589133700E+00  0.17736342871E+02  0.51100000000E-03 0. -1.
        -11    1    3    3    0    0  0.23103771791E+02  0.60863088155E+01  0.10783227941E+02  0.26212695990E+02  0.51100000000E-03 0.  1.
        -12    1    3    3    0    0 -0.10793734168E+01 -0.53477679321E+01 -0.27985693046E+02  0.28512500488E+02  0.00000000000E+00 0.  1.
</event>
<event>
 7    1  0.1333056E-013  0.7246154E+02  0.7816164E-02  0.1226708E+00
        -11   -1    0    0    0    0  0.00000000000E+00  0.00000000000E+00  0.45593999997E+02  0.45594000000E+02  0.51100000000E-03 0. -1.
         11   -1    0    0    0    0 -0.00000000000E+00 -0.00000000000E+00 -0.45593999997E+02  0.45594000000E+02  0.51100000000E-03 0.  1.
    9900012    2    1    2    0    0  0.15308781279E+01 -0.18663778714E+02  0.17417008544E-02  0.72461542066E+02  0.69999963227E+02 0.  0.
         12    1    1    2    0    0 -0.15308781279E+01  0.18663778714E+02 -0.17417008544E-02  0.18726457934E+02  0.00000000000E+00 0. -1.
         11    1    3    3    0    0  0.85355086161E-02  0.58132079857E+01  0.88088734772E+00  0.58795767467E+01  0.51100000000E-03 0.  1.
        -11    1    3    3    0    0 -0.40627635676E+01 -0.30297271195E+02  0.24990650527E+02  0.39483709346E+02  0.51100000000E-03 0. -1.
        -12    1    3    3    0    0  0.55851061868E+01  0.58202844949E+01 -0.25869796174E+02  0.27098255973E+02  0.00000000000E+00 0.  1.
</event>
<event>
 7    1  0.1333056E-013  0.7246158E+02  0.7816164E-02  0.1226708E+00
        -11   -1    0    0    0    0  0.00000000000E+00  0.00000000000E+00  0.45593999997E+02  0.45594000000E+02  0.51100000000E-03 0. -1.
         11   -1    0    0    0    0 -0.00000000000E+00 -0.00000000000E+00 -0.45593999997E+02  0.45594000000E+02  0.51100000000E-03 0.  1.
    9900012    2    1    2    0    0 -0.13633302798E+02  0.82812083505E+01 -0.98098570323E+01  0.72461584115E+02  0.70000018003E+02 0.  0.
         12    1    1    2    0    0  0.13633302798E+02 -0.82812083505E+01  0.98098570323E+01  0.18726415885E+02  0.00000000000E+00 0. -1.
         11    1    3    3    0    0  0.49306617037E+01 -0.19249393775E+02  0.16477967253E+02  0.25814220705E+02  0.51100000000E-03 0. -1.
        -11    1    3    3    0    0 -0.20760070823E+02  0.24968572251E+02 -0.16764618489E+02  0.36543981367E+02  0.51100000000E-03 0.  1.
         12    1    3    3    0    0  0.21961063210E+01  0.25620298750E+01 -0.95232057963E+01  0.10103382042E+02  0.00000000000E+00 0. -1.
</event>
<event>
 7    1  0.1333056E-013  0.7246162E+02  0.7816164E-02  0.1226708E+00
        -11   -1    0    0    0    0  0.00000000000E+00  0.00000000000E+00  0.45593999997E+02  0.45594000000E+02  0.51100000000E-03 0.  1.
         11   -1    0    0    0    0 -0.00000000000E+00 -0.00000000000E+00 -0.45593999997E+02  0.45594000000E+02  0.51100000000E-03 0. -1.
    9900012    2    1    2    0    0 -0.84336704510E+00  0.17399592682E+02  0.68716974751E+01  0.72461619686E+02  0.70000064342E+02 0.  0.
         12    1    1    2    0    0  0.84336704510E+00 -0.17399592682E+02 -0.68716974751E+01  0.18726380314E+02  0.00000000000E+00 0. -1.
         11    1    3    3    0    0 -0.54796536240E+00  0.20211363683E+02 -0.77445511816E+00  0.20233617298E+02  0.51100000000E-03 0. -1.
        -11    1    3    3    0    0  0.43522426770E+01 -0.22901585786E+02  0.17716768187E+02  0.29279831336E+02  0.51100000000E-03 0.  1.
        -12    1    3    3    0    0 -0.46476443597E+01  0.20089814785E+02 -0.10070615593E+02  0.22948171052E+02  0.00000000000E+00 0.  1.
</event>
<event>
 7    1  0.1333056E-013  0.7246159E+02  0.7816164E-02  0.1226708E+00
        -11   -1    0    0    0    0  0.00000000000E+00  0.00000000000E+00  0.45593999997E+02  0.45594000000E+02  0.51100000000E-03 0. -1.
         11   -1    0    0    0    0 -0.00000000000E+00 -0.00000000000E+00 -0.45593999997E+02  0.45594000000E+02  0.51100000000E-03 0.  1.
    9900012    2    1    2    0    0 -0.25461356739E+01  0.90285114926E+01 -0.16207459972E+02  0.72461585891E+02  0.70000020317E+02 0.  0.
         12    1    1    2    0    0  0.25461356739E+01 -0.90285114926E+01  0.16207459972E+02  0.18726414109E+02  0.00000000000E+00 0. -1.
         11    1    3    3    0    0 -0.21478787226E+02 -0.98483691256E+01 -0.27512322746E+02  0.36266466305E+02  0.51100000000E-03 0. -1.
        -11    1    3    3    0    0  0.86346756802E+01  0.31626808307E+00 -0.44897578327E+01  0.97373289592E+01  0.51100000000E-03 0.  1.
         12    1    3    3    0    0  0.10297975872E+02  0.18560612535E+02  0.15794620606E+02  0.26457790626E+02  0.00000000000E+00 0. -1.
</event>
<event>
 7    1  0.1333056E-013  0.7246167E+02  0.7816164E-02  0.1226708E+00
        -11   -1    0    0    0    0  0.00000000000E+00  0.00000000000E+00  0.45593999997E+02  0.45594000000E+02  0.51100000000E-03 0. -1.
         11   -1    0    0    0    0 -0.00000000000E+00 -0.00000000000E+00 -0.45593999997E+02  0.45594000000E+02  0.51100000000E-03 0.  1.
    9900012    2    1    2    0    0 -0.17005346761E+02  0.36754743746E+01 -0.69270718826E+01  0.72461674808E+02  0.70000136148E+02 0.  0.
         12    1    1    2    0    0  0.17005346761E+02 -0.36754743746E+01  0.69270718826E+01  0.18726325192E+02  0.00000000000E+00 0. -1.
         11    1    3    3    0    0 -0.54898223190E+01 -0.61836903398E+01 -0.21313450911E+02  0.22861307165E+02  0.51100000000E-03 0.  1.
        -11    1    3    3    0    0 -0.71297607917E+01  0.27927582257E+02  0.98727347597E+01  0.30467264918E+02  0.51100000000E-03 0. -1.
        -12    1    3    3    0    0 -0.43857636503E+01 -0.18068417543E+02  0.45136442687E+01  0.19133102725E+02  0.00000000000E+00 0.  1.
</event>
<event>
 7    1  0.1333056E-013  0.7246162E+02  0.7816164E-02  0.1226708E+00
        -11   -1    0    0    0    0  0.00000000000E+00  0.00000000000E+00  0.45593999997E+02  0.45594000000E+02  0.51100000000E-03 0. -1.
         11   -1    0    0    0    0 -0.00000000000E+00 -0.00000000000E+00 -0.45593999997E+02  0.45594000000E+02  0.51100000000E-03 0.  1.
    9900012    2    1    2    0    0 -0.14457545063E+02 -0.10767586275E+02  0.50710602404E+01  0.72461623538E+02  0.70000069359E+02 0.  0.
         12    1    1    2    0    0  0.14457545063E+02  0.10767586275E+02 -0.50710602404E+01  0.18726376462E+02  0.00000000000E+00 0. -1.
         11    1    3    3    0    0  0.15384687564E+02 -0.17036007604E+02 -0.11957800623E+02  0.25882487564E+02  0.51100000000E-03 0.  1.
        -11    1    3    3    0    0 -0.49388200850E+01  0.13463292821E+02  0.14726223488E+02  0.20555141836E+02  0.51100000000E-03 0. -1.
        -12    1    3    3    0    0 -0.24903412542E+02 -0.71948714917E+01  0.23026373758E+01  0.26023994138E+02  0.00000000000E+00 0.  1.
</event>
<event>
 7    1  0.1333056E-013  0.7246158E+02  0.7816164E-02  0.1226708E+00
        -11   -1    0    0    0    0  0.00000000000E+00  0.00000000000E+00  0.45593999997E+02  0.45594000000E+02  0.51100000000E-03 0.  1.
         11   -1    0    0    0    0 -0.00000000000E+00 -0.00000000000E+00 -0.45593999997E+02  0.45594000000E+02  0.51100000000E-03 0. -1.
    9900012    2    1    2    0    0 -0.90053044054E+01  0.16341631354E+02  0.15920093301E+01  0.72461577051E+02  0.70000008802E+02 0.  0.
         12    1    1    2    0    0  0.90053044054E+01 -0.16341631354E+02 -0.15920093301E+01  0.18726422949E+02  0.00000000000E+00 0. -1.
         11    1    3    3    0    0 -0.35124754049E+01  0.18686892565E+02 -0.15019784859E+02  0.24230793934E+02  0.51100000000E-03 0. -1.
        -11    1    3    3    0    0 -0.87400647847E+01  0.73095750296E+01  0.29604324950E+02  0.31721202304E+02  0.51100000000E-03 0.  1.
        -12    1    3    3    0    0  0.32472357842E+01 -0.96548362399E+01 -0.12992530761E+02  0.16509580814E+02  0.00000000000E+00 0.  1.
</event>
<event>
 7    1  0.1333056E-013  0.7246157E+02  0.7816164E-02  0.1226708E+00
        -11   -1    0    0    0    0  0.00000000000E+00  0.00000000000E+00  0.45593999997E+02  0.45594000000E+02  0.51100000000E-03 0. -1.
         11   -1    0    0    0    0 -0.00000000000E+00 -0.00000000000E+00 -0.45593999997E+02  0.45594000000E+02  0.51100000000E-03 0.  1.
    9900012    2    1    2    0    0  0.48054983927E+00  0.12184414518E+02 -0.14212264420E+02  0.72461565603E+02  0.69999993888E+02 0.  0.
         12    1    1    2    0    0 -0.48054983927E+00 -0.12184414518E+02  0.14212264420E+02  0.18726434397E+02  0.00000000000E+00 0. -1.
         11    1    3    3    0    0  0.26246202799E+01 -0.84585273594E+00  0.56629098740E+00  0.28150993247E+01  0.51100000000E-03 0. -1.
        -11    1    3    3    0    0  0.84949208470E+01  0.26138953449E+02 -0.34224430236E+02  0.43894420976E+02  0.51100000000E-03 0.  1.
        -12    1    3    3    0    0 -0.10638991288E+02 -0.13108686196E+02  0.19445874828E+02  0.25752045302E+02  0.00000000000E+00 0.  1.
</event>
<event>
 7    1  0.1333056E-013  0.7246150E+02  0.7816164E-02  0.1226708E+00
        -11   -1    0    0    0    0  0.00000000000E+00  0.00000000000E+00  0.45593999997E+02  0.45594000000E+02  0.51100000000E-03 0.  1.
         11   -1    0    0    0    0 -0.00000000000E+00 -0.00000000000E+00 -0.45593999997E+02  0.45594000000E+02  0.51100000000E-03 0. -1.
    9900012    2    1    2    0    0 -0.47949026284E+01  0.54389389244E+01  0.17265818814E+02  0.72461504141E+02  0.69999913823E+02 0.  0.
         12    1    1    2    0    0  0.47949026284E+01 -0.54389389244E+01 -0.17265818814E+02  0.18726495859E+02  0.00000000000E+00 0. -1.
         11    1    3    3    0    0  0.23391324792E+02  0.29069159537E+01 -0.83391342516E+01  0.25002907755E+02  0.51100000000E-03 0. -1.
        -11    1    3    3    0    0 -0.34019763709E+02  0.19171734606E+01  0.21314798387E+02  0.40191298902E+02  0.51100000000E-03 0.  1.
        -12    1    3    3    0    0  0.58335362889E+01  0.61484951005E+00  0.42901546781E+01  0.72672974837E+01  0.00000000000E+00 0.  1.
</event>
<event>
 7    1  0.1333056E-013  0.7246157E+02  0.7816164E-02  0.1226708E+00
        -11   -1    0    0    0    0  0.00000000000E+00  0.00000000000E+00  0.45593999997E+02  0.45594000000E+02  0.51100000000E-03 0.  1.
         11   -1    0    0    0    0 -0.00000000000E+00 -0.00000000000E+00 -0.45593999997E+02  0.45594000000E+02  0.51100000000E-03 0. -1.
    9900012    2    1    2    0    0 -0.20003445779E+01  0.17284479874E+02  0.69227461553E+01  0.72461573825E+02  0.70000004599E+02 0.  0.
         12    1    1    2    0    0  0.20003445779E+01 -0.17284479874E+02 -0.69227461553E+01  0.18726426175E+02  0.00000000000E+00 0. -1.
         11    1    3    3    0    0  0.10797886551E+02  0.10244350882E+02 -0.26639297945E+02  0.30515459594E+02  0.51100000000E-03 0. -1.
        -11    1    3    3    0    0 -0.15321220081E+01 -0.42336501416E+01  0.21478256040E+02  0.21945083143E+02  0.51100000000E-03 0.  1.
        -12    1    3    3    0    0 -0.11266109121E+02  0.11273779134E+02  0.12083788060E+02  0.20001031088E+02  0.00000000000E+00 0.  1.
</event>
<event>
 7    1  0.1333056E-013  0.7246161E+02  0.7816164E-02  0.1226708E+00
        -11   -1    0    0    0    0  0.00000000000E+00  0.00000000000E+00  0.45593999997E+02  0.45594000000E+02  0.51100000000E-03 0.  1.
         11   -1    0    0    0    0 -0.00000000000E+00 -0.00000000000E+00 -0.45593999997E+02  0.45594000000E+02  0.51100000000E-03 0. -1.
    9900012    2    1    2    0    0  0.36657239124E+01  0.17695699666E+02  0.49094134245E+01  0.72461610635E+02  0.70000052551E+02 0.  0.
         12    1    1    2    0    0 -0.36657239124E+01 -0.17695699666E+02 -0.49094134245E+01  0.18726389365E+02  0.00000000000E+00 0. -1.
         11    1    3    3    0    0  0.13749447837E+02  0.12908014526E+02 -0.94576195095E+01  0.21097647307E+02  0.51100000000E-03 0. -1.
        -11    1    3    3    0    0  0.23751633320E+01 -0.17102753185E+02  0.19086627293E+02  0.25738005149E+02  0.51100000000E-03 0.  1.
        -12    1    3    3    0    0 -0.12458887256E+02  0.21890438325E+02 -0.47195943587E+01  0.25625958180E+02  0.00000000000E+00 0.  1.
</event>
<event>
 7    1  0.1333056E-013  0.7246157E+02  0.7816164E-02  0.1226708E+00
        -11   -1    0    0    0    0  0.00000000000E+00  0.00000000000E+00  0.45593999997E+02  0.45594000000E+02  0.51100000000E-03 0.  1.
         11   -1    0    0    0    0 -0.00000000000E+00 -0.00000000000E+00 -0.45593999997E+02  0.45594000000E+02  0.51100000000E-03 0. -1.
    9900012    2    1    2    0    0 -0.42276648607E+01 -0.44484963182E+01  0.17692284756E+02  0.72461569225E+02  0.69999998607E+02 0.  0.
         12    1    1    2    0    0  0.42276648607E+01  0.44484963182E+01 -0.17692284756E+02  0.18726430775E+02  0.00000000000E+00 0. -1.
         11    1    3    3    0    0 -0.15917630014E+02 -0.21151798534E+02  0.20970350991E+02  0.33771661899E+02  0.51100000000E-03 0.  1.
        -11    1    3    3    0    0  0.16187011856E+02 -0.38060819866E+01 -0.56444886862E+01  0.17560349247E+02  0.51100000000E-03 0. -1.
         12    1    3    3    0    0 -0.44970467028E+01  0.20509384202E+02  0.23664224513E+01  0.21129558079E+02  0.00000000000E+00 0. -1.
</event>
<event>
 7    1  0.1333056E-013  0.7246160E+02  0.7816164E-02  0.1226708E+00
        -11   -1    0    0    0    0  0.00000000000E+00  0.00000000000E+00  0.45593999997E+02  0.45594000000E+02  0.51100000000E-03 0. -1.
         11   -1    0    0    0    0 -0.00000000000E+00 -0.00000000000E+00 -0.45593999997E+02  0.45594000000E+02  0.51100000000E-03 0.  1.
    9900012    2    1    2    0    0 -0.17722763560E+02  0.40732184741E+01 -0.44710954001E+01  0.72461597488E+02  0.70000035425E+02 0.  0.
         12    1    1    2    0    0  0.17722763560E+02 -0.40732184741E+01  0.44710954001E+01  0.18726402512E+02  0.00000000000E+00 0. -1.
         11    1    3    3    0    0  0.57743609057E+00 -0.22259472315E+01  0.14951795109E+02  0.15127605586E+02  0.51100000000E-03 0. -1.
        -11    1    3    3    0    0 -0.19745936475E+02  0.26789537282E+02 -0.13873464417E+02  0.36056266172E+02  0.51100000000E-03 0.  1.
        -12    1    3    3    0    0  0.14457368241E+01 -0.20490371577E+02 -0.55494260925E+01  0.21277725731E+02  0.00000000000E+00 0.  1.
</event>
<event>
 7    1  0.1333056E-013  0.7246157E+02  0.7816164E-02  0.1226708E+00
        -11   -1    0    0    0    0  0.00000000000E+00  0.00000000000E+00  0.45593999997E+02  0.45594000000E+02  0.51100000000E-03 0. -1.
         11   -1    0    0    0    0 -0.00000000000E+00 -0.00000000000E+00 -0.45593999997E+02  0.45594000000E+02  0.51100000000E-03 0.  1.
    9900012    2    1    2    0    0  0.48357741921E+01 -0.17932496024E+02  0.23916451227E+01  0.72461572362E+02  0.70000002694E+02 0.  0.
         12    1    1    2    0    0 -0.48357741921E+01  0.17932496024E+02 -0.23916451227E+01  0.18726427638E+02  0.00000000000E+00 0. -1.
         11    1    3    3    0    0  0.33756745405E+01 -0.27640474576E+01 -0.30962997900E+02  0.31268872320E+02  0.51100000000E-03 0. -1.
        -11    1    3    3    0    0 -0.14399800691E+01 -0.93826105448E+01  0.27094845489E+01  0.98715870060E+01  0.51100000000E-03 0.  1.
         12    1    3    3    0    0  0.29000797207E+01 -0.57858380215E+01  0.30645158473E+02  0.31321113037E+02  0.00000000000E+00 0. -1.
</event>
<event>
 7    1  0.1333056E-013  0.7246155E+02  0.7816164E-02  0.1226708E+00
        -11   -1    0    0    0    0  0.00000000000E+00  0.00000000000E+00  0.45593999997E+02  0.45594000000E+02  0.51100000000E-03 0.  1.
         11   -1    0    0    0    0 -0.00000000000E+00 -0.00000000000E+00 -0.45593999997E+02  0.45594000000E+02  0.51100000000E-03 0. -1.
    9900012    2    1    2    0    0 -0.23456328431E+01 -0.49024663200E+01  0.17920488808E+02  0.72461545756E+02  0.69999968034E+02 0.  0.
         12    1    1    2    0    0  0.23456328431E+01  0.49024663200E+01 -0.17920488808E+02  0.18726454244E+02  0.00000000000E+00 0. -1.
         11    1    3    3    0    0 -0.10522871092E+01 -0.12149771723E+02 -0.12344649668E+02  0.17352655035E+02  0.51100000000E-03 0. -1.
        -11    1    3    3    0    0 -0.68217024599E+01  0.24197663826E+01  0.41259629670E+02  0.41889711559E+02  0.51100000000E-03 0.  1.
        -12    1    3    3    0    0  0.55283567260E+01  0.48275390205E+01 -0.10994491194E+02  0.13219179161E+02  0.00000000000E+00 0.  1.
</event>
<event>
 7    1  0.1333056E-013  0.7246132E+02  0.7816164E-02  0.1226709E+00
        -11   -1    0    0    0    0  0.00000000000E+00  0.00000000000E+00  0.45593999997E+02  0.45594000000E+02  0.51100000000E-03 0.  1.
         11   -1    0    0    0    0 -0.00000000000E+00 -0.00000000000E+00 -0.45593999997E+02  0.45594000000E+02  0.51100000000E-03 0. -1.
    9900012    2    1    2    0    0  0.17322138311E+02 -0.48847787742E+01 -0.51740739273E+01  0.72461319025E+02  0.69999672675E+02 0.  0.
         12    1    1    2    0    0 -0.17322138311E+02  0.48847787742E+01  0.51740739273E+01  0.18726680975E+02  0.00000000000E+00 0. -1.
         11    1    3    3    0    0  0.82882158859E+01  0.12105791361E+02 -0.22600120487E+02  0.26944575583E+02  0.51100000000E-03 0. -1.
        -11    1    3    3    0    0  0.90252377543E+00 -0.15594146067E+02  0.28025608015E+02  0.32084679297E+02  0.51100000000E-03 0.  1.
        -12    1    3    3    0    0  0.81313986492E+01 -0.13964240687E+01 -0.10599561456E+02  0.13432064146E+02  0.00000000000E+00 0.  1.
</event>
<event>
 7    1  0.1333056E-013  0.7246156E+02  0.7816164E-02  0.1226708E+00
        -11   -1    0    0    0    0  0.00000000000E+00  0.00000000000E+00  0.45593999997E+02  0.45594000000E+02  0.51100000000E-03 0.  1.
         11   -1    0    0    0    0 -0.00000000000E+00 -0.00000000000E+00 -0.45593999997E+02  0.45594000000E+02  0.51100000000E-03 0. -1.
    9900012    2    1    2    0    0  0.12288429943E+01 -0.14252795965E+02 -0.12084172151E+02  0.72461562418E+02  0.69999989740E+02 0.  0.
         12    1    1    2    0    0 -0.12288429943E+01  0.14252795965E+02  0.12084172151E+02  0.18726437582E+02  0.00000000000E+00 0. -1.
         11    1    3    3    0    0  0.73295708532E+00  0.80852069058E+01 -0.22763593822E+01  0.84314654181E+01  0.51100000000E-03 0. -1.
        -11    1    3    3    0    0 -0.27635163272E+02 -0.12607544190E+02  0.49999086398E+01  0.30783948840E+02  0.51100000000E-03 0.  1.
        -12    1    3    3    0    0  0.28131049180E+02 -0.97304586812E+01 -0.14807721409E+02  0.33246148160E+02  0.00000000000E+00 0.  1.
</event>
<event>
 7    1  0.1333056E-013  0.7246161E+02  0.7816164E-02  0.1226708E+00
        -11   -1    0    0    0    0  0.00000000000E+00  0.00000000000E+00  0.45593999997E+02  0.45594000000E+02  0.51100000000E-03 0. -1.
         11   -1    0    0    0    0 -0.00000000000E+00 -0.00000000000E+00 -0.45593999997E+02  0.45594000000E+02  0.51100000000E-03 0.  1.
    9900012    2    1    2    0    0 -0.17062701236E+02  0.52806634422E+01  0.56264049143E+01  0.72461611877E+02  0.70000054170E+02 0.  0.
         12    1    1    2    0    0  0.17062701236E+02 -0.52806634422E+01 -0.56264049143E+01  0.18726388123E+02  0.00000000000E+00 0. -1.
         11    1    3    3    0    0  0.17187292531E+01  0.21808033157E+02 -0.98604286064E+01  0.23995257719E+02  0.51100000000E-03 0.  1.
        -11    1    3    3    0    0 -0.23042535748E+02  0.49493522547E+01  0.11448984287E+02  0.26201789689E+02  0.51100000000E-03 0. -1.
         12    1    3    3    0    0  0.42611052587E+01 -0.21476721970E+02  0.40378492333E+01  0.22264564470E+02  0.00000000000E+00 0. -1.
</event>
<event>
 7    1  0.1333056E-013  0.7246161E+02  0.7816164E-02  0.1226708E+00
        -11   -1    0    0    0    0  0.00000000000E+00  0.00000000000E+00  0.45593999997E+02  0.45594000000E+02  0.51100000000E-03 0. -1.
         11   -1    0    0    0    0 -0.00000000000E+00 -0.00000000000E+00 -0.45593999997E+02  0.45594000000E+02  0.51100000000E-03 0.  1.
    9900012    2    1    2    0    0 -0.91026826715E+00  0.18650932169E+02  0.14113068425E+01  0.72461610970E+02  0.70000052988E+02 0.  0.
         12    1    1    2    0    0  0.91026826715E+00 -0.18650932169E+02 -0.14113068425E+01  0.18726389030E+02  0.00000000000E+00 0. -1.
         11    1    3    3    0    0 -0.27032945482E+02 -0.81263135381E+01  0.89303758321E+01  0.29606903349E+02  0.51100000000E-03 0. -1.
        -11    1    3    3    0    0  0.25545894503E+02  0.13524587983E+02 -0.45463657789E+01  0.29260496375E+02  0.51100000000E-03 0.  1.
         12    1    3    3    0    0  0.57678271166E+00  0.13252657724E+02 -0.29727032106E+01  0.13594211247E+02  0.00000000000E+00 0. -1.
</event>
<event>
 7    1  0.1333056E-013  0.7246166E+02  0.7816164E-02  0.1226708E+00
        -11   -1    0    0    0    0  0.00000000000E+00  0.00000000000E+00  0.45593999997E+02  0.45594000000E+02  0.51100000000E-03 0.  1.
         11   -1    0    0    0    0 -0.00000000000E+00 -0.00000000000E+00 -0.45593999997E+02  0.45594000000E+02  0.51100000000E-03 0. -1.
    9900012    2    1    2    0    0 -0.30453575043E+01  0.16682982285E+02 -0.79422849452E+01  0.72461655178E+02  0.70000110577E+02 0.  0.
         12    1    1    2    0    0  0.30453575043E+01 -0.16682982285E+02  0.79422849452E+01  0.18726344822E+02  0.00000000000E+00 0. -1.
         11    1    3    3    0    0 -0.20113156861E+02  0.58830404306E+01 -0.10996615603E+02  0.23665899488E+02  0.51100000000E-03 0. -1.
        -11    1    3    3    0    0  0.24002837653E+02 -0.10552138708E+02  0.79054508239E+00  0.26231828158E+02  0.51100000000E-03 0.  1.
        -12    1    3    3    0    0 -0.69350382972E+01  0.21352080562E+02  0.22637855753E+01  0.22563927532E+02  0.00000000000E+00 0.  1.
</event>
<event>
 7    1  0.1333056E-013  0.7246161E+02  0.7816164E-02  0.1226708E+00
        -11   -1    0    0    0    0  0.00000000000E+00  0.00000000000E+00  0.45593999997E+02  0.45594000000E+02  0.51100000000E-03 0. -1.
         11   -1    0    0    0    0 -0.00000000000E+00 -0.00000000000E+00 -0.45593999997E+02  0.45594000000E+02  0.51100000000E-03 0.  1.
    9900012    2    1    2    0    0 -0.12064811342E+02  0.14259455657E+02  0.13363184359E+01  0.72461614997E+02  0.70000058233E+02 0.  0.
         12    1    1    2    0    0  0.12064811342E+02 -0.14259455657E+02 -0.13363184359E+01  0.18726385003E+02  0.00000000000E+00 0. -1.
         11    1    3    3    0    0 -0.99042091627E+01 -0.97913396630E+01  0.15349575363E+01  0.14011416289E+02  0.51100000000E-03 0. -1.
        -11    1    3    3    0    0  0.13668106596E+02  0.25692894981E+01  0.20435749414E+02  0.24719187705E+02  0.51100000000E-03 0.  1.
        -12    1    3    3    0    0 -0.15828708775E+02  0.21481505822E+02 -0.20634388514E+02  0.33731011002E+02  0.00000000000E+00 0.  1.
</event>
<event>
 7    1  0.1333056E-013  0.7246156E+02  0.7816164E-02  0.1226708E+00
        -11   -1    0    0    0    0  0.00000000000E+00  0.00000000000E+00  0.45593999997E+02  0.45594000000E+02  0.51100000000E-03 0. -1.
         11   -1    0    0    0    0 -0.00000000000E+00 -0.00000000000E+00 -0.45593999997E+02  0.45594000000E+02  0.51100000000E-03 0.  1.
    9900012    2    1    2    0    0  0.12557044080E+02 -0.90853840612E+01 -0.10509808513E+02  0.72461557878E+02  0.69999983825E+02 0.  0.
         12    1    1    2    0    0 -0.12557044080E+02  0.90853840612E+01  0.10509808513E+02  0.18726442122E+02  0.00000000000E+00 0. -1.
         11    1    3    3    0    0  0.27637562717E+02  0.11113609577E+02  0.72024200670E+01  0.30646729774E+02  0.51100000000E-03 0. -1.
        -11    1    3    3    0    0  0.61057840564E+01 -0.92143523295E+01 -0.13719545682E+02  0.17618479553E+02  0.51100000000E-03 0.  1.
         12    1    3    3    0    0 -0.21186302693E+02 -0.10984641309E+02 -0.39926828980E+01  0.24196348551E+02  0.00000000000E+00 0. -1.
</event>
<event>
 7    1  0.1333056E-013  0.7246157E+02  0.7816164E-02  0.1226708E+00
        -11   -1    0    0    0    0  0.00000000000E+00  0.00000000000E+00  0.45593999997E+02  0.45594000000E+02  0.51100000000E-03 0.  1.
         11   -1    0    0    0    0 -0.00000000000E+00 -0.00000000000E+00 -0.45593999997E+02  0.45594000000E+02  0.51100000000E-03 0. -1.
    9900012    2    1    2    0    0 -0.16203776860E+02 -0.81201074902E+01  0.47096287060E+01  0.72461571277E+02  0.70000001279E+02 0.  0.
         12    1    1    2    0    0  0.16203776860E+02  0.81201074902E+01 -0.47096287060E+01  0.18726428723E+02  0.00000000000E+00 0. -1.
         11    1    3    3    0    0  0.14680982479E+02  0.16872717973E+02  0.19634551218E+02  0.29761308105E+02  0.51100000000E-03 0.  1.
        -11    1    3    3    0    0 -0.26200402171E+02 -0.18826113556E+02 -0.12079139444E+02  0.34449807482E+02  0.51100000000E-03 0. -1.
        -12    1    3    3    0    0 -0.46843571682E+01 -0.61667119067E+01 -0.28457830678E+01  0.82504556898E+01  0.00000000000E+00 0.  1.
</event>
<event>
 7    1  0.1333056E-013  0.7246158E+02  0.7816164E-02  0.1226708E+00
        -11   -1    0    0    0    0  0.00000000000E+00  0.00000000000E+00  0.45593999997E+02  0.45594000000E+02  0.51100000000E-03 0.  1.
         11   -1    0    0    0    0 -0.00000000000E+00 -0.00000000000E+00 -0.45593999997E+02  0.45594000000E+02  0.51100000000E-03 0. -1.
    9900012    2    1    2    0    0 -0.11953129044E+01  0.14959373677E+02  0.11201220355E+02  0.72461575590E+02  0.70000006898E+02 0.  0.
         12    1    1    2    0    0  0.11953129044E+01 -0.14959373677E+02 -0.11201220355E+02  0.18726424410E+02  0.00000000000E+00 0. -1.
         11    1    3    3    0    0 -0.18001361509E+02  0.32400780552E+02 -0.44096410939E+01  0.37326994674E+02  0.51100000000E-03 0. -1.
        -11    1    3    3    0    0  0.11473843098E+02  0.17056457114E+01  0.58416082639E+01  0.12987790040E+02  0.51100000000E-03 0.  1.
         12    1    3    3    0    0  0.53322055062E+01 -0.19147052586E+02  0.97692531847E+01  0.22146790876E+02  0.00000000000E+00 0. -1.
</event>
<event>
 7    1  0.1333056E-013  0.7246161E+02  0.7816164E-02  0.1226708E+00
        -11   -1    0    0    0    0  0.00000000000E+00  0.00000000000E+00  0.45593999997E+02  0.45594000000E+02  0.51100000000E-03 0.  1.
         11   -1    0    0    0    0 -0.00000000000E+00 -0.00000000000E+00 -0.45593999997E+02  0.45594000000E+02  0.51100000000E-03 0. -1.
    9900012    2    1    2    0    0  0.15757568246E+02  0.30617412258E+01  0.96437810422E+01  0.72461608753E+02  0.70000050099E+02 0.  0.
         12    1    1    2    0    0 -0.15757568246E+02 -0.30617412258E+01 -0.96437810422E+01  0.18726391247E+02  0.00000000000E+00 0. -1.
         11    1    3    3    0    0  0.31150191909E+01  0.20781173135E+01 -0.55924445019E+00  0.37861155218E+01  0.51100000000E-03 0. -1.
        -11    1    3    3    0    0 -0.26369610223E+02  0.24551152893E+01 -0.46817212322E+01  0.26894282819E+02  0.51100000000E-03 0.  1.
        -12    1    3    3    0    0  0.39012159278E+02 -0.14714913770E+01  0.14884746725E+02  0.41781210412E+02  0.00000000000E+00 0.  1.
</event>
<event>
 7    1  0.1333056E-013  0.7246155E+02  0.7816164E-02  0.1226708E+00
        -11   -1    0    0    0    0  0.00000000000E+00  0.00000000000E+00  0.45593999997E+02  0.45594000000E+02  0.51100000000E-03 0. -1.
         11   -1    0    0    0    0 -0.00000000000E+00 -0.00000000000E+00 -0.45593999997E+02  0.45594000000E+02  0.51100000000E-03 0.  1.
    9900012    2    1    2    0    0 -0.11146885866E+02 -0.83048421230E+01  0.12548158748E+02  0.72461554658E+02  0.69999979630E+02 0.  0.
         12    1    1    2    0    0  0.11146885866E+02  0.83048421230E+01 -0.12548158748E+02  0.18726445342E+02  0.00000000000E+00 0. -1.
         11    1    3    3    0    0  0.58812670994E+01 -0.21108827978E+02  0.25024611260E+02  0.33262638053E+02  0.51100000000E-03 0. -1.
        -11    1    3    3    0    0 -0.24569697874E+02  0.14228469993E+02 -0.56961608735E+01  0.28957998220E+02  0.51100000000E-03 0.  1.
         12    1    3    3    0    0  0.75415449086E+01 -0.14244841382E+01 -0.67802916384E+01  0.10240918385E+02  0.00000000000E+00 0. -1.
</event>
<event>
 7    1  0.1333056E-013  0.7246162E+02  0.7816164E-02  0.1226708E+00
        -11   -1    0    0    0    0  0.00000000000E+00  0.00000000000E+00  0.45593999997E+02  0.45594000000E+02  0.51100000000E-03 0.  1.
         11   -1    0    0    0    0 -0.00000000000E+00 -0.00000000000E+00 -0.45593999997E+02  0.45594000000E+02  0.51100000000E-03 0. -1.
    9900012    2    1    2    0    0 -0.10118962137E+02 -0.61340881777E+01  0.14514019739E+02  0.72461622841E+02  0.70000068452E+02 0.  0.
         12    1    1    2    0    0  0.10118962137E+02  0.61340881777E+01 -0.14514019739E+02  0.18726377159E+02  0.00000000000E+00 0. -1.
         11    1    3    3    0    0 -0.52302041602E+01 -0.83839479668E+01 -0.26071302170E+02  0.27881148043E+02  0.51100000000E-03 0. -1.
        -11    1    3    3    0    0 -0.83268994481E+00 -0.71502687022E+01  0.24305254406E+02  0.25348867964E+02  0.51100000000E-03 0.  1.
         12    1    3    3    0    0 -0.40560680322E+01  0.94001284914E+01  0.16280067503E+02  0.19231606834E+02  0.00000000000E+00 0. -1.
</event>
<event>
 7    1  0.1333056E-013  0.7246159E+02  0.7816164E-02  0.1226708E+00
        -11   -1    0    0    0    0  0.00000000000E+00  0.00000000000E+00  0.45593999997E+02  0.45594000000E+02  0.51100000000E-03 0.  1.
         11   -1    0    0    0    0 -0.00000000000E+00 -0.00000000000E+00 -0.45593999997E+02  0.45594000000E+02  0.51100000000E-03 0. -1.
    9900012    2    1    2    0    0 -0.68513725323E+01  0.13009874789E+02  0.11596568817E+02  0.72461586677E+02  0.70000021342E+02 0.  0.
         12    1    1    2    0    0  0.68513725323E+01 -0.13009874789E+02 -0.11596568817E+02  0.18726413323E+02  0.00000000000E+00 0. -1.
         11    1    3    3    0    0 -0.28681208939E+01  0.40214686203E+02  0.69258650446E+01  0.40907391884E+02  0.51100000000E-03 0. -1.
        -11    1    3    3    0    0 -0.10668208660E+01 -0.19101657171E+02 -0.37656971654E+01  0.19498509913E+02  0.51100000000E-03 0.  1.
        -12    1    3    3    0    0 -0.29164307724E+01 -0.81031542430E+01  0.84364009377E+01  0.12055684880E+02  0.00000000000E+00 0.  1.
</event>
<event>
 7    1  0.1333056E-013  0.7246157E+02  0.7816164E-02  0.1226708E+00
        -11   -1    0    0    0    0  0.00000000000E+00  0.00000000000E+00  0.45593999997E+02  0.45594000000E+02  0.51100000000E-03 0. -1.
         11   -1    0    0    0    0 -0.00000000000E+00 -0.00000000000E+00 -0.45593999997E+02  0.45594000000E+02  0.51100000000E-03 0.  1.
    9900012    2    1    2    0    0  0.18693187675E+02  0.81077316674E+00  0.76594058600E+00  0.72461567249E+02  0.69999996033E+02 0.  0.
         12    1    1    2    0    0 -0.18693187675E+02 -0.81077316674E+00 -0.76594058600E+00  0.18726432751E+02  0.00000000000E+00 0. -1.
         11    1    3    3    0    0 -0.18152580399E+01 -0.25280180447E+02  0.19639460947E+02  0.32063859900E+02  0.51100000000E-03 0. -1.
        -11    1    3    3    0    0  0.17727792356E+02  0.13240403898E+02 -0.14850341551E+02  0.26647993576E+02  0.51100000000E-03 0.  1.
         12    1    3    3    0    0  0.27806533590E+01  0.12850549715E+02 -0.40231788099E+01  0.13749713772E+02  0.00000000000E+00 0. -1.
</event>
<event>
 7    1  0.1333056E-013  0.7246155E+02  0.7816164E-02  0.1226708E+00
        -11   -1    0    0    0    0  0.00000000000E+00  0.00000000000E+00  0.45593999997E+02  0.45594000000E+02  0.51100000000E-03 0.  1.
         11   -1    0    0    0    0 -0.00000000000E+00 -0.00000000000E+00 -0.45593999997E+02  0.45594000000E+02  0.51100000000E-03 0. -1.
    9900012    2    1    2    0    0 -0.14733221548E+02  0.77906372751E+01  0.85392035088E+01  0.72461552315E+02  0.69999976579E+02 0.  0.
         12    1    1    2    0    0  0.14733221548E+02 -0.77906372751E+01 -0.85392035088E+01  0.18726447685E+02  0.00000000000E+00 0. -1.
         11    1    3    3    0    0 -0.25456290214E+02  0.27429842739E+02  0.29802926827E+01  0.37540659676E+02  0.51100000000E-03 0. -1.
        -11    1    3    3    0    0 -0.40724434699E+01 -0.18711761391E+02  0.60662480503E+01  0.20087662279E+02  0.51100000000E-03 0.  1.
        -12    1    3    3    0    0  0.14795512136E+02 -0.92744407316E+00 -0.50733722420E+00  0.14833230361E+02  0.00000000000E+00 0.  1.
</event>
<event>
 7    1  0.1333056E-013  0.7246157E+02  0.7816164E-02  0.1226708E+00
        -11   -1    0    0    0    0  0.00000000000E+00  0.00000000000E+00  0.45593999997E+02  0.45594000000E+02  0.51100000000E-03 0.  1.
         11   -1    0    0    0    0 -0.00000000000E+00 -0.00000000000E+00 -0.45593999997E+02  0.45594000000E+02  0.51100000000E-03 0. -1.
    9900012    2    1    2    0    0 -0.54498203808E+01  0.69216981352E+01  0.16524788262E+02  0.72461572835E+02  0.70000003310E+02 0.  0.
         12    1    1    2    0    0  0.54498203808E+01 -0.69216981352E+01 -0.16524788262E+02  0.18726427165E+02  0.00000000000E+00 0. -1.
         11    1    3    3    0    0 -0.63625864441E+01  0.33204228193E+02  0.87076335116E+00  0.33819543244E+02  0.51100000000E-03 0. -1.
        -11    1    3    3    0    0  0.11789107436E+02 -0.12115717217E+02  0.11056156993E+02  0.20199313492E+02  0.51100000000E-03 0.  1.
         12    1    3    3    0    0 -0.10876341373E+02 -0.14166812841E+02  0.45978679175E+01  0.18442716100E+02  0.00000000000E+00 0. -1.
</event>
<event>
 7    1  0.1333056E-013  0.7246156E+02  0.7816164E-02  0.1226708E+00
        -11   -1    0    0    0    0  0.00000000000E+00  0.00000000000E+00  0.45593999997E+02  0.45594000000E+02  0.51100000000E-03 0. -1.
         11   -1    0    0    0    0 -0.00000000000E+00 -0.00000000000E+00 -0.45593999997E+02  0.45594000000E+02  0.51100000000E-03 0.  1.
    9900012    2    1    2    0    0  0.70472052822E+01 -0.70562575762E+01 -0.15850103338E+02  0.72461557489E+02  0.69999983319E+02 0.  0.
         12    1    1    2    0    0 -0.70472052822E+01  0.70562575762E+01  0.15850103338E+02  0.18726442511E+02  0.00000000000E+00 0. -1.
         11    1    3    3    0    0  0.26242626670E+01 -0.16111719796E+01  0.74886978674E+01  0.80971121829E+01  0.51100000000E-03 0. -1.
        -11    1    3    3    0    0  0.20266622571E+02 -0.27673884107E+01 -0.37649577219E+02  0.42847229713E+02  0.51100000000E-03 0.  1.
        -12    1    3    3    0    0 -0.15843679956E+02 -0.26776971858E+01  0.14310776013E+02  0.21517215593E+02  0.00000000000E+00 0.  1.
</event>
<event>
 7    1  0.1333056E-013  0.7246156E+02  0.7816164E-02  0.1226708E+00
        -11   -1    0    0    0    0  0.00000000000E+00  0.00000000000E+00  0.45593999997E+02  0.45594000000E+02  0.51100000000E-03 0.  1.
         11   -1    0    0    0    0 -0.00000000000E+00 -0.00000000000E+00 -0.45593999997E+02  0.45594000000E+02  0.51100000000E-03 0. -1.
    9900012    2    1    2    0    0  0.64299720498E+01 -0.12319406767E+02 -0.12552586080E+02  0.72461555037E+02  0.69999980124E+02 0.  0.
         12    1    1    2    0    0 -0.64299720498E+01  0.12319406767E+02  0.12552586080E+02  0.18726444963E+02  0.00000000000E+00 0. -1.
         11    1    3    3    0    0  0.21397007055E+02 -0.41903325324E+01 -0.30777092694E+02  0.37717638216E+02  0.51100000000E-03 0. -1.
        -11    1    3    3    0    0 -0.42495233053E+01  0.81114441432E+01  0.19166403075E+01  0.93556124728E+01  0.51100000000E-03 0.  1.
         12    1    3    3    0    0 -0.10717511700E+02 -0.16240518378E+02  0.16307866306E+02  0.25388304348E+02  0.00000000000E+00 0. -1.
</event>
<event>
 7    1  0.1333056E-013  0.7246163E+02  0.7816164E-02  0.1226708E+00
        -11   -1    0    0    0    0  0.00000000000E+00  0.00000000000E+00  0.45593999997E+02  0.45594000000E+02  0.51100000000E-03 0.  1.
         11   -1    0    0    0    0 -0.00000000000E+00 -0.00000000000E+00 -0.45593999997E+02  0.45594000000E+02  0.51100000000E-03 0. -1.
    9900012    2    1    2    0    0  0.11645816379E+02 -0.50176822166E+01  0.13779508028E+02  0.72461627809E+02  0.70000074923E+02 0.  0.
         12    1    1    2    0    0 -0.11645816379E+02  0.50176822166E+01 -0.13779508028E+02  0.18726372191E+02  0.00000000000E+00 0. -1.
         11    1    3    3    0    0  0.56906523583E+01  0.19067512648E+02 -0.18107920691E+02  0.26904467191E+02  0.51100000000E-03 0. -1.
        -11    1    3    3    0    0  0.68516903632E+01 -0.21505357670E+02  0.12152506312E+02  0.25634146743E+02  0.51100000000E-03 0.  1.
        -12    1    3    3    0    0 -0.89652634269E+00 -0.25798371948E+01  0.19734922407E+02  0.19923013874E+02  0.00000000000E+00 0.  1.
</event>
<event>
 7    1  0.1333056E-013  0.7246155E+02  0.7816164E-02  0.1226708E+00
        -11   -1    0    0    0    0  0.00000000000E+00  0.00000000000E+00  0.45593999997E+02  0.45594000000E+02  0.51100000000E-03 0.  1.
         11   -1    0    0    0    0 -0.00000000000E+00 -0.00000000000E+00 -0.45593999997E+02  0.45594000000E+02  0.51100000000E-03 0. -1.
    9900012    2    1    2    0    0 -0.10708408849E+02  0.13415634650E+02 -0.74853640716E+01  0.72461549498E+02  0.69999972908E+02 0.  0.
         12    1    1    2    0    0  0.10708408849E+02 -0.13415634650E+02  0.74853640716E+01  0.18726450502E+02  0.00000000000E+00 0. -1.
         11    1    3    3    0    0 -0.39138436922E+01 -0.21125574664E+01 -0.26844027018E+02  0.27209977183E+02  0.51100000000E-03 0. -1.
        -11    1    3    3    0    0  0.36833520405E+01  0.25143358507E+02  0.68667894374E+01  0.26323152484E+02  0.51100000000E-03 0.  1.
        -12    1    3    3    0    0 -0.10477917197E+02 -0.96151663906E+01  0.12491873509E+02  0.18928419830E+02  0.00000000000E+00 0.  1.
</event>
<event>
 7    1  0.1333056E-013  0.7246155E+02  0.7816164E-02  0.1226708E+00
        -11   -1    0    0    0    0  0.00000000000E+00  0.00000000000E+00  0.45593999997E+02  0.45594000000E+02  0.51100000000E-03 0.  1.
         11   -1    0    0    0    0 -0.00000000000E+00 -0.00000000000E+00 -0.45593999997E+02  0.45594000000E+02  0.51100000000E-03 0. -1.
    9900012    2    1    2    0    0  0.85301827692E+01  0.13065157524E+02  0.10354590576E+02  0.72461550651E+02  0.69999974411E+02 0.  0.
         12    1    1    2    0    0 -0.85301827692E+01 -0.13065157524E+02 -0.10354590576E+02  0.18726449349E+02  0.00000000000E+00 0. -1.
         11    1    3    3    0    0  0.10325351312E+02 -0.20680100992E+02  0.17761075462E+02  0.29150218843E+02  0.51100000000E-03 0. -1.
        -11    1    3    3    0    0  0.18065832471E+01  0.32222851125E+02  0.27870041549E+01  0.32393568345E+02  0.51100000000E-03 0.  1.
        -12    1    3    3    0    0 -0.36017517902E+01  0.15224073911E+01 -0.10193489041E+02  0.10917763463E+02  0.00000000000E+00 0.  1.
</event>
<event>
 7    1  0.1333056E-013  0.7246160E+02  0.7816164E-02  0.1226708E+00
        -11   -1    0    0    0    0  0.00000000000E+00  0.00000000000E+00  0.45593999997E+02  0.45594000000E+02  0.51100000000E-03 0. -1.
         11   -1    0    0    0    0 -0.00000000000E+00 -0.00000000000E+00 -0.45593999997E+02  0.45594000000E+02  0.51100000000E-03 0.  1.
    9900012    2    1    2    0    0  0.87283843143E+01  0.13311248947E+02 -0.98642880044E+01  0.72461595671E+02  0.70000033057E+02 0.  0.
         12    1    1    2    0    0 -0.87283843143E+01 -0.13311248947E+02  0.98642880044E+01  0.18726404329E+02  0.00000000000E+00 0. -1.
         11    1    3    3    0    0  0.26325763321E+02  0.24383113080E+02  0.11384757751E+01  0.35900949086E+02  0.51100000000E-03 0. -1.
        -11    1    3    3    0    0 -0.20849442345E+02  0.15853002080E+01 -0.27130807978E+01  0.21084905277E+02  0.51100000000E-03 0.  1.
         12    1    3    3    0    0  0.32520633381E+01 -0.12657164341E+02 -0.82896829817E+01  0.15475741308E+02  0.00000000000E+00 0. -1.
</event>
<event>
 7    1  0.1333056E-013  0.7246161E+02  0.7816164E-02  0.1226708E+00
        -11   -1    0    0    0    0  0.00000000000E+00  0.00000000000E+00  0.45593999997E+02  0.45594000000E+02  0.51100000000E-03 0.  1.
         11   -1    0    0    0    0 -0.00000000000E+00 -0.00000000000E+00 -0.45593999997E+02  0.45594000000E+02  0.51100000000E-03 0. -1.
    9900012    2    1    2    0    0 -0.16870389695E+02 -0.30194106787E+01  0.75465663716E+01  0.72461613448E+02  0.70000056215E+02 0.  0.
         12    1    1    2    0    0  0.16870389695E+02  0.30194106787E+01 -0.75465663716E+01  0.18726386552E+02  0.00000000000E+00 0. -1.
         11    1    3    3    0    0  0.14614910747E+02  0.95688067727E+00  0.24737162936E+02  0.28747842826E+02  0.51100000000E-03 0. -1.
        -11    1    3    3    0    0 -0.11096411540E+02 -0.12124680444E+02 -0.10627019459E+01  0.16470202203E+02  0.51100000000E-03 0.  1.
         12    1    3    3    0    0 -0.20388888902E+02  0.81483890875E+01 -0.16127894618E+02  0.27243568419E+02  0.00000000000E+00 0. -1.
</event>
<event>
 7    1  0.1333056E-013  0.7246159E+02  0.7816164E-02  0.1226708E+00
        -11   -1    0    0    0    0  0.00000000000E+00  0.00000000000E+00  0.45593999997E+02  0.45594000000E+02  0.51100000000E-03 0. -1.
         11   -1    0    0    0    0 -0.00000000000E+00 -0.00000000000E+00 -0.45593999997E+02  0.45594000000E+02  0.51100000000E-03 0.  1.
    9900012    2    1    2    0    0  0.20994384883E+01  0.17105917267E+02 -0.73252009533E+01  0.72461585060E+02  0.70000019235E+02 0.  0.
         12    1    1    2    0    0 -0.20994384883E+01 -0.17105917267E+02  0.73252009533E+01  0.18726414940E+02  0.00000000000E+00 0. -1.
         11    1    3    3    0    0 -0.23601709257E+02  0.98084435551E+01  0.66040880962E+01  0.26398110248E+02  0.51100000000E-03 0. -1.
        -11    1    3    3    0    0  0.31463282794E+02  0.14481964662E+02 -0.10002709521E+02  0.36051624966E+02  0.51100000000E-03 0.  1.
         12    1    3    3    0    0 -0.57621350496E+01 -0.71844909504E+01 -0.39265795287E+01  0.10011849846E+02  0.00000000000E+00 0. -1.
</event>
<event>
 7    1  0.1333056E-013  0.7246174E+02  0.7816164E-02  0.1226708E+00
        -11   -1    0    0    0    0  0.00000000000E+00  0.00000000000E+00  0.45593999997E+02  0.45594000000E+02  0.51100000000E-03 0. -1.
         11   -1    0    0    0    0 -0.00000000000E+00 -0.00000000000E+00 -0.45593999997E+02  0.45594000000E+02  0.51100000000E-03 0.  1.
    9900012    2    1    2    0    0  0.11349129458E+02  0.10503192122E+02 -0.10561875584E+02  0.72461735021E+02  0.70000214587E+02 0.  0.
         12    1    1    2    0    0 -0.11349129458E+02 -0.10503192122E+02  0.10561875584E+02  0.18726264979E+02  0.00000000000E+00 0. -1.
         11    1    3    3    0    0  0.84454058497E+01  0.14270642596E+02  0.25778792201E+02  0.30651627161E+02  0.51100000000E-03 0. -1.
        -11    1    3    3    0    0  0.36776624596E+01  0.78947667351E+01 -0.18965374408E+02  0.20869546465E+02  0.51100000000E-03 0.  1.
         12    1    3    3    0    0 -0.77393885128E+00 -0.11662217209E+02 -0.17375293377E+02  0.20940561394E+02  0.00000000000E+00 0. -1.
</event>
<event>
 7    1  0.1333056E-013  0.7246161E+02  0.7816164E-02  0.1226708E+00
        -11   -1    0    0    0    0  0.00000000000E+00  0.00000000000E+00  0.45593999997E+02  0.45594000000E+02  0.51100000000E-03 0. -1.
         11   -1    0    0    0    0 -0.00000000000E+00 -0.00000000000E+00 -0.45593999997E+02  0.45594000000E+02  0.51100000000E-03 0.  1.
    9900012    2    1    2    0    0  0.80943160096E+01 -0.13305731774E+02 -0.10397947563E+02  0.72461607843E+02  0.70000048914E+02 0.  0.
         12    1    1    2    0    0 -0.80943160096E+01  0.13305731774E+02  0.10397947563E+02  0.18726392157E+02  0.00000000000E+00 0. -1.
         11    1    3    3    0    0  0.31272311048E+02 -0.43787222506E+01  0.43407533294E+01  0.31874328017E+02  0.51100000000E-03 0.  1.
        -11    1    3    3    0    0 -0.65895744761E+01  0.90885355024E+01 -0.11174780721E+02  0.15839813565E+02  0.51100000000E-03 0. -1.
         12    1    3    3    0    0 -0.16588420562E+02 -0.18015545026E+02 -0.35639201710E+01  0.24747466260E+02  0.00000000000E+00 0. -1.
</event>
<event>
 7    1  0.1333056E-013  0.7246155E+02  0.7816164E-02  0.1226708E+00
        -11   -1    0    0    0    0  0.00000000000E+00  0.00000000000E+00  0.45593999997E+02  0.45594000000E+02  0.51100000000E-03 0.  1.
         11   -1    0    0    0    0 -0.00000000000E+00 -0.00000000000E+00 -0.45593999997E+02  0.45594000000E+02  0.51100000000E-03 0. -1.
    9900012    2    1    2    0    0 -0.84808697535E+01  0.10415781857E+02  0.13048605542E+02  0.72461554260E+02  0.69999979112E+02 0.  0.
         12    1    1    2    0    0  0.84808697535E+01 -0.10415781857E+02 -0.13048605542E+02  0.18726445740E+02  0.00000000000E+00 0. -1.
         11    1    3    3    0    0 -0.21820890931E+02  0.53777692626E+01  0.17569728085E+01  0.22542374253E+02  0.51100000000E-03 0. -1.
        -11    1    3    3    0    0  0.16390689723E+02 -0.18190425210E+01  0.27495356488E+02  0.32061788065E+02  0.51100000000E-03 0.  1.
        -12    1    3    3    0    0 -0.30506685457E+01  0.68570551155E+01 -0.16203723755E+02  0.17857391942E+02  0.00000000000E+00 0.  1.
</event>
<event>
 7    1  0.1333056E-013  0.7246147E+02  0.7816164E-02  0.1226708E+00
        -11   -1    0    0    0    0  0.00000000000E+00  0.00000000000E+00  0.45593999997E+02  0.45594000000E+02  0.51100000000E-03 0. -1.
         11   -1    0    0    0    0 -0.00000000000E+00 -0.00000000000E+00 -0.45593999997E+02  0.45594000000E+02  0.51100000000E-03 0.  1.
    9900012    2    1    2    0    0 -0.76802493770E+01  0.78495101911E+01 -0.15168446151E+02  0.72461473377E+02  0.69999873747E+02 0.  0.
         12    1    1    2    0    0  0.76802493770E+01 -0.78495101911E+01  0.15168446151E+02  0.18726526623E+02  0.00000000000E+00 0. -1.
         11    1    3    3    0    0 -0.20294020772E+02 -0.13597148754E+02  0.26861106793E+01  0.24575290928E+02  0.51100000000E-03 0. -1.
        -11    1    3    3    0    0  0.13066334352E+02  0.28927628516E+02 -0.38133134140E+01  0.31969956904E+02  0.51100000000E-03 0.  1.
         12    1    3    3    0    0 -0.45256295765E+00 -0.74809695704E+01 -0.14041243416E+02  0.15916225546E+02  0.00000000000E+00 0. -1.
</event>
<event>
 7    1  0.1333056E-013  0.7246158E+02  0.7816164E-02  0.1226708E+00
        -11   -1    0    0    0    0  0.00000000000E+00  0.00000000000E+00  0.45593999997E+02  0.45594000000E+02  0.51100000000E-03 0. -1.
         11   -1    0    0    0    0 -0.00000000000E+00 -0.00000000000E+00 -0.45593999997E+02  0.45594000000E+02  0.51100000000E-03 0.  1.
    9900012    2    1    2    0    0  0.97048089630E+01 -0.14704299072E+02  0.63465886072E+01  0.72461577086E+02  0.70000008847E+02 0.  0.
         12    1    1    2    0    0 -0.97048089630E+01  0.14704299072E+02 -0.63465886072E+01  0.18726422914E+02  0.00000000000E+00 0. -1.
         11    1    3    3    0    0 -0.11569405169E+02 -0.40364446224E-03 -0.26929646483E+01  0.11878686585E+02  0.51100000000E-03 0. -1.
        -11    1    3    3    0    0  0.37192656704E+02 -0.67085686170E+01 -0.47031519774E+01  0.38084356951E+02  0.51100000000E-03 0.  1.
        -12    1    3    3    0    0 -0.15918442572E+02 -0.79953268111E+01  0.13742705233E+02  0.22498533549E+02  0.00000000000E+00 0.  1.
</event>
<event>
 7    1  0.1333056E-013  0.7246149E+02  0.7816164E-02  0.1226708E+00
        -11   -1    0    0    0    0  0.00000000000E+00  0.00000000000E+00  0.45593999997E+02  0.45594000000E+02  0.51100000000E-03 0.  1.
         11   -1    0    0    0    0 -0.00000000000E+00 -0.00000000000E+00 -0.45593999997E+02  0.45594000000E+02  0.51100000000E-03 0. -1.
    9900012    2    1    2    0    0 -0.80323308750E+01  0.11033050609E+02  0.12823249355E+02  0.72461487536E+02  0.69999892192E+02 0.  0.
         12    1    1    2    0    0  0.80323308750E+01 -0.11033050609E+02 -0.12823249355E+02  0.18726512464E+02  0.00000000000E+00 0. -1.
         11    1    3    3    0    0 -0.11403203649E+02 -0.66468792888E+01 -0.15715800557E+01  0.13292250444E+02  0.51100000000E-03 0. -1.
        -11    1    3    3    0    0  0.23929889432E+02 -0.53139878720E+01 -0.13273347427E+01  0.24548724878E+02  0.51100000000E-03 0.  1.
        -12    1    3    3    0    0 -0.20559016658E+02  0.22993917769E+02  0.15722164154E+02  0.34620512215E+02  0.00000000000E+00 0.  1.
</event>
<event>
 7    1  0.1333056E-013  0.7246157E+02  0.7816164E-02  0.1226708E+00
        -11   -1    0    0    0    0  0.00000000000E+00  0.00000000000E+00  0.45593999997E+02  0.45594000000E+02  0.51100000000E-03 0. -1.
         11   -1    0    0    0    0 -0.00000000000E+00 -0.00000000000E+00 -0.45593999997E+02  0.45594000000E+02  0.51100000000E-03 0.  1.
    9900012    2    1    2    0    0 -0.17766634376E+02  0.55473262960E+01 -0.20623106171E+01  0.72461568115E+02  0.69999997161E+02 0.  0.
         12    1    1    2    0    0  0.17766634376E+02 -0.55473262960E+01  0.20623106171E+01  0.18726431885E+02  0.00000000000E+00 0. -1.
         11    1    3    3    0    0 -0.20365086097E+02  0.10947291499E+01  0.17681368734E+02  0.26991961104E+02  0.51100000000E-03 0. -1.
        -11    1    3    3    0    0  0.14103655496E+02  0.17026820688E+02 -0.17665057790E+02  0.28299823111E+02  0.51100000000E-03 0.  1.
        -12    1    3    3    0    0 -0.11505203775E+02 -0.12574223542E+02 -0.20786215611E+01  0.17169783900E+02  0.00000000000E+00 0.  1.
</event>
<event>
 7    1  0.1333056E-013  0.7246149E+02  0.7816164E-02  0.1226708E+00
        -11   -1    0    0    0    0  0.00000000000E+00  0.00000000000E+00  0.45593999997E+02  0.45594000000E+02  0.51100000000E-03 0.  1.
         11   -1    0    0    0    0 -0.00000000000E+00 -0.00000000000E+00 -0.45593999997E+02  0.45594000000E+02  0.51100000000E-03 0. -1.
    9900012    2    1    2    0    0  0.14451664010E+02 -0.11531800036E+02 -0.29747293547E+01  0.72461494200E+02  0.69999900873E+02 0.  0.
         12    1    1    2    0    0 -0.14451664010E+02  0.11531800036E+02  0.29747293547E+01  0.18726505800E+02  0.00000000000E+00 0. -1.
         11    1    3    3    0    0  0.86593914247E+01  0.47221120789E+01 -0.30308280598E+02  0.31872798362E+02  0.51100000000E-03 0. -1.
        -11    1    3    3    0    0  0.83069284455E+01 -0.46641689989E+01  0.27101321381E+02  0.28727010870E+02  0.51100000000E-03 0.  1.
         12    1    3    3    0    0 -0.25146558597E+01 -0.11589743116E+02  0.23222986247E+00  0.11861684968E+02  0.00000000000E+00 0. -1.
</event>
<event>
 7    1  0.1333056E-013  0.7246157E+02  0.7816164E-02  0.1226708E+00
        -11   -1    0    0    0    0  0.00000000000E+00  0.00000000000E+00  0.45593999997E+02  0.45594000000E+02  0.51100000000E-03 0.  1.
         11   -1    0    0    0    0 -0.00000000000E+00 -0.00000000000E+00 -0.45593999997E+02  0.45594000000E+02  0.51100000000E-03 0. -1.
    9900012    2    1    2    0    0  0.11122144175E+02 -0.13432707702E+02  0.68219927769E+01  0.72461566471E+02  0.69999995020E+02 0.  0.
         12    1    1    2    0    0 -0.11122144175E+02  0.13432707702E+02 -0.68219927769E+01  0.18726433529E+02  0.00000000000E+00 0. -1.
         11    1    3    3    0    0 -0.19175412644E+02  0.54890535533E+01 -0.63212131349E+01  0.20923285945E+02  0.51100000000E-03 0. -1.
        -11    1    3    3    0    0  0.49662015746E+01 -0.57910497613E+01  0.20667474899E+02  0.22030522789E+02  0.51100000000E-03 0.  1.
         12    1    3    3    0    0  0.25331355244E+02 -0.13130711494E+02 -0.75242689869E+01  0.29507757737E+02  0.00000000000E+00 0. -1.
</event>
<event>
 7    1  0.1333056E-013  0.7246157E+02  0.7816164E-02  0.1226708E+00
        -11   -1    0    0    0    0  0.00000000000E+00  0.00000000000E+00  0.45593999997E+02  0.45594000000E+02  0.51100000000E-03 0.  1.
         11   -1    0    0    0    0 -0.00000000000E+00 -0.00000000000E+00 -0.45593999997E+02  0.45594000000E+02  0.51100000000E-03 0. -1.
    9900012    2    1    2    0    0  0.14620737591E+02  0.99059032604E+01  0.62278771082E+01  0.72461565732E+02  0.69999994057E+02 0.  0.
         12    1    1    2    0    0 -0.14620737591E+02 -0.99059032604E+01 -0.62278771082E+01  0.18726434268E+02  0.00000000000E+00 0. -1.
         11    1    3    3    0    0  0.18267926326E+01 -0.64518515798E+00 -0.24383501315E+02  0.24460346928E+02  0.51100000000E-03 0. -1.
        -11    1    3    3    0    0 -0.22095486006E+01 -0.76393496627E+01  0.21147465157E+02  0.22593296597E+02  0.51100000000E-03 0.  1.
        -12    1    3    3    0    0  0.15003493559E+02  0.18190438081E+02  0.94639132657E+01  0.25407922207E+02  0.00000000000E+00 0.  1.
</event>
<event>
 7    1  0.1333056E-013  0.7246156E+02  0.7816164E-02  0.1226708E+00
        -11   -1    0    0    0    0  0.00000000000E+00  0.00000000000E+00  0.45593999997E+02  0.45594000000E+02  0.51100000000E-03 0. -1.
         11   -1    0    0    0    0 -0.00000000000E+00 -0.00000000000E+00 -0.45593999997E+02  0.45594000000E+02  0.51100000000E-03 0.  1.
    9900012    2    1    2    0    0 -0.76858833956E+01  0.82684482942E+01 -0.14941201982E+02  0.72461559937E+02  0.69999986508E+02 0.  0.
         12    1    1    2    0    0  0.76858833956E+01 -0.82684482942E+01  0.14941201982E+02  0.18726440063E+02  0.00000000000E+00 0. -1.
         11    1    3    3    0    0  0.12393743000E+02  0.11724711970E+02  0.45152211155E+01  0.17648256523E+02  0.51100000000E-03 0.  1.
        -11    1    3    3    0    0 -0.13951586274E+02 -0.21033944917E+02  0.32532275047E+01  0.25449107800E+02  0.51100000000E-03 0. -1.
        -12    1    3    3    0    0 -0.61280401219E+01  0.17577681242E+02 -0.22709650602E+02  0.29364195614E+02  0.00000000000E+00 0.  1.
</event>
<event>
 7    1  0.1333056E-013  0.7246153E+02  0.7816164E-02  0.1226708E+00
        -11   -1    0    0    0    0  0.00000000000E+00  0.00000000000E+00  0.45593999997E+02  0.45594000000E+02  0.51100000000E-03 0.  1.
         11   -1    0    0    0    0 -0.00000000000E+00 -0.00000000000E+00 -0.45593999997E+02  0.45594000000E+02  0.51100000000E-03 0. -1.
    9900012    2    1    2    0    0  0.68767872805E+01  0.83747523771E+01  0.15272655651E+02  0.72461529662E+02  0.69999947069E+02 0.  0.
         12    1    1    2    0    0 -0.68767872805E+01 -0.83747523771E+01 -0.15272655651E+02  0.18726470338E+02  0.00000000000E+00 0. -1.
         11    1    3    3    0    0  0.23532854594E+02 -0.20865232499E+02  0.98390137844E+01  0.32953897571E+02  0.51100000000E-03 0. -1.
        -11    1    3    3    0    0 -0.16302459363E+02  0.13258825227E+02  0.94271989847E+01  0.23031255038E+02  0.51100000000E-03 0.  1.
        -12    1    3    3    0    0 -0.35360795059E+00  0.15981159650E+02 -0.39935571180E+01  0.16476377053E+02  0.00000000000E+00 0.  1.
</event>
<event>
 7    1  0.1333056E-013  0.7246155E+02  0.7816164E-02  0.1226708E+00
        -11   -1    0    0    0    0  0.00000000000E+00  0.00000000000E+00  0.45593999997E+02  0.45594000000E+02  0.51100000000E-03 0.  1.
         11   -1    0    0    0    0 -0.00000000000E+00 -0.00000000000E+00 -0.45593999997E+02  0.45594000000E+02  0.51100000000E-03 0. -1.
    9900012    2    1    2    0    0  0.63724287438E+01  0.79408675748E+01  0.15716696133E+02  0.72461554441E+02  0.69999979348E+02 0.  0.
         12    1    1    2    0    0 -0.63724287438E+01 -0.79408675748E+01 -0.15716696133E+02  0.18726445559E+02  0.00000000000E+00 0. -1.
         11    1    3    3    0    0 -0.17753168240E+02 -0.67970923233E+01 -0.48555333592E+01  0.19620184787E+02  0.51100000000E-03 0. -1.
        -11    1    3    3    0    0  0.17502188660E+02  0.12814154230E+02 -0.82483503268E+01  0.23206991186E+02  0.51100000000E-03 0.  1.
        -12    1    3    3    0    0  0.66234083239E+01  0.19238056682E+01  0.28820579819E+02  0.29634378468E+02  0.00000000000E+00 0.  1.
</event>
<event>
 7    1  0.1333056E-013  0.7246158E+02  0.7816164E-02  0.1226708E+00
        -11   -1    0    0    0    0  0.00000000000E+00  0.00000000000E+00  0.45593999997E+02  0.45594000000E+02  0.51100000000E-03 0. -1.
         11   -1    0    0    0    0 -0.00000000000E+00 -0.00000000000E+00 -0.45593999997E+02  0.45594000000E+02  0.51100000000E-03 0.  1.
    9900012    2    1    2    0    0 -0.14090585673E+02  0.51321339961E+01 -0.11215857861E+02  0.72461578251E+02  0.70000010365E+02 0.  0.
         12    1    1    2    0    0  0.14090585673E+02 -0.51321339961E+01  0.11215857861E+02  0.18726421749E+02  0.00000000000E+00 0. -1.
         11    1    3    3    0    0  0.66719569659E+01  0.11879210038E+02  0.66438945263E+01  0.15158231283E+02  0.51100000000E-03 0. -1.
        -11    1    3    3    0    0 -0.31729527392E+02 -0.36310254515E+00  0.40449850284E+01  0.31988383144E+02  0.51100000000E-03 0.  1.
        -12    1    3    3    0    0  0.10966984753E+02 -0.63839734972E+01 -0.21904737415E+02  0.25314963824E+02  0.00000000000E+00 0.  1.
</event>
<event>
 7    1  0.1333056E-013  0.7246153E+02  0.7816164E-02  0.1226708E+00
        -11   -1    0    0    0    0  0.00000000000E+00  0.00000000000E+00  0.45593999997E+02  0.45594000000E+02  0.51100000000E-03 0.  1.
         11   -1    0    0    0    0 -0.00000000000E+00 -0.00000000000E+00 -0.45593999997E+02  0.45594000000E+02  0.51100000000E-03 0. -1.
    9900012    2    1    2    0    0  0.12721348753E+02  0.19840541193E+01  0.13598212027E+02  0.72461533297E+02  0.69999951804E+02 0.  0.
         12    1    1    2    0    0 -0.12721348753E+02 -0.19840541193E+01 -0.13598212027E+02  0.18726466703E+02  0.00000000000E+00 0. -1.
         11    1    3    3    0    0  0.10674588562E+02  0.18071771555E+02  0.16653253551E+02  0.26793033090E+02  0.51100000000E-03 0.  1.
        -11    1    3    3    0    0  0.15464839606E+02 -0.24656083733E+02 -0.53224492974E+01  0.29587365477E+02  0.51100000000E-03 0. -1.
         12    1    3    3    0    0 -0.13418079414E+02  0.85683662980E+01  0.22674077737E+01  0.16081134730E+02  0.00000000000E+00 0. -1.
</event>
<event>
 7    1  0.1333056E-013  0.7246156E+02  0.7816164E-02  0.1226708E+00
        -11   -1    0    0    0    0  0.00000000000E+00  0.00000000000E+00  0.45593999997E+02  0.45594000000E+02  0.51100000000E-03 0.  1.
         11   -1    0    0    0    0 -0.00000000000E+00 -0.00000000000E+00 -0.45593999997E+02  0.45594000000E+02  0.51100000000E-03 0. -1.
    9900012    2    1    2    0    0 -0.16695823150E+02  0.77803698907E+01 -0.33756441314E+01  0.72461557744E+02  0.69999983650E+02 0.  0.
         12    1    1    2    0    0  0.16695823150E+02 -0.77803698907E+01  0.33756441314E+01  0.18726442256E+02  0.00000000000E+00 0. -1.
         11    1    3    3    0    0 -0.83302092843E+01 -0.62796026658E+01 -0.95104948353E+00  0.10475222754E+02  0.51100000000E-03 0. -1.
        -11    1    3    3    0    0  0.19592931970E+02  0.24454880824E+02  0.36440418690E+01  0.31546841691E+02  0.51100000000E-03 0.  1.
        -12    1    3    3    0    0 -0.27958545835E+02 -0.10394908267E+02 -0.60686365169E+01  0.30439493299E+02  0.00000000000E+00 0.  1.
</event>
<event>
 7    1  0.1333056E-013  0.7246152E+02  0.7816164E-02  0.1226708E+00
        -11   -1    0    0    0    0  0.00000000000E+00  0.00000000000E+00  0.45593999997E+02  0.45594000000E+02  0.51100000000E-03 0. -1.
         11   -1    0    0    0    0 -0.00000000000E+00 -0.00000000000E+00 -0.45593999997E+02  0.45594000000E+02  0.51100000000E-03 0.  1.
    9900012    2    1    2    0    0 -0.17368748006E+02  0.66988717699E+01  0.20329165304E+01  0.72461520355E+02  0.69999934945E+02 0.  0.
         12    1    1    2    0    0  0.17368748006E+02 -0.66988717699E+01 -0.20329165304E+01  0.18726479645E+02  0.00000000000E+00 0. -1.
         11    1    3    3    0    0 -0.24952430760E+02  0.12139103338E+02  0.67750825938E+01  0.28563672297E+02  0.51100000000E-03 0. -1.
        -11    1    3    3    0    0 -0.14913249801E+00 -0.10979205073E+02 -0.21776263532E+02  0.24387924024E+02  0.51100000000E-03 0.  1.
         12    1    3    3    0    0  0.77328152527E+01  0.55389735052E+01  0.17034097469E+02  0.19509924033E+02  0.00000000000E+00 0. -1.
</event>
<event>
 8    1  0.1333056E-013  0.7246132E+02  0.7816164E-02  0.1226709E+00
        -11   -1    0    0    0    0  0.00000000000E+00  0.00000000000E+00  0.45593999997E+02  0.45594000000E+02  0.51100000000E-03 0. -1.
         11   -1    0    0    0    0 -0.00000000000E+00 -0.00000000000E+00 -0.45593999997E+02  0.45594000000E+02  0.51100000000E-03 0.  1.
    9900012    2    1    2    0    0 -0.11662731038E+02 -0.88253590784E+01 -0.11695389999E+02  0.72461323697E+02  0.69999678761E+02 0.  0.
        -24    2    3    3    0    0 -0.22806445600E+02 -0.11696171682E+01 -0.10675134795E+02  0.58902795776E+02  0.53236067493E+02 0.  0.
         12    1    1    2    0    0  0.11662731038E+02  0.88253590784E+01  0.11695389999E+02  0.18726676303E+02  0.00000000000E+00 0. -1.
         11    1    4    4    0    0 -0.25899781664E+02  0.17990030670E+02  0.73893284538E+01  0.32388918923E+02  0.51100000000E-03 0. -1.
        -11    1    3    3    0    0  0.11143714563E+02 -0.76557419102E+01 -0.10202552042E+01  0.13558527921E+02  0.51100000000E-03 0.  1.
        -12    1    4    4    0    0  0.30933360639E+01 -0.19159647838E+02 -0.18064463249E+02  0.26513876853E+02  0.00000000000E+00 0.  1.
</event>
<event>
 7    1  0.1333056E-013  0.7246149E+02  0.7816164E-02  0.1226708E+00
        -11   -1    0    0    0    0  0.00000000000E+00  0.00000000000E+00  0.45593999997E+02  0.45594000000E+02  0.51100000000E-03 0.  1.
         11   -1    0    0    0    0 -0.00000000000E+00 -0.00000000000E+00 -0.45593999997E+02  0.45594000000E+02  0.51100000000E-03 0. -1.
    9900012    2    1    2    0    0  0.69781298319E+01  0.17250888214E+02  0.20964001067E+01  0.72461485815E+02  0.69999889950E+02 0.  0.
         12    1    1    2    0    0 -0.69781298319E+01 -0.17250888214E+02 -0.20964001067E+01  0.18726514185E+02  0.00000000000E+00 0. -1.
         11    1    3    3    0    0  0.48890497857E+01  0.15037769998E+02 -0.16914732221E+02  0.23154815929E+02  0.51100000000E-03 0. -1.
        -11    1    3    3    0    0 -0.70144088234E+01 -0.10029600154E+02  0.28722653392E+02  0.31221557112E+02  0.51100000000E-03 0.  1.
        -12    1    3    3    0    0  0.91034888697E+01  0.12242718369E+02 -0.97115210639E+01  0.18085112774E+02  0.00000000000E+00 0.  1.
</event>
<event>
 7    1  0.1333056E-013  0.7246155E+02  0.7816164E-02  0.1226708E+00
        -11   -1    0    0    0    0  0.00000000000E+00  0.00000000000E+00  0.45593999997E+02  0.45594000000E+02  0.51100000000E-03 0.  1.
         11   -1    0    0    0    0 -0.00000000000E+00 -0.00000000000E+00 -0.45593999997E+02  0.45594000000E+02  0.51100000000E-03 0. -1.
    9900012    2    1    2    0    0 -0.13017405146E+02  0.13217551492E+02 -0.25541109305E+01  0.72461548472E+02  0.69999971572E+02 0.  0.
         12    1    1    2    0    0  0.13017405146E+02 -0.13217551492E+02  0.25541109305E+01  0.18726451528E+02  0.00000000000E+00 0. -1.
         11    1    3    3    0    0  0.10072876766E+02  0.33128263976E+02 -0.82742431837E+01  0.35600671636E+02  0.51100000000E-03 0. -1.
        -11    1    3    3    0    0 -0.89876669094E+01 -0.39184992712E+01 -0.69868527227E+01  0.12039472756E+02  0.51100000000E-03 0.  1.
         12    1    3    3    0    0 -0.14102615003E+02 -0.15992213212E+02  0.12706984976E+02  0.24821404080E+02  0.00000000000E+00 0. -1.
</event>
<event>
 7    1  0.1333056E-013  0.7246160E+02  0.7816164E-02  0.1226708E+00
        -11   -1    0    0    0    0  0.00000000000E+00  0.00000000000E+00  0.45593999997E+02  0.45594000000E+02  0.51100000000E-03 0.  1.
         11   -1    0    0    0    0 -0.00000000000E+00 -0.00000000000E+00 -0.45593999997E+02  0.45594000000E+02  0.51100000000E-03 0. -1.
    9900012    2    1    2    0    0 -0.14279289885E+02 -0.94930247244E+01 -0.75274446574E+01  0.72461599889E+02  0.70000038553E+02 0.  0.
         12    1    1    2    0    0  0.14279289885E+02  0.94930247244E+01  0.75274446574E+01  0.18726400111E+02  0.00000000000E+00 0. -1.
         11    1    3    3    0    0 -0.12083686595E+02  0.16927271912E+02 -0.74948260820E+01  0.22107022287E+02  0.51100000000E-03 0. -1.
        -11    1    3    3    0    0  0.17713763651E+02 -0.20663824116E+02  0.76172600910E+01  0.28262938654E+02  0.51100000000E-03 0.  1.
         12    1    3    3    0    0 -0.19909366940E+02 -0.57564725205E+01 -0.76498786663E+01  0.22091638949E+02  0.00000000000E+00 0. -1.
</event>
<event>
 7    1  0.1333056E-013  0.7246152E+02  0.7816164E-02  0.1226708E+00
        -11   -1    0    0    0    0  0.00000000000E+00  0.00000000000E+00  0.45593999997E+02  0.45594000000E+02  0.51100000000E-03 0. -1.
         11   -1    0    0    0    0 -0.00000000000E+00 -0.00000000000E+00 -0.45593999997E+02  0.45594000000E+02  0.51100000000E-03 0.  1.
    9900012    2    1    2    0    0  0.17813257164E+02  0.33374801126E+01  0.47148802329E+01  0.72461521423E+02  0.69999936336E+02 0.  0.
         12    1    1    2    0    0 -0.17813257164E+02 -0.33374801126E+01 -0.47148802329E+01  0.18726478577E+02  0.00000000000E+00 0. -1.
         11    1    3    3    0    0 -0.18530081007E+02 -0.12472569089E+02  0.18277131975E+01  0.22411368044E+02  0.51100000000E-03 0. -1.
        -11    1    3    3    0    0  0.12965042457E+02  0.16705432522E+02 -0.99433976524E+01  0.23367390928E+02  0.51100000000E-03 0.  1.
         12    1    3    3    0    0  0.23378295714E+02 -0.89538331982E+00  0.12830564688E+02  0.26682762451E+02  0.00000000000E+00 0. -1.
</event>
<event>
 7    1  0.1333056E-013  0.7246156E+02  0.7816164E-02  0.1226708E+00
        -11   -1    0    0    0    0  0.00000000000E+00  0.00000000000E+00  0.45593999997E+02  0.45594000000E+02  0.51100000000E-03 0. -1.
         11   -1    0    0    0    0 -0.00000000000E+00 -0.00000000000E+00 -0.45593999997E+02  0.45594000000E+02  0.51100000000E-03 0.  1.
    9900012    2    1    2    0    0 -0.66626030905E+01 -0.17446858248E+02 -0.13771644269E+01  0.72461555476E+02  0.69999980696E+02 0.  0.
         12    1    1    2    0    0  0.66626030905E+01  0.17446858248E+02  0.13771644269E+01  0.18726444524E+02  0.00000000000E+00 0. -1.
         11    1    3    3    0    0  0.35301672639E+01 -0.14417553860E+02  0.24803703417E+02  0.28905910186E+02  0.51100000000E-03 0. -1.
        -11    1    3    3    0    0  0.36058828119E+01  0.12169595240E+02 -0.39422026503E+01  0.13290688513E+02  0.51100000000E-03 0.  1.
         12    1    3    3    0    0 -0.13798653166E+02 -0.15198899628E+02 -0.22238665194E+02  0.30264956777E+02  0.00000000000E+00 0. -1.
</event>
<event>
 7    1  0.1333056E-013  0.7246155E+02  0.7816164E-02  0.1226708E+00
        -11   -1    0    0    0    0  0.00000000000E+00  0.00000000000E+00  0.45593999997E+02  0.45594000000E+02  0.51100000000E-03 0. -1.
         11   -1    0    0    0    0 -0.00000000000E+00 -0.00000000000E+00 -0.45593999997E+02  0.45594000000E+02  0.51100000000E-03 0.  1.
    9900012    2    1    2    0    0 -0.29072564502E+01  0.70435666919E+01 -0.17106017626E+02  0.72461553171E+02  0.69999977694E+02 0.  0.
         12    1    1    2    0    0  0.29072564502E+01 -0.70435666919E+01  0.17106017626E+02  0.18726446829E+02  0.00000000000E+00 0. -1.
         11    1    3    3    0    0 -0.18710306762E+02 -0.68288916359E+00  0.38751058191E+00  0.18726774454E+02  0.51100000000E-03 0. -1.
        -11    1    3    3    0    0  0.23413077857E+02  0.23240461204E+02 -0.15132022683E+02  0.36294205632E+02  0.51100000000E-03 0.  1.
         12    1    3    3    0    0 -0.76100275448E+01 -0.15514005348E+02 -0.23615055254E+01  0.17440573085E+02  0.00000000000E+00 0. -1.
</event>
<event>
 7    1  0.1333056E-013  0.7246154E+02  0.7816164E-02  0.1226708E+00
        -11   -1    0    0    0    0  0.00000000000E+00  0.00000000000E+00  0.45593999997E+02  0.45594000000E+02  0.51100000000E-03 0.  1.
         11   -1    0    0    0    0 -0.00000000000E+00 -0.00000000000E+00 -0.45593999997E+02  0.45594000000E+02  0.51100000000E-03 0. -1.
    9900012    2    1    2    0    0 -0.78854707530E+01  0.55839750893E+01 -0.16041160738E+02  0.72461541055E+02  0.69999961911E+02 0.  0.
         12    1    1    2    0    0  0.78854707530E+01 -0.55839750893E+01  0.16041160738E+02  0.18726458945E+02  0.00000000000E+00 0. -1.
         11    1    3    3    0    0  0.18660106415E+02  0.16082821736E+02 -0.12009260024E+02  0.27405821517E+02  0.51100000000E-03 0. -1.
        -11    1    3    3    0    0 -0.31437341635E+02 -0.17467303517E+02 -0.56031419429E+01  0.36397916714E+02  0.51100000000E-03 0.  1.
        -12    1    3    3    0    0  0.48917644667E+01  0.69684568701E+01  0.15712412294E+01  0.86578028246E+01  0.00000000000E+00 0.  1.
</event>
<event>
 7    1  0.1333056E-013  0.7246159E+02  0.7816164E-02  0.1226708E+00
        -11   -1    0    0    0    0  0.00000000000E+00  0.00000000000E+00  0.45593999997E+02  0.45594000000E+02  0.51100000000E-03 0. -1.
         11   -1    0    0    0    0 -0.00000000000E+00 -0.00000000000E+00 -0.45593999997E+02  0.45594000000E+02  0.51100000000E-03 0.  1.
    9900012    2    1    2    0    0 -0.43481730452E+01 -0.92367757640E+01 -0.15698847533E+02  0.72461589527E+02  0.70000025054E+02 0.  0.
         12    1    1    2    0    0  0.43481730452E+01  0.92367757640E+01  0.15698847533E+02  0.18726410473E+02  0.00000000000E+00 0. -1.
         11    1    3    3    0    0 -0.10270168253E+02 -0.23642856993E+02  0.19663802216E+02  0.32421075870E+02  0.51100000000E-03 0. -1.
        -11    1    3    3    0    0 -0.47704743268E+00  0.11512624395E+02 -0.24934013311E+02  0.27467673997E+02  0.51100000000E-03 0.  1.
         12    1    3    3    0    0  0.63990426410E+01  0.28934568338E+01 -0.10428636438E+02  0.12572839660E+02  0.00000000000E+00 0. -1.
</event>
<event>
 7    1  0.1333056E-013  0.7246156E+02  0.7816164E-02  0.1226708E+00
        -11   -1    0    0    0    0  0.00000000000E+00  0.00000000000E+00  0.45593999997E+02  0.45594000000E+02  0.51100000000E-03 0. -1.
         11   -1    0    0    0    0 -0.00000000000E+00 -0.00000000000E+00 -0.45593999997E+02  0.45594000000E+02  0.51100000000E-03 0.  1.
    9900012    2    1    2    0    0  0.14561244415E+01 -0.41141582173E+01 -0.18210796695E+02  0.72461555796E+02  0.69999981114E+02 0.  0.
         12    1    1    2    0    0 -0.14561244415E+01  0.41141582173E+01  0.18210796695E+02  0.18726444204E+02  0.00000000000E+00 0. -1.
         11    1    3    3    0    0 -0.46885992849E+00  0.28570842306E+02 -0.83186854000E+01  0.29760937263E+02  0.51100000000E-03 0. -1.
        -11    1    3    3    0    0 -0.11634189546E+02 -0.18652859021E+02 -0.62029194239E+01  0.22842060451E+02  0.51100000000E-03 0.  1.
         12    1    3    3    0    0  0.13559173916E+02 -0.14032141503E+02 -0.36891918716E+01  0.19858558082E+02  0.00000000000E+00 0. -1.
</event>
<event>
 7    1  0.1333056E-013  0.7246157E+02  0.7816164E-02  0.1226708E+00
        -11   -1    0    0    0    0  0.00000000000E+00  0.00000000000E+00  0.45593999997E+02  0.45594000000E+02  0.51100000000E-03 0.  1.
         11   -1    0    0    0    0 -0.00000000000E+00 -0.00000000000E+00 -0.45593999997E+02  0.45594000000E+02  0.51100000000E-03 0. -1.
    9900012    2    1    2    0    0 -0.13990776925E+02 -0.11725717127E+02  0.41767293814E+01  0.72461565491E+02  0.69999993743E+02 0.  0.
         12    1    1    2    0    0  0.13990776925E+02  0.11725717127E+02 -0.41767293814E+01  0.18726434509E+02  0.00000000000E+00 0. -1.
         11    1    3    3    0    0 -0.12488095723E+01  0.78247179384E+01 -0.11992194658E+02  0.14373533635E+02  0.51100000000E-03 0. -1.
        -11    1    3    3    0    0  0.53021698829E+01 -0.31476619461E+02  0.15030475253E+01  0.31955433502E+02  0.51100000000E-03 0.  1.
        -12    1    3    3    0    0 -0.18044137236E+02  0.11926184396E+02  0.14665876514E+02  0.26132598354E+02  0.00000000000E+00 0.  1.
</event>
<event>
 7    1  0.1333056E-013  0.7246165E+02  0.7816164E-02  0.1226708E+00
        -11   -1    0    0    0    0  0.00000000000E+00  0.00000000000E+00  0.45593999997E+02  0.45594000000E+02  0.51100000000E-03 0. -1.
         11   -1    0    0    0    0 -0.00000000000E+00 -0.00000000000E+00 -0.45593999997E+02  0.45594000000E+02  0.51100000000E-03 0.  1.
    9900012    2    1    2    0    0  0.79171098314E+01  0.14745570322E+02  0.84002311298E+01  0.72461645436E+02  0.70000097886E+02 0.  0.
         12    1    1    2    0    0 -0.79171098314E+01 -0.14745570322E+02 -0.84002311298E+01  0.18726354564E+02  0.00000000000E+00 0. -1.
         11    1    3    3    0    0  0.61559234959E+01  0.16258704016E+02  0.10689366952E+01  0.17417906771E+02  0.51100000000E-03 0. -1.
        -11    1    3    3    0    0 -0.21222863708E+02 -0.32117458156E+01  0.19484317725E+02  0.28989030556E+02  0.51100000000E-03 0.  1.
        -12    1    3    3    0    0  0.22984050043E+02  0.16986121214E+01 -0.12153023290E+02  0.26054708109E+02  0.00000000000E+00 0.  1.
</event>
<event>
 7    1  0.1333056E-013  0.7246158E+02  0.7816164E-02  0.1226708E+00
        -11   -1    0    0    0    0  0.00000000000E+00  0.00000000000E+00  0.45593999997E+02  0.45594000000E+02  0.51100000000E-03 0.  1.
         11   -1    0    0    0    0 -0.00000000000E+00 -0.00000000000E+00 -0.45593999997E+02  0.45594000000E+02  0.51100000000E-03 0. -1.
    9900012    2    1    2    0    0  0.11076573025E+02 -0.90693281855E+01  0.12072099314E+02  0.72461581080E+02  0.70000014051E+02 0.  0.
         12    1    1    2    0    0 -0.11076573025E+02  0.90693281855E+01 -0.12072099314E+02  0.18726418920E+02  0.00000000000E+00 0. -1.
         11    1    3    3    0    0 -0.19014546781E+02 -0.83480108801E+01 -0.15755692867E+02  0.26066916444E+02  0.51100000000E-03 0.  1.
        -11    1    3    3    0    0  0.20943076061E+02 -0.93458205466E+01  0.11127146268E+02  0.25490590046E+02  0.51100000000E-03 0. -1.
        -12    1    3    3    0    0  0.91480437443E+01  0.86245032412E+01  0.16700645914E+02  0.20904074589E+02  0.00000000000E+00 0.  1.
</event>
<event>
 7    1  0.1333056E-013  0.7246153E+02  0.7816164E-02  0.1226708E+00
        -11   -1    0    0    0    0  0.00000000000E+00  0.00000000000E+00  0.45593999997E+02  0.45594000000E+02  0.51100000000E-03 0.  1.
         11   -1    0    0    0    0 -0.00000000000E+00 -0.00000000000E+00 -0.45593999997E+02  0.45594000000E+02  0.51100000000E-03 0. -1.
    9900012    2    1    2    0    0  0.43584594984E+01  0.18185406269E+02  0.98772545874E+00  0.72461527509E+02  0.69999944265E+02 0.  0.
         12    1    1    2    0    0 -0.43584594984E+01 -0.18185406269E+02 -0.98772545874E+00  0.18726472491E+02  0.00000000000E+00 0. -1.
         11    1    3    3    0    0 -0.82959498076E+01 -0.24624695015E+02  0.13109311149E+01  0.26017627264E+02  0.51100000000E-03 0. -1.
        -11    1    3    3    0    0  0.22643147151E+01  0.20052726716E+02  0.51677765146E+01  0.20831343794E+02  0.51100000000E-03 0.  1.
         12    1    3    3    0    0  0.10390094591E+02  0.22757374567E+02 -0.54909821708E+01  0.25612556452E+02  0.00000000000E+00 0. -1.
</event>
<event>
 7    1  0.1333056E-013  0.7246122E+02  0.7816164E-02  0.1226709E+00
        -11   -1    0    0    0    0  0.00000000000E+00  0.00000000000E+00  0.45593999997E+02  0.45594000000E+02  0.51100000000E-03 0.  1.
         11   -1    0    0    0    0 -0.00000000000E+00 -0.00000000000E+00 -0.45593999997E+02  0.45594000000E+02  0.51100000000E-03 0. -1.
    9900012    2    1    2    0    0 -0.80462382293E+01 -0.85644149793E+01  0.14580852336E+02  0.72461216816E+02  0.69999539527E+02 0.  0.
         12    1    1    2    0    0  0.80462382293E+01  0.85644149793E+01 -0.14580852336E+02  0.18726783184E+02  0.00000000000E+00 0. -1.
         11    1    3    3    0    0 -0.60756033600E+01  0.14429774390E+02 -0.21176735675E+01  0.15799236904E+02  0.51100000000E-03 0. -1.
        -11    1    3    3    0    0 -0.16016495347E+02 -0.30810859341E+02  0.20252311064E+02  0.40199418904E+02  0.51100000000E-03 0.  1.
        -12    1    3    3    0    0  0.14045860478E+02  0.78166699712E+01 -0.35537851600E+01  0.16462561008E+02  0.00000000000E+00 0.  1.
</event>
<event>
 7    1  0.1333056E-013  0.7246163E+02  0.7816164E-02  0.1226708E+00
        -11   -1    0    0    0    0  0.00000000000E+00  0.00000000000E+00  0.45593999997E+02  0.45594000000E+02  0.51100000000E-03 0.  1.
         11   -1    0    0    0    0 -0.00000000000E+00 -0.00000000000E+00 -0.45593999997E+02  0.45594000000E+02  0.51100000000E-03 0. -1.
    9900012    2    1    2    0    0 -0.14162667164E+02  0.12209553684E+02 -0.10112741477E+01  0.72461627747E+02  0.70000074843E+02 0.  0.
         12    1    1    2    0    0  0.14162667164E+02 -0.12209553684E+02  0.10112741477E+01  0.18726372253E+02  0.00000000000E+00 0. -1.
         11    1    3    3    0    0 -0.84479308710E+01  0.26312853440E+02 -0.17354472260E+02  0.32632981780E+02  0.51100000000E-03 0. -1.
        -11    1    3    3    0    0 -0.48244412145E+01 -0.22607482987E+02  0.20945041977E+01  0.23211214276E+02  0.51100000000E-03 0.  1.
        -12    1    3    3    0    0 -0.89029507859E+00  0.85041832314E+01  0.14248693915E+02  0.16617431692E+02  0.00000000000E+00 0.  1.
</event>
<event>
 7    1  0.1333056E-013  0.7246158E+02  0.7816164E-02  0.1226708E+00
        -11   -1    0    0    0    0  0.00000000000E+00  0.00000000000E+00  0.45593999997E+02  0.45594000000E+02  0.51100000000E-03 0. -1.
         11   -1    0    0    0    0 -0.00000000000E+00 -0.00000000000E+00 -0.45593999997E+02  0.45594000000E+02  0.51100000000E-03 0.  1.
    9900012    2    1    2    0    0 -0.90528263364E+01  0.14754854679E+02 -0.71427819660E+01  0.72461581883E+02  0.70000015096E+02 0.  0.
         12    1    1    2    0    0  0.90528263364E+01 -0.14754854679E+02  0.71427819660E+01  0.18726418117E+02  0.00000000000E+00 0. -1.
         11    1    3    3    0    0 -0.30094903573E+02 -0.95362848946E+00  0.45995471837E+01  0.30459291898E+02  0.51100000000E-03 0. -1.
        -11    1    3    3    0    0  0.23882214804E+02 -0.30473619077E+00 -0.89233317158E+01  0.25496644824E+02  0.51100000000E-03 0.  1.
        -12    1    3    3    0    0 -0.28401375675E+01  0.16013219359E+02 -0.28189974338E+01  0.16505645161E+02  0.00000000000E+00 0.  1.
</event>
<event>
 7    1  0.1333056E-013  0.7246165E+02  0.7816164E-02  0.1226708E+00
        -11   -1    0    0    0    0  0.00000000000E+00  0.00000000000E+00  0.45593999997E+02  0.45594000000E+02  0.51100000000E-03 0. -1.
         11   -1    0    0    0    0 -0.00000000000E+00 -0.00000000000E+00 -0.45593999997E+02  0.45594000000E+02  0.51100000000E-03 0.  1.
    9900012    2    1    2    0    0 -0.12362814917E+01 -0.37191029561E+01 -0.18311642160E+02  0.72461645381E+02  0.70000097814E+02 0.  0.
         12    1    1    2    0    0  0.12362814917E+01  0.37191029561E+01  0.18311642160E+02  0.18726354619E+02  0.00000000000E+00 0. -1.
         11    1    3    3    0    0  0.16952916282E+02  0.11294506041E+01  0.82341393138E+01  0.18880627098E+02  0.51100000000E-03 0. -1.
        -11    1    3    3    0    0  0.18338924952E+01 -0.17200933984E+02 -0.24464519167E+02  0.29962442990E+02  0.51100000000E-03 0.  1.
         12    1    3    3    0    0 -0.20023090269E+02  0.12352380424E+02 -0.20812623069E+01  0.23618575292E+02  0.00000000000E+00 0. -1.
</event>
<event>
 7    1  0.1333056E-013  0.7246158E+02  0.7816164E-02  0.1226708E+00
        -11   -1    0    0    0    0  0.00000000000E+00  0.00000000000E+00  0.45593999997E+02  0.45594000000E+02  0.51100000000E-03 0. -1.
         11   -1    0    0    0    0 -0.00000000000E+00 -0.00000000000E+00 -0.45593999997E+02  0.45594000000E+02  0.51100000000E-03 0.  1.
    9900012    2    1    2    0    0 -0.18503719515E+02  0.28780074523E+01  0.90313188662E-01  0.72461582317E+02  0.70000015662E+02 0.  0.
         12    1    1    2    0    0  0.18503719515E+02 -0.28780074523E+01 -0.90313188662E-01  0.18726417683E+02  0.00000000000E+00 0. -1.
         11    1    3    3    0    0  0.90909712443E+01  0.79678732004E+01  0.19651243731E+02  0.23071717360E+02  0.51100000000E-03 0. -1.
        -11    1    3    3    0    0 -0.65137439812E+01 -0.17810950221E+02 -0.15376443739E+02  0.24415032885E+02  0.51100000000E-03 0.  1.
         12    1    3    3    0    0 -0.21080946778E+02  0.12721084473E+02 -0.41844868034E+01  0.24974832072E+02  0.00000000000E+00 0. -1.
</event>
<event>
 7    1  0.1333056E-013  0.7246118E+02  0.7816164E-02  0.1226709E+00
        -11   -1    0    0    0    0  0.00000000000E+00  0.00000000000E+00  0.45593999997E+02  0.45594000000E+02  0.51100000000E-03 0. -1.
         11   -1    0    0    0    0 -0.00000000000E+00 -0.00000000000E+00 -0.45593999997E+02  0.45594000000E+02  0.51100000000E-03 0.  1.
    9900012    2    1    2    0    0 -0.10080497333E+02 -0.47111067101E+00 -0.15775155634E+02  0.72461176804E+02  0.69999487403E+02 0.  0.
         12    1    1    2    0    0  0.10080497333E+02  0.47111067101E+00  0.15775155634E+02  0.18726823196E+02  0.00000000000E+00 0. -1.
         11    1    3    3    0    0 -0.18298575837E+02 -0.24532267965E+02 -0.95129879542E+01  0.32049446006E+02  0.51100000000E-03 0. -1.
        -11    1    3    3    0    0 -0.42325071371E+01  0.26801127762E+02 -0.51204317677E+01  0.27612196359E+02  0.51100000000E-03 0.  1.
        -12    1    3    3    0    0  0.12450585641E+02 -0.27399704681E+01 -0.11417359122E+01  0.12799534439E+02  0.00000000000E+00 0.  1.
</event>
<event>
 7    1  0.1333056E-013  0.7246176E+02  0.7816164E-02  0.1226708E+00
        -11   -1    0    0    0    0  0.00000000000E+00  0.00000000000E+00  0.45593999997E+02  0.45594000000E+02  0.51100000000E-03 0.  1.
         11   -1    0    0    0    0 -0.00000000000E+00 -0.00000000000E+00 -0.45593999997E+02  0.45594000000E+02  0.51100000000E-03 0. -1.
    9900012    2    1    2    0    0 -0.10226958045E+02  0.15743589867E+01  0.15607784219E+02  0.72461756241E+02  0.70000242230E+02 0.  0.
         12    1    1    2    0    0  0.10226958045E+02 -0.15743589867E+01 -0.15607784219E+02  0.18726243759E+02  0.00000000000E+00 0. -1.
         11    1    3    3    0    0  0.36660999313E+01 -0.70863836152E+01 -0.24079951414E+02  0.25367325082E+02  0.51100000000E-03 0. -1.
        -11    1    3    3    0    0 -0.13371236795E+02 -0.29536127724E+01  0.20258405162E+02  0.24452336940E+02  0.51100000000E-03 0.  1.
         12    1    3    3    0    0 -0.52182118181E+00  0.11614355374E+02  0.19429330471E+02  0.22642094220E+02  0.00000000000E+00 0. -1.
</event>
<event>
 7    1  0.1333056E-013  0.7246161E+02  0.7816164E-02  0.1226708E+00
        -11   -1    0    0    0    0  0.00000000000E+00  0.00000000000E+00  0.45593999997E+02  0.45594000000E+02  0.51100000000E-03 0.  1.
         11   -1    0    0    0    0 -0.00000000000E+00 -0.00000000000E+00 -0.45593999997E+02  0.45594000000E+02  0.51100000000E-03 0. -1.
    9900012    2    1    2    0    0  0.42511045904E+01 -0.17852330590E+02  0.37282925894E+01  0.72461607839E+02  0.70000048909E+02 0.  0.
         12    1    1    2    0    0 -0.42511045904E+01  0.17852330590E+02 -0.37282925894E+01  0.18726392161E+02  0.00000000000E+00 0. -1.
         11    1    3    3    0    0  0.19583638855E+01 -0.30885341859E+02  0.15565074756E+02  0.34641176124E+02  0.51100000000E-03 0. -1.
        -11    1    3    3    0    0  0.13846903341E+02  0.64289269733E+01  0.52664537258E+01  0.16149407706E+02  0.51100000000E-03 0.  1.
         12    1    3    3    0    0 -0.11554162636E+02  0.66040842959E+01 -0.17103235893E+02  0.21671024009E+02  0.00000000000E+00 0. -1.
</event>
<event>
 7    1  0.1333056E-013  0.7246163E+02  0.7816164E-02  0.1226708E+00
        -11   -1    0    0    0    0  0.00000000000E+00  0.00000000000E+00  0.45593999997E+02  0.45594000000E+02  0.51100000000E-03 0. -1.
         11   -1    0    0    0    0 -0.00000000000E+00 -0.00000000000E+00 -0.45593999997E+02  0.45594000000E+02  0.51100000000E-03 0.  1.
    9900012    2    1    2    0    0 -0.60985825768E+01  0.58408099457E+01 -0.16714337154E+02  0.72461632580E+02  0.70000081138E+02 0.  0.
         12    1    1    2    0    0  0.60985825768E+01 -0.58408099457E+01  0.16714337154E+02  0.18726367420E+02  0.00000000000E+00 0. -1.
         11    1    3    3    0    0 -0.63763597113E+01  0.26453750289E+02  0.15922177364E+01  0.27257916741E+02  0.51100000000E-03 0. -1.
        -11    1    3    3    0    0  0.14048447612E+02  0.74064694712E+00 -0.13191223099E+02  0.19285118753E+02  0.51100000000E-03 0.  1.
         12    1    3    3    0    0 -0.13770670477E+02 -0.21353587290E+02 -0.51153317912E+01  0.25918597085E+02  0.00000000000E+00 0. -1.
</event>
<event>
 7    1  0.1333056E-013  0.7246157E+02  0.7816164E-02  0.1226708E+00
        -11   -1    0    0    0    0  0.00000000000E+00  0.00000000000E+00  0.45593999997E+02  0.45594000000E+02  0.51100000000E-03 0.  1.
         11   -1    0    0    0    0 -0.00000000000E+00 -0.00000000000E+00 -0.45593999997E+02  0.45594000000E+02  0.51100000000E-03 0. -1.
    9900012    2    1    2    0    0  0.88444982808E+01 -0.55077557205E+01  0.15560165843E+02  0.72461567239E+02  0.69999996019E+02 0.  0.
         12    1    1    2    0    0 -0.88444982808E+01  0.55077557205E+01 -0.15560165843E+02  0.18726432761E+02  0.00000000000E+00 0. -1.
         11    1    3    3    0    0  0.82228072420E+01 -0.85009684591E+01 -0.11973961132E+02  0.16830233781E+02  0.51100000000E-03 0. -1.
        -11    1    3    3    0    0 -0.14706457450E+02 -0.14863713209E+01  0.35007230042E+02  0.37999938762E+02  0.51100000000E-03 0.  1.
        -12    1    3    3    0    0  0.15328148489E+02  0.44795840595E+01 -0.74731030677E+01  0.17631394696E+02  0.00000000000E+00 0.  1.
</event>
<event>
 7    1  0.1333056E-013  0.7246154E+02  0.7816164E-02  0.1226708E+00
        -11   -1    0    0    0    0  0.00000000000E+00  0.00000000000E+00  0.45593999997E+02  0.45594000000E+02  0.51100000000E-03 0.  1.
         11   -1    0    0    0    0 -0.00000000000E+00 -0.00000000000E+00 -0.45593999997E+02  0.45594000000E+02  0.51100000000E-03 0. -1.
    9900012    2    1    2    0    0 -0.14963039197E+01  0.18263834241E+02  0.38566646367E+01  0.72461536673E+02  0.69999956202E+02 0.  0.
         12    1    1    2    0    0  0.14963039197E+01 -0.18263834241E+02 -0.38566646367E+01  0.18726463327E+02  0.00000000000E+00 0. -1.
         11    1    3    3    0    0  0.92545106883E+01 -0.14363828817E+02  0.12086247929E+02  0.20929475283E+02  0.51100000000E-03 0. -1.
        -11    1    3    3    0    0  0.79774053871E+01  0.26265811453E+02 -0.14153789436E+02  0.30884649968E+02  0.51100000000E-03 0.  1.
        -12    1    3    3    0    0 -0.18728219995E+02  0.63618516054E+01  0.59242061434E+01  0.20647411423E+02  0.00000000000E+00 0.  1.
</event>
<event>
 7    1  0.1333056E-013  0.7246157E+02  0.7816164E-02  0.1226708E+00
        -11   -1    0    0    0    0  0.00000000000E+00  0.00000000000E+00  0.45593999997E+02  0.45594000000E+02  0.51100000000E-03 0.  1.
         11   -1    0    0    0    0 -0.00000000000E+00 -0.00000000000E+00 -0.45593999997E+02  0.45594000000E+02  0.51100000000E-03 0. -1.
    9900012    2    1    2    0    0  0.10730040446E+01  0.17131576246E+02  0.74857788394E+01  0.72461571425E+02  0.70000001472E+02 0.  0.
         12    1    1    2    0    0 -0.10730040446E+01 -0.17131576246E+02 -0.74857788394E+01  0.18726428575E+02  0.00000000000E+00 0. -1.
         11    1    3    3    0    0 -0.29085484573E+02 -0.43915960005E+01  0.15399937512E+01  0.29455442779E+02  0.51100000000E-03 0.  1.
        -11    1    3    3    0    0  0.29899508832E+02  0.11927484907E+02  0.80433800052E+01  0.33180438315E+02  0.51100000000E-03 0. -1.
         12    1    3    3    0    0  0.25897978653E+00  0.95956873392E+01 -0.20975949170E+01  0.98256903308E+01  0.00000000000E+00 0. -1.
</event>
<event>
 7    1  0.1333056E-013  0.7246157E+02  0.7816164E-02  0.1226708E+00
        -11   -1    0    0    0    0  0.00000000000E+00  0.00000000000E+00  0.45593999997E+02  0.45594000000E+02  0.51100000000E-03 0.  1.
         11   -1    0    0    0    0 -0.00000000000E+00 -0.00000000000E+00 -0.45593999997E+02  0.45594000000E+02  0.51100000000E-03 0. -1.
    9900012    2    1    2    0    0 -0.81829255233E+01 -0.53905693101E+01  0.15958095070E+02  0.72461566654E+02  0.69999995258E+02 0.  0.
         12    1    1    2    0    0  0.81829255233E+01  0.53905693101E+01 -0.15958095070E+02  0.18726433346E+02  0.00000000000E+00 0. -1.
         11    1    3    3    0    0  0.18409572033E+02 -0.15490283451E+02 -0.42674421954E+01  0.24435062656E+02  0.51100000000E-03 0.  1.
        -11    1    3    3    0    0 -0.34366441375E+02  0.64413899847E+01  0.15996837702E+02  0.38450521640E+02  0.51100000000E-03 0. -1.
         12    1    3    3    0    0  0.77739438182E+01  0.36583241564E+01  0.42286995637E+01  0.95759823580E+01  0.00000000000E+00 0. -1.
</event>
<event>
 7    1  0.1333056E-013  0.7246144E+02  0.7816164E-02  0.1226708E+00
        -11   -1    0    0    0    0  0.00000000000E+00  0.00000000000E+00  0.45593999997E+02  0.45594000000E+02  0.51100000000E-03 0.  1.
         11   -1    0    0    0    0 -0.00000000000E+00 -0.00000000000E+00 -0.45593999997E+02  0.45594000000E+02  0.51100000000E-03 0. -1.
    9900012    2    1    2    0    0  0.65856573104E+01 -0.13208440538E+02  0.11526071119E+02  0.72461438674E+02  0.69999828540E+02 0.  0.
         12    1    1    2    0    0 -0.65856573104E+01  0.13208440538E+02 -0.11526071119E+02  0.18726561326E+02  0.00000000000E+00 0. -1.
         11    1    3    3    0    0 -0.17902805324E+02 -0.12467110301E+02  0.19360652700E+02  0.29168033032E+02  0.51100000000E-03 0. -1.
        -11    1    3    3    0    0  0.27392538012E+02 -0.12562884008E+02 -0.33543682619E+01  0.30322087330E+02  0.51100000000E-03 0.  1.
         12    1    3    3    0    0 -0.29040753771E+01  0.11821553772E+02 -0.44802133189E+01  0.12971318313E+02  0.00000000000E+00 0. -1.
</event>
<event>
 7    1  0.1333056E-013  0.7246166E+02  0.7816164E-02  0.1226708E+00
        -11   -1    0    0    0    0  0.00000000000E+00  0.00000000000E+00  0.45593999997E+02  0.45594000000E+02  0.51100000000E-03 0.  1.
         11   -1    0    0    0    0 -0.00000000000E+00 -0.00000000000E+00 -0.45593999997E+02  0.45594000000E+02  0.51100000000E-03 0. -1.
    9900012    2    1    2    0    0 -0.18439432010E+02 -0.58739763752E+00 -0.32121604406E+01  0.72461663905E+02  0.70000121945E+02 0.  0.
         12    1    1    2    0    0  0.18439432010E+02  0.58739763752E+00  0.32121604406E+01  0.18726336095E+02  0.00000000000E+00 0. -1.
         11    1    3    3    0    0 -0.36966610040E+00  0.84121702640E+01 -0.13947070304E+02  0.16291778046E+02  0.51100000000E-03 0. -1.
        -11    1    3    3    0    0 -0.29833649642E+02  0.39030801167E+01  0.20266823508E+02  0.36277056395E+02  0.51100000000E-03 0.  1.
        -12    1    3    3    0    0  0.11763883732E+02 -0.12902648018E+02 -0.95319136448E+01  0.19892829464E+02  0.00000000000E+00 0.  1.
</event>
<event>
 7    1  0.1333056E-013  0.7246161E+02  0.7816164E-02  0.1226708E+00
        -11   -1    0    0    0    0  0.00000000000E+00  0.00000000000E+00  0.45593999997E+02  0.45594000000E+02  0.51100000000E-03 0.  1.
         11   -1    0    0    0    0 -0.00000000000E+00 -0.00000000000E+00 -0.45593999997E+02  0.45594000000E+02  0.51100000000E-03 0. -1.
    9900012    2    1    2    0    0  0.25639808502E+01 -0.17428308789E+02  0.63527805013E+01  0.72461607792E+02  0.70000048847E+02 0.  0.
         12    1    1    2    0    0 -0.25639808502E+01  0.17428308789E+02 -0.63527805013E+01  0.18726392208E+02  0.00000000000E+00 0. -1.
         11    1    3    3    0    0 -0.12376624264E+02  0.11144438628E+02 -0.13576413923E+02  0.21487167235E+02  0.51100000000E-03 0. -1.
        -11    1    3    3    0    0  0.20177221566E+01 -0.30529275131E+02  0.22076554472E+02  0.37729061747E+02  0.51100000000E-03 0.  1.
         12    1    3    3    0    0  0.12922882958E+02  0.19565277134E+01 -0.21473600476E+01  0.13245378809E+02  0.00000000000E+00 0. -1.
</event>
<event>
 7    1  0.1333056E-013  0.7246161E+02  0.7816164E-02  0.1226708E+00
        -11   -1    0    0    0    0  0.00000000000E+00  0.00000000000E+00  0.45593999997E+02  0.45594000000E+02  0.51100000000E-03 0. -1.
         11   -1    0    0    0    0 -0.00000000000E+00 -0.00000000000E+00 -0.45593999997E+02  0.45594000000E+02  0.51100000000E-03 0.  1.
    9900012    2    1    2    0    0  0.47102078572E+01  0.75724539065E+01 -0.16466620235E+02  0.72461609580E+02  0.70000051176E+02 0.  0.
         12    1    1    2    0    0 -0.47102078572E+01 -0.75724539065E+01  0.16466620235E+02  0.18726390420E+02  0.00000000000E+00 0. -1.
         11    1    3    3    0    0 -0.98560524477E+01 -0.11380538337E+02 -0.18900710750E+02  0.24163925381E+02  0.51100000000E-03 0.  1.
        -11    1    3    3    0    0  0.26219250914E+02  0.19899667798E+02 -0.65400543825E+01  0.33559174730E+02  0.51100000000E-03 0. -1.
         12    1    3    3    0    0 -0.11652990609E+02 -0.94667555444E+00  0.89741448974E+01  0.14738509469E+02  0.00000000000E+00 0. -1.
</event>
<event>
 7    1  0.1333056E-013  0.7246156E+02  0.7816164E-02  0.1226708E+00
        -11   -1    0    0    0    0  0.00000000000E+00  0.00000000000E+00  0.45593999997E+02  0.45594000000E+02  0.51100000000E-03 0. -1.
         11   -1    0    0    0    0 -0.00000000000E+00 -0.00000000000E+00 -0.45593999997E+02  0.45594000000E+02  0.51100000000E-03 0.  1.
    9900012    2    1    2    0    0  0.16173345639E+02 -0.38555147750E+01 -0.86161125054E+01  0.72461561522E+02  0.69999988573E+02 0.  0.
         12    1    1    2    0    0 -0.16173345639E+02  0.38555147750E+01  0.86161125054E+01  0.18726438478E+02  0.00000000000E+00 0. -1.
         11    1    3    3    0    0 -0.48604072194E+01 -0.15200667292E+02  0.50511401011E+01  0.16739111716E+02  0.51100000000E-03 0. -1.
        -11    1    3    3    0    0  0.23801701468E+02 -0.35572678763E+01 -0.26547110899E+02  0.35831888659E+02  0.51100000000E-03 0.  1.
         12    1    3    3    0    0 -0.27679486094E+01  0.14902420394E+02  0.12879858293E+02  0.19890561147E+02  0.00000000000E+00 0. -1.
</event>
<event>
 7    1  0.1333056E-013  0.7246155E+02  0.7816164E-02  0.1226708E+00
        -11   -1    0    0    0    0  0.00000000000E+00  0.00000000000E+00  0.45593999997E+02  0.45594000000E+02  0.51100000000E-03 0.  1.
         11   -1    0    0    0    0 -0.00000000000E+00 -0.00000000000E+00 -0.45593999997E+02  0.45594000000E+02  0.51100000000E-03 0. -1.
    9900012    2    1    2    0    0  0.96273876504E+01  0.99509019857E+01  0.12608452235E+02  0.72461545155E+02  0.69999967251E+02 0.  0.
         12    1    1    2    0    0 -0.96273876504E+01 -0.99509019857E+01 -0.12608452235E+02  0.18726454845E+02  0.00000000000E+00 0. -1.
         11    1    3    3    0    0  0.90152916394E+01  0.11936805692E+02  0.38309722819E+02  0.41126605455E+02  0.51100000000E-03 0.  1.
        -11    1    3    3    0    0  0.37763140455E+01 -0.53205652020E+01 -0.25924134132E+02  0.26732558662E+02  0.51100000000E-03 0. -1.
         12    1    3    3    0    0 -0.31642180346E+01  0.33346614960E+01  0.22286354825E+00  0.46023810386E+01  0.00000000000E+00 0. -1.
</event>
<event>
 7    1  0.1333056E-013  0.7246154E+02  0.7816164E-02  0.1226708E+00
        -11   -1    0    0    0    0  0.00000000000E+00  0.00000000000E+00  0.45593999997E+02  0.45594000000E+02  0.51100000000E-03 0.  1.
         11   -1    0    0    0    0 -0.00000000000E+00 -0.00000000000E+00 -0.45593999997E+02  0.45594000000E+02  0.51100000000E-03 0. -1.
    9900012    2    1    2    0    0  0.43988779981E+01 -0.17063473762E+02 -0.63378145426E+01  0.72461543911E+02  0.69999965631E+02 0.  0.
         12    1    1    2    0    0 -0.43988779981E+01  0.17063473762E+02  0.63378145426E+01  0.18726456089E+02  0.00000000000E+00 0. -1.
         11    1    3    3    0    0 -0.88102384560E+01 -0.25826724182E+02 -0.23920154879E+02  0.36287929031E+02  0.51100000000E-03 0. -1.
        -11    1    3    3    0    0  0.37492550782E+01 -0.91311296026E+01  0.11247096530E+02  0.14964345027E+02  0.51100000000E-03 0.  1.
         12    1    3    3    0    0  0.94598613758E+01  0.17894380023E+02  0.63352438065E+01  0.21209269854E+02  0.00000000000E+00 0. -1.
</event>
<event>
 7    1  0.1333056E-013  0.7246165E+02  0.7816164E-02  0.1226708E+00
        -11   -1    0    0    0    0  0.00000000000E+00  0.00000000000E+00  0.45593999997E+02  0.45594000000E+02  0.51100000000E-03 0.  1.
         11   -1    0    0    0    0 -0.00000000000E+00 -0.00000000000E+00 -0.45593999997E+02  0.45594000000E+02  0.51100000000E-03 0. -1.
    9900012    2    1    2    0    0  0.41223869222E+00  0.78990038338E+01  0.16973865648E+02  0.72461646448E+02  0.70000099204E+02 0.  0.
         12    1    1    2    0    0 -0.41223869222E+00 -0.78990038338E+01 -0.16973865648E+02  0.18726353552E+02  0.00000000000E+00 0. -1.
         11    1    3    3    0    0  0.18539346982E+02 -0.19292143861E+02  0.16098129793E+02  0.31225694298E+02  0.51100000000E-03 0. -1.
        -11    1    3    3    0    0 -0.20605633216E+02  0.19645479936E+02  0.90155621278E+01  0.29863311318E+02  0.51100000000E-03 0.  1.
         12    1    3    3    0    0  0.24785249260E+01  0.75456677588E+01 -0.81398262729E+01  0.11372640832E+02  0.00000000000E+00 0. -1.
</event>
<event>
 7    1  0.1333056E-013  0.7246154E+02  0.7816164E-02  0.1226708E+00
        -11   -1    0    0    0    0  0.00000000000E+00  0.00000000000E+00  0.45593999997E+02  0.45594000000E+02  0.51100000000E-03 0. -1.
         11   -1    0    0    0    0 -0.00000000000E+00 -0.00000000000E+00 -0.45593999997E+02  0.45594000000E+02  0.51100000000E-03 0.  1.
    9900012    2    1    2    0    0 -0.28253794463E+01  0.84092079772E+00 -0.18492986412E+02  0.72461535751E+02  0.69999955001E+02 0.  0.
         12    1    1    2    0    0  0.28253794463E+01 -0.84092079772E+00  0.18492986412E+02  0.18726464249E+02  0.00000000000E+00 0. -1.
         11    1    3    3    0    0 -0.67648024236E+01 -0.29790310326E+02 -0.21344292821E+02  0.37266660401E+02  0.51100000000E-03 0. -1.
        -11    1    3    3    0    0 -0.37495928929E+01  0.25556269099E+02  0.28069344299E+01  0.25981940233E+02  0.51100000000E-03 0.  1.
         12    1    3    3    0    0  0.76890158702E+01  0.50749620249E+01  0.44371978795E-01  0.92129351175E+01  0.00000000000E+00 0. -1.
</event>
<event>
 7    1  0.1333056E-013  0.7246157E+02  0.7816164E-02  0.1226708E+00
        -11   -1    0    0    0    0  0.00000000000E+00  0.00000000000E+00  0.45593999997E+02  0.45594000000E+02  0.51100000000E-03 0.  1.
         11   -1    0    0    0    0 -0.00000000000E+00 -0.00000000000E+00 -0.45593999997E+02  0.45594000000E+02  0.51100000000E-03 0. -1.
    9900012    2    1    2    0    0 -0.15270160619E+02  0.80776467133E+01  0.72286358019E+01  0.72461565280E+02  0.69999993468E+02 0.  0.
         12    1    1    2    0    0  0.15270160619E+02 -0.80776467133E+01 -0.72286358019E+01  0.18726434720E+02  0.00000000000E+00 0. -1.
         11    1    3    3    0    0 -0.27780474740E+01 -0.12981611502E+02 -0.22165788663E+02  0.25837220676E+02  0.51100000000E-03 0. -1.
        -11    1    3    3    0    0 -0.20231286152E+02  0.11251999840E+02  0.15096172022E+02  0.27637055736E+02  0.51100000000E-03 0.  1.
        -12    1    3    3    0    0  0.77391730064E+01  0.98072583753E+01  0.14298252442E+02  0.18987288868E+02  0.00000000000E+00 0.  1.
</event>
<event>
 7    1  0.1333056E-013  0.7246160E+02  0.7816164E-02  0.1226708E+00
        -11   -1    0    0    0    0  0.00000000000E+00  0.00000000000E+00  0.45593999997E+02  0.45594000000E+02  0.51100000000E-03 0. -1.
         11   -1    0    0    0    0 -0.00000000000E+00 -0.00000000000E+00 -0.45593999997E+02  0.45594000000E+02  0.51100000000E-03 0.  1.
    9900012    2    1    2    0    0  0.18670792651E+02 -0.11849660904E+01  0.82190099402E+00  0.72461597139E+02  0.70000034970E+02 0.  0.
         12    1    1    2    0    0 -0.18670792651E+02  0.11849660904E+01 -0.82190099402E+00  0.18726402861E+02  0.00000000000E+00 0. -1.
         11    1    3    3    0    0  0.21347564598E+02  0.21678936119E+02  0.33427881736E+01  0.30608316166E+02  0.51100000000E-03 0. -1.
        -11    1    3    3    0    0  0.40850980251E+01 -0.30915804168E+02 -0.29950914246E+01  0.31328031316E+02  0.51100000000E-03 0.  1.
        -12    1    3    3    0    0 -0.67618699713E+01  0.80519019593E+01  0.47420424509E+00  0.10525249657E+02  0.00000000000E+00 0.  1.
</event>
<event>
 7    1  0.1333056E-013  0.7246153E+02  0.7816164E-02  0.1226708E+00
        -11   -1    0    0    0    0  0.00000000000E+00  0.00000000000E+00  0.45593999997E+02  0.45594000000E+02  0.51100000000E-03 0.  1.
         11   -1    0    0    0    0 -0.00000000000E+00 -0.00000000000E+00 -0.45593999997E+02  0.45594000000E+02  0.51100000000E-03 0. -1.
    9900012    2    1    2    0    0  0.11027237967E+02 -0.14301599423E+02  0.49542951494E+01  0.72461527730E+02  0.69999944552E+02 0.  0.
         12    1    1    2    0    0 -0.11027237967E+02  0.14301599423E+02 -0.49542951494E+01  0.18726472270E+02  0.00000000000E+00 0. -1.
         11    1    3    3    0    0 -0.25079666817E+02 -0.22805697544E+02  0.31472861523E+01  0.34044014724E+02  0.51100000000E-03 0. -1.
        -11    1    3    3    0    0  0.10642042197E+02 -0.15190547487E+01  0.25217350879E+01  0.11041727110E+02  0.51100000000E-03 0.  1.
         12    1    3    3    0    0  0.25464862588E+02  0.10023152869E+02 -0.71472609079E+00  0.27375785896E+02  0.00000000000E+00 0. -1.
</event>
<event>
 7    1  0.1333056E-013  0.7246138E+02  0.7816164E-02  0.1226709E+00
        -11   -1    0    0    0    0  0.00000000000E+00  0.00000000000E+00  0.45593999997E+02  0.45594000000E+02  0.51100000000E-03 0.  1.
         11   -1    0    0    0    0 -0.00000000000E+00 -0.00000000000E+00 -0.45593999997E+02  0.45594000000E+02  0.51100000000E-03 0. -1.
    9900012    2    1    2    0    0 -0.11012291408E+02 -0.76729628573E+01  0.13059150342E+02  0.72461379143E+02  0.69999750990E+02 0.  0.
         12    1    1    2    0    0  0.11012291408E+02  0.76729628573E+01 -0.13059150342E+02  0.18726620857E+02  0.00000000000E+00 0. -1.
         11    1    3    3    0    0  0.43149454321E+01 -0.10179788489E+02  0.36907537172E+02  0.38528082591E+02  0.51100000000E-03 0.  1.
        -11    1    3    3    0    0 -0.17963337760E+02  0.66197542839E+01 -0.20242164416E+02  0.27861225220E+02  0.51100000000E-03 0. -1.
        -12    1    3    3    0    0  0.26361009203E+01 -0.41129286520E+01 -0.36062224147E+01  0.60720713321E+01  0.00000000000E+00 0.  1.
</event>
<event>
 7    1  0.1333056E-013  0.7246162E+02  0.7816164E-02  0.1226708E+00
        -11   -1    0    0    0    0  0.00000000000E+00  0.00000000000E+00  0.45593999997E+02  0.45594000000E+02  0.51100000000E-03 0.  1.
         11   -1    0    0    0    0 -0.00000000000E+00 -0.00000000000E+00 -0.45593999997E+02  0.45594000000E+02  0.51100000000E-03 0. -1.
    9900012    2    1    2    0    0  0.17028320955E+02  0.75870797899E+01  0.17747293410E+01  0.72461623989E+02  0.70000069947E+02 0.  0.
         12    1    1    2    0    0 -0.17028320955E+02 -0.75870797899E+01 -0.17747293410E+01  0.18726376011E+02  0.00000000000E+00 0. -1.
         11    1    3    3    0    0 -0.16330493005E+02 -0.84612658878E+01 -0.17882639421E+02  0.25652813006E+02  0.51100000000E-03 0. -1.
        -11    1    3    3    0    0  0.20756372079E+02  0.13384586716E+02  0.17629242563E+01  0.24760493647E+02  0.51100000000E-03 0.  1.
         12    1    3    3    0    0  0.12602441880E+02  0.26637589613E+01  0.17894444506E+02  0.22048317335E+02  0.00000000000E+00 0. -1.
</event>
<event>
 7    1  0.1333056E-013  0.7246157E+02  0.7816164E-02  0.1226708E+00
        -11   -1    0    0    0    0  0.00000000000E+00  0.00000000000E+00  0.45593999997E+02  0.45594000000E+02  0.51100000000E-03 0.  1.
         11   -1    0    0    0    0 -0.00000000000E+00 -0.00000000000E+00 -0.45593999997E+02  0.45594000000E+02  0.51100000000E-03 0. -1.
    9900012    2    1    2    0    0  0.13647491633E+02 -0.55589499375E+01  0.11555223864E+02  0.72461570793E+02  0.70000000650E+02 0.  0.
         12    1    1    2    0    0 -0.13647491633E+02  0.55589499375E+01 -0.11555223864E+02  0.18726429207E+02  0.00000000000E+00 0. -1.
         11    1    3    3    0    0 -0.52711925725E+01 -0.30411804546E+02  0.55856081134E+01  0.31366580067E+02  0.51100000000E-03 0. -1.
        -11    1    3    3    0    0  0.48296057740E+01  0.12555098946E+02  0.15151406642E+02  0.20261311038E+02  0.51100000000E-03 0.  1.
         12    1    3    3    0    0  0.14089078432E+02  0.12297755662E+02 -0.91817908911E+01  0.20833679688E+02  0.00000000000E+00 0. -1.
</event>
<event>
 7    1  0.1333056E-013  0.7246156E+02  0.7816164E-02  0.1226708E+00
        -11   -1    0    0    0    0  0.00000000000E+00  0.00000000000E+00  0.45593999997E+02  0.45594000000E+02  0.51100000000E-03 0.  1.
         11   -1    0    0    0    0 -0.00000000000E+00 -0.00000000000E+00 -0.45593999997E+02  0.45594000000E+02  0.51100000000E-03 0. -1.
    9900012    2    1    2    0    0  0.45264453416E+01 -0.17958225651E+02  0.27736167583E+01  0.72461560780E+02  0.69999987605E+02 0.  0.
         12    1    1    2    0    0 -0.45264453416E+01  0.17958225651E+02 -0.27736167583E+01  0.18726439220E+02  0.00000000000E+00 0. -1.
         11    1    3    3    0    0 -0.68668497223E+00  0.18756081527E+02  0.71956540738E+01  0.20100735516E+02  0.51100000000E-03 0. -1.
        -11    1    3    3    0    0  0.38522461317E+01 -0.34567684320E+02  0.11194532304E+02  0.36538776024E+02  0.51100000000E-03 0.  1.
         12    1    3    3    0    0  0.13608841822E+01 -0.21466228568E+01 -0.15616569620E+02  0.15822049240E+02  0.00000000000E+00 0. -1.
</event>
<event>
 7    1  0.1333056E-013  0.7246140E+02  0.7816164E-02  0.1226708E+00
        -11   -1    0    0    0    0  0.00000000000E+00  0.00000000000E+00  0.45593999997E+02  0.45594000000E+02  0.51100000000E-03 0.  1.
         11   -1    0    0    0    0 -0.00000000000E+00 -0.00000000000E+00 -0.45593999997E+02  0.45594000000E+02  0.51100000000E-03 0. -1.
    9900012    2    1    2    0    0 -0.13104389272E+02 -0.10718144513E+02  0.80051208718E+01  0.72461398596E+02  0.69999776331E+02 0.  0.
         12    1    1    2    0    0  0.13104389272E+02  0.10718144513E+02 -0.80051208718E+01  0.18726601404E+02  0.00000000000E+00 0. -1.
         11    1    3    3    0    0  0.19680474474E+02 -0.16938102170E+02 -0.66052250726E+01  0.26792711306E+02  0.51100000000E-03 0. -1.
        -11    1    3    3    0    0 -0.32553266016E+02 -0.38043304418E+01  0.82589273217E+01  0.33799377793E+02  0.51100000000E-03 0.  1.
         12    1    3    3    0    0 -0.23159772900E+00  0.10024288099E+02  0.63514186226E+01  0.11869309496E+02  0.00000000000E+00 0. -1.
</event>
<event>
 7    1  0.1333056E-013  0.7246158E+02  0.7816164E-02  0.1226708E+00
        -11   -1    0    0    0    0  0.00000000000E+00  0.00000000000E+00  0.45593999997E+02  0.45594000000E+02  0.51100000000E-03 0. -1.
         11   -1    0    0    0    0 -0.00000000000E+00 -0.00000000000E+00 -0.45593999997E+02  0.45594000000E+02  0.51100000000E-03 0.  1.
    9900012    2    1    2    0    0 -0.12079877154E+02  0.11387824481E+02  0.86644609771E+01  0.72461578492E+02  0.70000010679E+02 0.  0.
         12    1    1    2    0    0  0.12079877154E+02 -0.11387824481E+02 -0.86644609771E+01  0.18726421508E+02  0.00000000000E+00 0. -1.
         11    1    3    3    0    0 -0.28146266784E+02  0.62501139619E+01  0.28572728579E+02  0.40591588749E+02  0.51100000000E-03 0. -1.
        -11    1    3    3    0    0  0.12795906299E+02  0.11837209235E+02 -0.13872495956E+02  0.22277811491E+02  0.51100000000E-03 0.  1.
         12    1    3    3    0    0  0.32704833309E+01 -0.66994987160E+01 -0.60357716461E+01  0.95921782525E+01  0.00000000000E+00 0. -1.
</event>
<event>
 7    1  0.1333056E-013  0.7246169E+02  0.7816164E-02  0.1226708E+00
        -11   -1    0    0    0    0  0.00000000000E+00  0.00000000000E+00  0.45593999997E+02  0.45594000000E+02  0.51100000000E-03 0. -1.
         11   -1    0    0    0    0 -0.00000000000E+00 -0.00000000000E+00 -0.45593999997E+02  0.45594000000E+02  0.51100000000E-03 0.  1.
    9900012    2    1    2    0    0  0.38237546316E+01  0.45735339330E+01  0.17752079865E+02  0.72461690923E+02  0.70000157141E+02 0.  0.
         12    1    1    2    0    0 -0.38237546316E+01 -0.45735339330E+01 -0.17752079865E+02  0.18726309077E+02  0.00000000000E+00 0. -1.
         11    1    3    3    0    0 -0.24280170310E+02 -0.13886761097E+01  0.11801109021E+02  0.27031856503E+02  0.51100000000E-03 0. -1.
        -11    1    3    3    0    0  0.14325810770E+02 -0.11276159760E+02 -0.73569331204E+01  0.19659732917E+02  0.51100000000E-03 0.  1.
         12    1    3    3    0    0  0.13778114171E+02  0.17238369803E+02  0.13307903964E+02  0.25770101503E+02  0.00000000000E+00 0. -1.
</event>
<event>
 7    1  0.1333056E-013  0.7246157E+02  0.7816164E-02  0.1226708E+00
        -11   -1    0    0    0    0  0.00000000000E+00  0.00000000000E+00  0.45593999997E+02  0.45594000000E+02  0.51100000000E-03 0.  1.
         11   -1    0    0    0    0 -0.00000000000E+00 -0.00000000000E+00 -0.45593999997E+02  0.45594000000E+02  0.51100000000E-03 0. -1.
    9900012    2    1    2    0    0  0.17963961783E+02  0.89592849732E+00  0.52127441787E+01  0.72461566472E+02  0.69999995020E+02 0.  0.
         12    1    1    2    0    0 -0.17963961783E+02 -0.89592849732E+00 -0.52127441787E+01  0.18726433528E+02  0.00000000000E+00 0. -1.
         11    1    3    3    0    0  0.27556111354E+02 -0.12551189131E+02  0.20671920782E+01  0.30350369106E+02  0.51100000000E-03 0. -1.
        -11    1    3    3    0    0 -0.90089243880E+01  0.25398098572E+02  0.94866452233E+01  0.28569574157E+02  0.51100000000E-03 0.  1.
        -12    1    3    3    0    0 -0.58322518253E+00 -0.11950980943E+02 -0.63410931228E+01  0.13541623208E+02  0.00000000000E+00 0.  1.
</event>
<event>
 7    1  0.1333056E-013  0.7246160E+02  0.7816164E-02  0.1226708E+00
        -11   -1    0    0    0    0  0.00000000000E+00  0.00000000000E+00  0.45593999997E+02  0.45594000000E+02  0.51100000000E-03 0. -1.
         11   -1    0    0    0    0 -0.00000000000E+00 -0.00000000000E+00 -0.45593999997E+02  0.45594000000E+02  0.51100000000E-03 0.  1.
    9900012    2    1    2    0    0 -0.79678371704E+01  0.10121709894E+02 -0.13592007137E+02  0.72461598894E+02  0.70000037257E+02 0.  0.
         12    1    1    2    0    0  0.79678371704E+01 -0.10121709894E+02  0.13592007137E+02  0.18726401106E+02  0.00000000000E+00 0. -1.
         11    1    3    3    0    0 -0.17150336025E+02 -0.19402882355E+02 -0.54210079388E+01  0.26457384542E+02  0.51100000000E-03 0. -1.
        -11    1    3    3    0    0  0.12859394882E+02  0.43408127248E+01 -0.14414710969E+02  0.19798752093E+02  0.51100000000E-03 0.  1.
         12    1    3    3    0    0 -0.36768960278E+01  0.25183779525E+02  0.62437117712E+01  0.26205462260E+02  0.00000000000E+00 0. -1.
</event>
<event>
 7    1  0.1333056E-013  0.7246127E+02  0.7816164E-02  0.1226709E+00
        -11   -1    0    0    0    0  0.00000000000E+00  0.00000000000E+00  0.45593999997E+02  0.45594000000E+02  0.51100000000E-03 0.  1.
         11   -1    0    0    0    0 -0.00000000000E+00 -0.00000000000E+00 -0.45593999997E+02  0.45594000000E+02  0.51100000000E-03 0. -1.
    9900012    2    1    2    0    0 -0.10495068104E+02  0.73453093824E+01  0.13659809519E+02  0.72461269892E+02  0.69999608669E+02 0.  0.
         12    1    1    2    0    0  0.10495068104E+02 -0.73453093824E+01 -0.13659809519E+02  0.18726730108E+02  0.00000000000E+00 0. -1.
         11    1    3    3    0    0  0.28427687691E+02  0.39075790678E+01  0.15474466550E+02  0.32601560038E+02  0.51100000000E-03 0. -1.
        -11    1    3    3    0    0 -0.31473789870E+02  0.10466569385E+01  0.11017962046E+01  0.31510456910E+02  0.51100000000E-03 0.  1.
         12    1    3    3    0    0 -0.74489659252E+01  0.23910733761E+01 -0.29164532362E+01  0.83492529441E+01  0.00000000000E+00 0. -1.
</event>
<event>
 7    1  0.1333056E-013  0.7246157E+02  0.7816164E-02  0.1226708E+00
        -11   -1    0    0    0    0  0.00000000000E+00  0.00000000000E+00  0.45593999997E+02  0.45594000000E+02  0.51100000000E-03 0.  1.
         11   -1    0    0    0    0 -0.00000000000E+00 -0.00000000000E+00 -0.45593999997E+02  0.45594000000E+02  0.51100000000E-03 0. -1.
    9900012    2    1    2    0    0  0.50113018987E+01 -0.17721902284E+02  0.33912056115E+01  0.72461568338E+02  0.69999997451E+02 0.  0.
         12    1    1    2    0    0 -0.50113018987E+01  0.17721902284E+02 -0.33912056115E+01  0.18726431662E+02  0.00000000000E+00 0. -1.
         11    1    3    3    0    0  0.11963986873E+01  0.40025659466E+01 -0.28386943811E+02  0.28692690414E+02  0.51100000000E-03 0. -1.
        -11    1    3    3    0    0 -0.52616167255E+01 -0.28327341632E+01  0.34075484111E+00  0.59854078832E+01  0.51100000000E-03 0.  1.
         12    1    3    3    0    0  0.90765199369E+01 -0.18891734068E+02  0.31437394582E+02  0.37783470041E+02  0.00000000000E+00 0. -1.
</event>
<event>
 7    1  0.1333056E-013  0.7246157E+02  0.7816164E-02  0.1226708E+00
        -11   -1    0    0    0    0  0.00000000000E+00  0.00000000000E+00  0.45593999997E+02  0.45594000000E+02  0.51100000000E-03 0. -1.
         11   -1    0    0    0    0 -0.00000000000E+00 -0.00000000000E+00 -0.45593999997E+02  0.45594000000E+02  0.51100000000E-03 0.  1.
    9900012    2    1    2    0    0 -0.15014689685E+02 -0.10726358078E+02  0.31911717016E+01  0.72461568391E+02  0.69999997521E+02 0.  0.
         12    1    1    2    0    0  0.15014689685E+02  0.10726358078E+02 -0.31911717016E+01  0.18726431609E+02  0.00000000000E+00 0. -1.
         11    1    3    3    0    0 -0.21285806202E+02  0.19352025746E+02 -0.13423369558E+02  0.31745445290E+02  0.51100000000E-03 0.  1.
        -11    1    3    3    0    0  0.10908860730E+02 -0.17158993866E+02  0.16353317173E+01  0.20398740721E+02  0.51100000000E-03 0. -1.
        -12    1    3    3    0    0 -0.46377442132E+01 -0.12919389958E+02  0.14979209542E+02  0.20317382380E+02  0.00000000000E+00 0.  1.
</event>
<event>
 7    1  0.1333056E-013  0.7246173E+02  0.7816164E-02  0.1226708E+00
        -11   -1    0    0    0    0  0.00000000000E+00  0.00000000000E+00  0.45593999997E+02  0.45594000000E+02  0.51100000000E-03 0.  1.
         11   -1    0    0    0    0 -0.00000000000E+00 -0.00000000000E+00 -0.45593999997E+02  0.45594000000E+02  0.51100000000E-03 0. -1.
    9900012    2    1    2    0    0 -0.96983296913E+01  0.15067639373E+02 -0.54389324434E+01  0.72461725913E+02  0.70000202722E+02 0.  0.
         12    1    1    2    0    0  0.96983296913E+01 -0.15067639373E+02  0.54389324434E+01  0.18726274087E+02  0.00000000000E+00 0. -1.
         11    1    3    3    0    0  0.30163709174E+01  0.81152625284E+01 -0.30750736853E+02  0.31946264205E+02  0.51100000000E-03 0. -1.
        -11    1    3    3    0    0  0.24140172191E+01  0.16851906469E+01  0.24285411655E+02  0.24463208419E+02  0.51100000000E-03 0.  1.
        -12    1    3    3    0    0 -0.15128717828E+02  0.52671861973E+01  0.10263927549E+01  0.16052253289E+02  0.00000000000E+00 0.  1.
</event>
<event>
 7    1  0.1333056E-013  0.7246150E+02  0.7816164E-02  0.1226708E+00
        -11   -1    0    0    0    0  0.00000000000E+00  0.00000000000E+00  0.45593999997E+02  0.45594000000E+02  0.51100000000E-03 0. -1.
         11   -1    0    0    0    0 -0.00000000000E+00 -0.00000000000E+00 -0.45593999997E+02  0.45594000000E+02  0.51100000000E-03 0.  1.
    9900012    2    1    2    0    0 -0.17528885456E+02  0.57112255068E+01  0.32866239440E+01  0.72461499551E+02  0.69999907843E+02 0.  0.
         12    1    1    2    0    0  0.17528885456E+02 -0.57112255068E+01 -0.32866239440E+01  0.18726500449E+02  0.00000000000E+00 0. -1.
         11    1    3    3    0    0 -0.61932393066E+01  0.10919028100E+02  0.12700335774E+02  0.17857209098E+02  0.51100000000E-03 0. -1.
        -11    1    3    3    0    0 -0.32322677714E+02 -0.31132278741E+01 -0.32704749635E+01  0.32636539172E+02  0.51100000000E-03 0.  1.
        -12    1    3    3    0    0  0.20987031564E+02 -0.20945747191E+01 -0.61432368661E+01  0.21967751280E+02  0.00000000000E+00 0.  1.
</event>
<event>
 7    1  0.1333056E-013  0.7246082E+02  0.7816164E-02  0.1226710E+00
        -11   -1    0    0    0    0  0.00000000000E+00  0.00000000000E+00  0.45593999997E+02  0.45594000000E+02  0.51100000000E-03 0. -1.
         11   -1    0    0    0    0 -0.00000000000E+00 -0.00000000000E+00 -0.45593999997E+02  0.45594000000E+02  0.51100000000E-03 0.  1.
    9900012    2    1    2    0    0 -0.57287363455E+01  0.27072951231E+01 -0.17622698371E+02  0.72460817487E+02  0.69999019322E+02 0.  0.
         12    1    1    2    0    0  0.57287363455E+01 -0.27072951231E+01  0.17622698371E+02  0.18727182513E+02  0.00000000000E+00 0. -1.
         11    1    3    3    0    0  0.15270376533E+02 -0.81714917921E+01  0.16173162119E+02  0.23696599983E+02  0.51100000000E-03 0. -1.
        -11    1    3    3    0    0 -0.13660477013E+02 -0.57901929873E+01 -0.23642271849E+02  0.27912219286E+02  0.51100000000E-03 0.  1.
         12    1    3    3    0    0 -0.73386358663E+01  0.16668979903E+02 -0.10153588641E+02  0.20851998218E+02  0.00000000000E+00 0. -1.
</event>
<event>
 7    1  0.1333056E-013  0.7246154E+02  0.7816164E-02  0.1226708E+00
        -11   -1    0    0    0    0  0.00000000000E+00  0.00000000000E+00  0.45593999997E+02  0.45594000000E+02  0.51100000000E-03 0.  1.
         11   -1    0    0    0    0 -0.00000000000E+00 -0.00000000000E+00 -0.45593999997E+02  0.45594000000E+02  0.51100000000E-03 0. -1.
    9900012    2    1    2    0    0 -0.18532110218E+02  0.84005119076E+00 -0.25564987225E+01  0.72461535281E+02  0.69999954389E+02 0.  0.
         12    1    1    2    0    0  0.18532110218E+02 -0.84005119076E+00  0.25564987225E+01  0.18726464719E+02  0.00000000000E+00 0. -1.
         11    1    3    3    0    0  0.82643724032E+00 -0.94272075299E+01  0.13885115098E+02  0.16803322941E+02  0.51100000000E-03 0. -1.
        -11    1    3    3    0    0 -0.24936729565E+02  0.25692641138E+02 -0.62468712037E+01  0.36345229262E+02  0.51100000000E-03 0.  1.
         12    1    3    3    0    0  0.55781821065E+01 -0.15425382417E+02 -0.10194742617E+02  0.19312983078E+02  0.00000000000E+00 0. -1.
</event>
<event>
 7    1  0.1333056E-013  0.7246157E+02  0.7816164E-02  0.1226708E+00
        -11   -1    0    0    0    0  0.00000000000E+00  0.00000000000E+00  0.45593999997E+02  0.45594000000E+02  0.51100000000E-03 0.  1.
         11   -1    0    0    0    0 -0.00000000000E+00 -0.00000000000E+00 -0.45593999997E+02  0.45594000000E+02  0.51100000000E-03 0. -1.
    9900012    2    1    2    0    0 -0.18158472522E+02 -0.34987650710E+00  0.45636211840E+01  0.72461570116E+02  0.69999999768E+02 0.  0.
         12    1    1    2    0    0  0.18158472522E+02  0.34987650710E+00 -0.45636211840E+01  0.18726429884E+02  0.00000000000E+00 0. -1.
         11    1    3    3    0    0  0.77809274455E+01  0.11308673253E+02  0.23484823496E+02  0.27202313460E+02  0.51100000000E-03 0. -1.
        -11    1    3    3    0    0 -0.26643393133E+02 -0.13024012013E+02 -0.36145994239E+01  0.29875752975E+02  0.51100000000E-03 0.  1.
         12    1    3    3    0    0  0.70399316623E+00  0.13654622522E+01 -0.15306602888E+02  0.15383503681E+02  0.00000000000E+00 0. -1.
</event>
<event>
 7    1  0.1333056E-013  0.7246165E+02  0.7816164E-02  0.1226708E+00
        -11   -1    0    0    0    0  0.00000000000E+00  0.00000000000E+00  0.45593999997E+02  0.45594000000E+02  0.51100000000E-03 0. -1.
         11   -1    0    0    0    0 -0.00000000000E+00 -0.00000000000E+00 -0.45593999997E+02  0.45594000000E+02  0.51100000000E-03 0.  1.
    9900012    2    1    2    0    0  0.72244697414E+01  0.88631269292E+01 -0.14829981541E+02  0.72461645990E+02  0.70000098607E+02 0.  0.
         12    1    1    2    0    0 -0.72244697414E+01 -0.88631269292E+01  0.14829981541E+02  0.18726354010E+02  0.00000000000E+00 0. -1.
         11    1    3    3    0    0  0.35370102209E+01 -0.19735654595E+02  0.77379804540E+01  0.21491459824E+02  0.51100000000E-03 0. -1.
        -11    1    3    3    0    0 -0.14664100818E+02  0.20797799948E+02 -0.15591390645E+02  0.29844192031E+02  0.51100000000E-03 0.  1.
         12    1    3    3    0    0  0.18351560338E+02  0.78009815754E+01 -0.69765713505E+01  0.21125994135E+02  0.00000000000E+00 0. -1.
</event>
<event>
 7    1  0.1333056E-013  0.7246156E+02  0.7816164E-02  0.1226708E+00
        -11   -1    0    0    0    0  0.00000000000E+00  0.00000000000E+00  0.45593999997E+02  0.45594000000E+02  0.51100000000E-03 0.  1.
         11   -1    0    0    0    0 -0.00000000000E+00 -0.00000000000E+00 -0.45593999997E+02  0.45594000000E+02  0.51100000000E-03 0. -1.
    9900012    2    1    2    0    0  0.67778593022E+01  0.44853255218E+01  0.16870747598E+02  0.72461557565E+02  0.69999983418E+02 0.  0.
         12    1    1    2    0    0 -0.67778593022E+01 -0.44853255218E+01 -0.16870747598E+02  0.18726442435E+02  0.00000000000E+00 0. -1.
         11    1    3    3    0    0 -0.15681850535E+02  0.95488289182E+01  0.33519174961E+02  0.38218263438E+02  0.51100000000E-03 0. -1.
        -11    1    3    3    0    0  0.15348213140E+02  0.17410036569E+01 -0.65078755596E+00  0.15460344920E+02  0.51100000000E-03 0.  1.
         12    1    3    3    0    0  0.71114966967E+01 -0.68045070534E+01 -0.15997639808E+02  0.18782949207E+02  0.00000000000E+00 0. -1.
</event>
<event>
 7    1  0.1333056E-013  0.7246157E+02  0.7816164E-02  0.1226708E+00
        -11   -1    0    0    0    0  0.00000000000E+00  0.00000000000E+00  0.45593999997E+02  0.45594000000E+02  0.51100000000E-03 0.  1.
         11   -1    0    0    0    0 -0.00000000000E+00 -0.00000000000E+00 -0.45593999997E+02  0.45594000000E+02  0.51100000000E-03 0. -1.
    9900012    2    1    2    0    0  0.99271717690E+01 -0.13259496538E+02  0.87359070235E+01  0.72461573237E+02  0.70000003834E+02 0.  0.
         12    1    1    2    0    0 -0.99271717690E+01  0.13259496538E+02 -0.87359070235E+01  0.18726426763E+02  0.00000000000E+00 0. -1.
         11    1    3    3    0    0  0.12096965508E+01  0.14572767081E+02 -0.16457574916E+02  0.22015464531E+02  0.51100000000E-03 0. -1.
        -11    1    3    3    0    0  0.96329571850E+01 -0.16240342390E+02  0.31865511281E+02  0.37039889235E+02  0.51100000000E-03 0.  1.
        -12    1    3    3    0    0 -0.91548196678E+00 -0.11591921228E+02 -0.66720293413E+01  0.13406219472E+02  0.00000000000E+00 0.  1.
</event>
<event>
 7    1  0.1438635E-013  0.7246149E+02  0.7816164E-02  0.1226708E+00
        -11   -1    0    0    0    0  0.00000000000E+00  0.00000000000E+00  0.45593999997E+02  0.45594000000E+02  0.51100000000E-03 0. -1.
         11   -1    0    0    0    0 -0.00000000000E+00 -0.00000000000E+00 -0.45593999997E+02  0.45594000000E+02  0.51100000000E-03 0.  1.
    9900012    2    1    2    0    0  0.12769334648E+02 -0.10166720203E+02 -0.91795397280E+01  0.72461493207E+02  0.69999899580E+02 0.  0.
         12    1    1    2    0    0 -0.12769334648E+02  0.10166720203E+02  0.91795397280E+01  0.18726506793E+02  0.00000000000E+00 0. -1.
         11    1    3    3    0    0 -0.47648703770E+01 -0.24896900311E+02  0.21646060909E+01  0.25441013238E+02  0.51100000000E-03 0. -1.
        -11    1    3    3    0    0  0.12388747687E+02  0.53131986958E+01 -0.25745310722E+02  0.29060835743E+02  0.51100000000E-03 0.  1.
        -12    1    3    3    0    0  0.51454573377E+01  0.94169814122E+01  0.14401164904E+02  0.17959644226E+02  0.00000000000E+00 0.  1.
</event>
<event>
 7    1  0.1333056E-013  0.7246152E+02  0.7816164E-02  0.1226708E+00
        -11   -1    0    0    0    0  0.00000000000E+00  0.00000000000E+00  0.45593999997E+02  0.45594000000E+02  0.51100000000E-03 0.  1.
         11   -1    0    0    0    0 -0.00000000000E+00 -0.00000000000E+00 -0.45593999997E+02  0.45594000000E+02  0.51100000000E-03 0. -1.
    9900012    2    1    2    0    0  0.39278551097E+01 -0.17693484028E+02  0.47110093072E+01  0.72461520579E+02  0.69999935237E+02 0.  0.
         12    1    1    2    0    0 -0.39278551097E+01  0.17693484028E+02 -0.47110093072E+01  0.18726479421E+02  0.00000000000E+00 0. -1.
         11    1    3    3    0    0 -0.31602475234E+01  0.71875158221E+01 -0.27231067095E+02  0.28340405140E+02  0.51100000000E-03 0. -1.
        -11    1    3    3    0    0  0.10175238897E+02 -0.15262397850E+02  0.12457519066E+02  0.22173544062E+02  0.51100000000E-03 0.  1.
         12    1    3    3    0    0 -0.30871362634E+01 -0.96186019995E+01  0.19484557337E+02  0.21947571377E+02  0.00000000000E+00 0. -1.
</event>
<event>
 7    1  0.1333056E-013  0.7246155E+02  0.7816164E-02  0.1226708E+00
        -11   -1    0    0    0    0  0.00000000000E+00  0.00000000000E+00  0.45593999997E+02  0.45594000000E+02  0.51100000000E-03 0.  1.
         11   -1    0    0    0    0 -0.00000000000E+00 -0.00000000000E+00 -0.45593999997E+02  0.45594000000E+02  0.51100000000E-03 0. -1.
    9900012    2    1    2    0    0  0.16759404295E+02 -0.73232900102E+01  0.40214168262E+01  0.72461548062E+02  0.69999971038E+02 0.  0.
         12    1    1    2    0    0 -0.16759404295E+02  0.73232900102E+01 -0.40214168262E+01  0.18726451938E+02  0.00000000000E+00 0. -1.
         11    1    3    3    0    0 -0.28375223822E+01 -0.15572156499E+02  0.36049888385E+01  0.16233900828E+02  0.51100000000E-03 0. -1.
        -11    1    3    3    0    0  0.17721539984E+02  0.29749276278E+02  0.91765162923E+00  0.34639782090E+02  0.51100000000E-03 0.  1.
        -12    1    3    3    0    0  0.18753866939E+01 -0.21500409789E+02 -0.50122364154E+00  0.21587865144E+02  0.00000000000E+00 0.  1.
</event>
<event>
 8    1  0.1333056E-013  0.7246158E+02  0.7816164E-02  0.1226708E+00
        -11   -1    0    0    0    0  0.00000000000E+00  0.00000000000E+00  0.45593999997E+02  0.45594000000E+02  0.51100000000E-03 0.  1.
         11   -1    0    0    0    0 -0.00000000000E+00 -0.00000000000E+00 -0.45593999997E+02  0.45594000000E+02  0.51100000000E-03 0. -1.
    9900012    2    1    2    0    0 -0.85742601577E+01  0.98765266882E+01  0.13402058173E+02  0.72461578026E+02  0.70000010072E+02 0.  0.
        -24    2    3    3    0    0  0.45706853414E+01 -0.62892893847E+01  0.44451303234E+01  0.49782297653E+02  0.48970109767E+02 0.  0.
         12    1    1    2    0    0  0.85742601577E+01 -0.98765266882E+01 -0.13402058173E+02  0.18726421974E+02  0.00000000000E+00 0. -1.
         11    1    4    4    0    0 -0.45886433665E+01 -0.12283623283E+02 -0.19474077872E+02  0.23477281745E+02  0.51100000000E-03 0. -1.
        -11    1    3    3    0    0 -0.13144945499E+02  0.16165816073E+02  0.89569278492E+01  0.22679280373E+02  0.51100000000E-03 0.  1.
        -12    1    4    4    0    0  0.91593287079E+01  0.59943338980E+01  0.23919208195E+02  0.26305015909E+02  0.00000000000E+00 0.  1.
</event>
<event>
 7    1  0.1333056E-013  0.7246158E+02  0.7816164E-02  0.1226708E+00
        -11   -1    0    0    0    0  0.00000000000E+00  0.00000000000E+00  0.45593999997E+02  0.45594000000E+02  0.51100000000E-03 0.  1.
         11   -1    0    0    0    0 -0.00000000000E+00 -0.00000000000E+00 -0.45593999997E+02  0.45594000000E+02  0.51100000000E-03 0. -1.
    9900012    2    1    2    0    0 -0.91469337712E+01 -0.74832175503E+01  0.14526318728E+02  0.72461578075E+02  0.70000010136E+02 0.  0.
         12    1    1    2    0    0  0.91469337712E+01  0.74832175503E+01 -0.14526318728E+02  0.18726421925E+02  0.00000000000E+00 0. -1.
         11    1    3    3    0    0 -0.43731555088E+01 -0.92149926856E+00 -0.16615701382E+02  0.17206254173E+02  0.51100000000E-03 0. -1.
        -11    1    3    3    0    0  0.12998855778E+02  0.81614694028E+01  0.28043867019E+02  0.31969333932E+02  0.51100000000E-03 0.  1.
         12    1    3    3    0    0 -0.17772634041E+02 -0.14723187684E+02  0.30981530899E+01  0.23285989971E+02  0.00000000000E+00 0. -1.
</event>
<event>
 7    1  0.1333056E-013  0.7246157E+02  0.7816164E-02  0.1226708E+00
        -11   -1    0    0    0    0  0.00000000000E+00  0.00000000000E+00  0.45593999997E+02  0.45594000000E+02  0.51100000000E-03 0.  1.
         11   -1    0    0    0    0 -0.00000000000E+00 -0.00000000000E+00 -0.45593999997E+02  0.45594000000E+02  0.51100000000E-03 0. -1.
    9900012    2    1    2    0    0 -0.92101458645E+01  0.14583139142E+02 -0.72927645572E+01  0.72461570843E+02  0.70000000715E+02 0.  0.
         12    1    1    2    0    0  0.92101458645E+01 -0.14583139142E+02  0.72927645572E+01  0.18726429157E+02  0.00000000000E+00 0. -1.
         11    1    3    3    0    0  0.65975684372E+01  0.32639899663E+01  0.26834439709E+01  0.78346928204E+01  0.51100000000E-03 0. -1.
        -11    1    3    3    0    0  0.12243124625E+02 -0.15280638945E+02 -0.16273165508E+02  0.25459928183E+02  0.51100000000E-03 0.  1.
        -12    1    3    3    0    0 -0.28050838927E+02  0.26599788121E+02  0.62969569800E+01  0.39166949840E+02  0.00000000000E+00 0.  1.
</event>
<event>
 7    1  0.1333056E-013  0.7246149E+02  0.7816164E-02  0.1226708E+00
        -11   -1    0    0    0    0  0.00000000000E+00  0.00000000000E+00  0.45593999997E+02  0.45594000000E+02  0.51100000000E-03 0.  1.
         11   -1    0    0    0    0 -0.00000000000E+00 -0.00000000000E+00 -0.45593999997E+02  0.45594000000E+02  0.51100000000E-03 0. -1.
    9900012    2    1    2    0    0  0.61877507496E+01 -0.16289771056E+02  0.68583712724E+01  0.72461490531E+02  0.69999896093E+02 0.  0.
         12    1    1    2    0    0 -0.61877507496E+01  0.16289771056E+02 -0.68583712724E+01  0.18726509469E+02  0.00000000000E+00 0. -1.
         11    1    3    3    0    0 -0.11249519458E+02 -0.14670649414E+01 -0.27623734707E+02  0.29862596790E+02  0.51100000000E-03 0. -1.
        -11    1    3    3    0    0  0.20504170163E+01 -0.74158256589E+01  0.80957223805E+01  0.11168679477E+02  0.51100000000E-03 0.  1.
         12    1    3    3    0    0  0.15386853192E+02 -0.74068804557E+01  0.26386383599E+02  0.31430214264E+02  0.00000000000E+00 0. -1.
</event>
<event>
 7    1  0.1333056E-013  0.7246160E+02  0.7816164E-02  0.1226708E+00
        -11   -1    0    0    0    0  0.00000000000E+00  0.00000000000E+00  0.45593999997E+02  0.45594000000E+02  0.51100000000E-03 0.  1.
         11   -1    0    0    0    0 -0.00000000000E+00 -0.00000000000E+00 -0.45593999997E+02  0.45594000000E+02  0.51100000000E-03 0. -1.
    9900012    2    1    2    0    0  0.17032001288E+02  0.68229632346E+01 -0.37464874769E+01  0.72461599823E+02  0.70000038466E+02 0.  0.
         12    1    1    2    0    0 -0.17032001288E+02 -0.68229632346E+01  0.37464874769E+01  0.18726400177E+02  0.00000000000E+00 0. -1.
         11    1    3    3    0    0  0.66392917266E+01 -0.19766918605E+02 -0.97694230011E+01  0.23027220671E+02  0.51100000000E-03 0. -1.
        -11    1    3    3    0    0 -0.12979857188E+02  0.20406454494E+02  0.71860775044E+01  0.25229740145E+02  0.51100000000E-03 0.  1.
         12    1    3    3    0    0  0.23372566749E+02  0.61834273461E+01 -0.11631419801E+01  0.24204639007E+02  0.00000000000E+00 0. -1.
</event>
<event>
 7    1  0.1333056E-013  0.7246162E+02  0.7816164E-02  0.1226708E+00
        -11   -1    0    0    0    0  0.00000000000E+00  0.00000000000E+00  0.45593999997E+02  0.45594000000E+02  0.51100000000E-03 0.  1.
         11   -1    0    0    0    0 -0.00000000000E+00 -0.00000000000E+00 -0.45593999997E+02  0.45594000000E+02  0.51100000000E-03 0. -1.
    9900012    2    1    2    0    0 -0.24679476825E+01  0.72323572554E+01  0.17096186481E+02  0.72461618891E+02  0.70000063306E+02 0.  0.
         12    1    1    2    0    0  0.24679476825E+01 -0.72323572554E+01 -0.17096186481E+02  0.18726381109E+02  0.00000000000E+00 0. -1.
         11    1    3    3    0    0 -0.94739746803E+01  0.19153963577E+02 -0.21802515849E+02  0.30528350996E+02  0.51100000000E-03 0. -1.
        -11    1    3    3    0    0  0.18463587896E+01 -0.43345668715E+01  0.52410797253E+01  0.70474412159E+01  0.51100000000E-03 0.  1.
         12    1    3    3    0    0  0.51596682082E+01 -0.75870394498E+01  0.33657622605E+02  0.34885826679E+02  0.00000000000E+00 0. -1.
</event>
<event>
 7    1  0.1333056E-013  0.7246159E+02  0.7816164E-02  0.1226708E+00
        -11   -1    0    0    0    0  0.00000000000E+00  0.00000000000E+00  0.45593999997E+02  0.45594000000E+02  0.51100000000E-03 0.  1.
         11   -1    0    0    0    0 -0.00000000000E+00 -0.00000000000E+00 -0.45593999997E+02  0.45594000000E+02  0.51100000000E-03 0. -1.
    9900012    2    1    2    0    0 -0.71326323280E+01  0.10629958831E+02  0.13667767573E+02  0.72461592467E+02  0.70000028884E+02 0.  0.
         12    1    1    2    0    0  0.71326323280E+01 -0.10629958831E+02 -0.13667767573E+02  0.18726407533E+02  0.00000000000E+00 0. -1.
         11    1    3    3    0    0  0.59082644027E+00  0.31098841194E+02 -0.12149066004E+02  0.33392915484E+02  0.51100000000E-03 0. -1.
        -11    1    3    3    0    0  0.41875840555E+01 -0.15199431110E+02  0.17784188152E+02  0.23766276838E+02  0.51100000000E-03 0.  1.
         12    1    3    3    0    0 -0.11911042824E+02 -0.52694512534E+01  0.80326454258E+01  0.15302400145E+02  0.00000000000E+00 0. -1.
</event>
<event>
 7    1  0.1333056E-013  0.7246168E+02  0.7816164E-02  0.1226708E+00
        -11   -1    0    0    0    0  0.00000000000E+00  0.00000000000E+00  0.45593999997E+02  0.45594000000E+02  0.51100000000E-03 0.  1.
         11   -1    0    0    0    0 -0.00000000000E+00 -0.00000000000E+00 -0.45593999997E+02  0.45594000000E+02  0.51100000000E-03 0. -1.
    9900012    2    1    2    0    0  0.16263084251E+02  0.46575620823E+01  0.80308249509E+01  0.72461683136E+02  0.70000146997E+02 0.  0.
         12    1    1    2    0    0 -0.16263084251E+02 -0.46575620823E+01 -0.80308249509E+01  0.18726316864E+02  0.00000000000E+00 0. -1.
         11    1    3    3    0    0  0.37875717105E+01  0.14929398607E+02  0.29944520928E+02  0.33673535248E+02  0.51100000000E-03 0. -1.
        -11    1    3    3    0    0 -0.60766925793E+01 -0.90162303800E+01 -0.11783879855E+01  0.10936507737E+02  0.51100000000E-03 0.  1.
         12    1    3    3    0    0  0.18552205120E+02 -0.12556061443E+01 -0.20735307992E+02  0.27851640151E+02  0.00000000000E+00 0. -1.
</event>
<event>
 7    1  0.1333056E-013  0.7246161E+02  0.7816164E-02  0.1226708E+00
        -11   -1    0    0    0    0  0.00000000000E+00  0.00000000000E+00  0.45593999997E+02  0.45594000000E+02  0.51100000000E-03 0.  1.
         11   -1    0    0    0    0 -0.00000000000E+00 -0.00000000000E+00 -0.45593999997E+02  0.45594000000E+02  0.51100000000E-03 0. -1.
    9900012    2    1    2    0    0  0.78514714924E+01  0.60581586645E+01 -0.15884925803E+02  0.72461607962E+02  0.70000049069E+02 0.  0.
         12    1    1    2    0    0 -0.78514714924E+01 -0.60581586645E+01  0.15884925803E+02  0.18726392038E+02  0.00000000000E+00 0. -1.
         11    1    3    3    0    0  0.22687274869E+02 -0.10599038165E+02 -0.26453690536E+02  0.36425949463E+02  0.51100000000E-03 0. -1.
        -11    1    3    3    0    0  0.47095384135E+01  0.13023823275E+02  0.79904772990E+01  0.15988979095E+02  0.51100000000E-03 0.  1.
         12    1    3    3    0    0 -0.19545341790E+02  0.36333735544E+01  0.25782874349E+01  0.20046679405E+02  0.00000000000E+00 0. -1.
</event>
<event>
 7    1  0.1333056E-013  0.7246154E+02  0.7816164E-02  0.1226708E+00
        -11   -1    0    0    0    0  0.00000000000E+00  0.00000000000E+00  0.45593999997E+02  0.45594000000E+02  0.51100000000E-03 0.  1.
         11   -1    0    0    0    0 -0.00000000000E+00 -0.00000000000E+00 -0.45593999997E+02  0.45594000000E+02  0.51100000000E-03 0. -1.
    9900012    2    1    2    0    0  0.68505722737E+01 -0.46249975544E-01  0.17428358566E+02  0.72461543799E+02  0.69999965485E+02 0.  0.
         12    1    1    2    0    0 -0.68505722737E+01  0.46249975544E-01 -0.17428358566E+02  0.18726456201E+02  0.00000000000E+00 0. -1.
         11    1    3    3    0    0 -0.31287110242E+01 -0.16914877607E+02 -0.14337590592E+02  0.22393490602E+02  0.51100000000E-03 0. -1.
        -11    1    3    3    0    0 -0.44219973013E+01  0.21356717679E+02  0.11070142525E+02  0.24458362699E+02  0.51100000000E-03 0.  1.
        -12    1    3    3    0    0  0.14401280599E+02 -0.44880900478E+01  0.20695806633E+02  0.25609690497E+02  0.00000000000E+00 0.  1.
</event>
<event>
 7    1  0.1333056E-013  0.7246159E+02  0.7816164E-02  0.1226708E+00
        -11   -1    0    0    0    0  0.00000000000E+00  0.00000000000E+00  0.45593999997E+02  0.45594000000E+02  0.51100000000E-03 0. -1.
         11   -1    0    0    0    0 -0.00000000000E+00 -0.00000000000E+00 -0.45593999997E+02  0.45594000000E+02  0.51100000000E-03 0.  1.
    9900012    2    1    2    0    0  0.80747911581E+01 -0.11102448315E+01 -0.16859519662E+02  0.72461593536E+02  0.70000030277E+02 0.  0.
         12    1    1    2    0    0 -0.80747911581E+01  0.11102448315E+01  0.16859519662E+02  0.18726406464E+02  0.00000000000E+00 0. -1.
         11    1    3    3    0    0 -0.42630314048E+01  0.19419696650E+02  0.17793300798E+02  0.26681446893E+02  0.51100000000E-03 0. -1.
        -11    1    3    3    0    0  0.88231383327E+01  0.98914500954E-01 -0.12563719452E+02  0.15352674061E+02  0.51100000000E-03 0.  1.
         12    1    3    3    0    0  0.35146842302E+01 -0.20628855982E+02 -0.22089101008E+02  0.30427472582E+02  0.00000000000E+00 0. -1.
</event>
<event>
 7    1  0.1333056E-013  0.7246158E+02  0.7816164E-02  0.1226708E+00
        -11   -1    0    0    0    0  0.00000000000E+00  0.00000000000E+00  0.45593999997E+02  0.45594000000E+02  0.51100000000E-03 0. -1.
         11   -1    0    0    0    0 -0.00000000000E+00 -0.00000000000E+00 -0.45593999997E+02  0.45594000000E+02  0.51100000000E-03 0.  1.
    9900012    2    1    2    0    0 -0.89053678920E+01 -0.13656688633E+02 -0.92123931391E+01  0.72461577249E+02  0.70000009059E+02 0.  0.
         12    1    1    2    0    0  0.89053678920E+01  0.13656688633E+02  0.92123931391E+01  0.18726422751E+02  0.00000000000E+00 0. -1.
         11    1    3    3    0    0 -0.88095717910E+01  0.77259595372E+00  0.27658848024E+01  0.92658285463E+01  0.51100000000E-03 0. -1.
        -11    1    3    3    0    0  0.23225208601E+02 -0.16345289714E+02 -0.23731477872E+02  0.37010293874E+02  0.51100000000E-03 0.  1.
        -12    1    3    3    0    0 -0.23321004702E+02  0.19160051273E+01  0.11753199931E+02  0.26185454828E+02  0.00000000000E+00 0.  1.
</event>
<event>
 7    1  0.1444863E-013  0.7246166E+02  0.7816164E-02  0.1226708E+00
        -11   -1    0    0    0    0  0.00000000000E+00  0.00000000000E+00  0.45593999997E+02  0.45594000000E+02  0.51100000000E-03 0. -1.
         11   -1    0    0    0    0 -0.00000000000E+00 -0.00000000000E+00 -0.45593999997E+02  0.45594000000E+02  0.51100000000E-03 0.  1.
    9900012    2    1    2    0    0 -0.11382306440E+02  0.75262350194E+01 -0.12824763507E+02  0.72461663666E+02  0.70000121634E+02 0.  0.
         12    1    1    2    0    0  0.11382306440E+02 -0.75262350194E+01  0.12824763507E+02  0.18726336334E+02  0.00000000000E+00 0. -1.
         11    1    3    3    0    0 -0.18098973225E+01  0.48531998137E+01  0.23867002425E+02  0.24422593674E+02  0.51100000000E-03 0. -1.
        -11    1    3    3    0    0 -0.17093313789E+02  0.10533078479E+02 -0.22466323299E+02  0.30130761713E+02  0.51100000000E-03 0.  1.
         12    1    3    3    0    0  0.75209046716E+01 -0.78600432737E+01 -0.14225442632E+02  0.17908308279E+02  0.00000000000E+00 0. -1.
</event>
<event>
 7    1  0.1333056E-013  0.7246159E+02  0.7816164E-02  0.1226708E+00
        -11   -1    0    0    0    0  0.00000000000E+00  0.00000000000E+00  0.45593999997E+02  0.45594000000E+02  0.51100000000E-03 0. -1.
         11   -1    0    0    0    0 -0.00000000000E+00 -0.00000000000E+00 -0.45593999997E+02  0.45594000000E+02  0.51100000000E-03 0.  1.
    9900012    2    1    2    0    0 -0.15097186116E+02 -0.19941092770E+00 -0.11077620124E+02  0.72461589213E+02  0.70000024646E+02 0.  0.
         12    1    1    2    0    0  0.15097186116E+02  0.19941092770E+00  0.11077620124E+02  0.18726410787E+02  0.00000000000E+00 0. -1.
         11    1    3    3    0    0  0.17100155216E+02 -0.11706649600E+01  0.42547256564E+01  0.17660363969E+02  0.51100000000E-03 0. -1.
        -11    1    3    3    0    0 -0.13031518534E+02 -0.61729946880E+01 -0.27464502789E+02  0.31019755841E+02  0.51100000000E-03 0.  1.
         12    1    3    3    0    0 -0.19165822798E+02  0.71442487204E+01  0.12132157009E+02  0.23781469403E+02  0.00000000000E+00 0. -1.
</event>
<event>
 7    1  0.1333056E-013  0.7246145E+02  0.7816164E-02  0.1226708E+00
        -11   -1    0    0    0    0  0.00000000000E+00  0.00000000000E+00  0.45593999997E+02  0.45594000000E+02  0.51100000000E-03 0.  1.
         11   -1    0    0    0    0 -0.00000000000E+00 -0.00000000000E+00 -0.45593999997E+02  0.45594000000E+02  0.51100000000E-03 0. -1.
    9900012    2    1    2    0    0 -0.29789561945E+01  0.15409224130E+02  0.10215933273E+02  0.72461450373E+02  0.69999843780E+02 0.  0.
         12    1    1    2    0    0  0.29789561945E+01 -0.15409224130E+02 -0.10215933273E+02  0.18726549627E+02  0.00000000000E+00 0. -1.
         11    1    3    3    0    0  0.11080187195E+02 -0.79774687515E+01 -0.11613124422E+02  0.17924151725E+02  0.51100000000E-03 0. -1.
        -11    1    3    3    0    0 -0.23240498285E+02  0.26061604286E+02  0.51298079454E+01  0.35293666689E+02  0.51100000000E-03 0.  1.
        -12    1    3    3    0    0  0.91813548958E+01 -0.26749114050E+01  0.16699249750E+02  0.19243631959E+02  0.00000000000E+00 0.  1.
</event>
<event>
 7    1  0.1333056E-013  0.7246151E+02  0.7816164E-02  0.1226708E+00
        -11   -1    0    0    0    0  0.00000000000E+00  0.00000000000E+00  0.45593999997E+02  0.45594000000E+02  0.51100000000E-03 0.  1.
         11   -1    0    0    0    0 -0.00000000000E+00 -0.00000000000E+00 -0.45593999997E+02  0.45594000000E+02  0.51100000000E-03 0. -1.
    9900012    2    1    2    0    0  0.82375290611E+00 -0.10959320898E+02  0.15162321586E+02  0.72461513963E+02  0.69999926619E+02 0.  0.
         12    1    1    2    0    0 -0.82375290611E+00  0.10959320898E+02 -0.15162321586E+02  0.18726486037E+02  0.00000000000E+00 0. -1.
         11    1    3    3    0    0 -0.88033909357E+01 -0.17074460593E+02 -0.15537581737E+02  0.24707354027E+02  0.51100000000E-03 0. -1.
        -11    1    3    3    0    0 -0.60675624338E+01 -0.67495111970E+01  0.25117488849E+02  0.26706917861E+02  0.51100000000E-03 0.  1.
         12    1    3    3    0    0  0.15694706276E+02  0.12864650892E+02  0.55824144749E+01  0.21047242076E+02  0.00000000000E+00 0. -1.
</event>
<event>
 7    1  0.1333056E-013  0.7246159E+02  0.7816164E-02  0.1226708E+00
        -11   -1    0    0    0    0  0.00000000000E+00  0.00000000000E+00  0.45593999997E+02  0.45594000000E+02  0.51100000000E-03 0.  1.
         11   -1    0    0    0    0 -0.00000000000E+00 -0.00000000000E+00 -0.45593999997E+02  0.45594000000E+02  0.51100000000E-03 0. -1.
    9900012    2    1    2    0    0  0.13054124590E+02  0.52017257637E+01  0.12377810094E+02  0.72461593445E+02  0.70000030158E+02 0.  0.
         12    1    1    2    0    0 -0.13054124590E+02 -0.52017257637E+01 -0.12377810094E+02  0.18726406555E+02  0.00000000000E+00 0. -1.
         11    1    3    3    0    0  0.10808288960E+02 -0.18193383206E+02  0.21241327876E+02  0.29983534030E+02  0.51100000000E-03 0. -1.
        -11    1    3    3    0    0 -0.46172828703E+01  0.25058620667E+02  0.58626373399E+01  0.26146209815E+02  0.51100000000E-03 0.  1.
         12    1    3    3    0    0  0.68631185005E+01 -0.16635116970E+01 -0.14726155122E+02  0.16331849601E+02  0.00000000000E+00 0. -1.
</event>
<event>
 7    1  0.2142211E-013  0.7246171E+02  0.7816164E-02  0.1226708E+00
        -11   -1    0    0    0    0  0.00000000000E+00  0.00000000000E+00  0.45593999997E+02  0.45594000000E+02  0.51100000000E-03 0. -1.
         11   -1    0    0    0    0 -0.00000000000E+00 -0.00000000000E+00 -0.45593999997E+02  0.45594000000E+02  0.51100000000E-03 0.  1.
    9900012    2    1    2    0    0  0.66056816852E+01  0.36836523747E+00 -0.17518655115E+02  0.72461708308E+02  0.70000179789E+02 0.  0.
         12    1    1    2    0    0 -0.66056816852E+01 -0.36836523747E+00  0.17518655115E+02  0.18726291692E+02  0.00000000000E+00 0. -1.
         11    1    3    3    0    0 -0.18225602262E+02 -0.23028474038E+01 -0.29576718681E+01  0.18607082177E+02  0.51100000000E-03 0. -1.
        -11    1    3    3    0    0  0.19241423895E+02  0.23293568778E+02 -0.58153843803E+01  0.30767538668E+02  0.51100000000E-03 0.  1.
        -12    1    3    3    0    0  0.55898600525E+01 -0.20622356137E+02 -0.87455988667E+01  0.23087087464E+02  0.00000000000E+00 0.  1.
</event>
<event>
 7    1  0.1333056E-013  0.7246155E+02  0.7816164E-02  0.1226708E+00
        -11   -1    0    0    0    0  0.00000000000E+00  0.00000000000E+00  0.45593999997E+02  0.45594000000E+02  0.51100000000E-03 0. -1.
         11   -1    0    0    0    0 -0.00000000000E+00 -0.00000000000E+00 -0.45593999997E+02  0.45594000000E+02  0.51100000000E-03 0.  1.
    9900012    2    1    2    0    0 -0.10218230865E+02 -0.15121206243E-02 -0.15692920332E+02  0.72461548312E+02  0.69999971364E+02 0.  0.
         12    1    1    2    0    0  0.10218230865E+02  0.15121206243E-02  0.15692920332E+02  0.18726451688E+02  0.00000000000E+00 0. -1.
         11    1    3    3    0    0 -0.51880672136E+01 -0.19604530133E+01  0.17101325770E+02  0.17978174568E+02  0.51100000000E-03 0. -1.
        -11    1    3    3    0    0 -0.10617597874E+02 -0.12087633188E+02 -0.35637873458E+02  0.39101180105E+02  0.51100000000E-03 0.  1.
        -12    1    3    3    0    0  0.55874342233E+01  0.14046574081E+02  0.28436273562E+01  0.15382193639E+02  0.00000000000E+00 0.  1.
</event>
<event>
 7    1  0.1333056E-013  0.7246162E+02  0.7816164E-02  0.1226708E+00
        -11   -1    0    0    0    0  0.00000000000E+00  0.00000000000E+00  0.45593999997E+02  0.45594000000E+02  0.51100000000E-03 0. -1.
         11   -1    0    0    0    0 -0.00000000000E+00 -0.00000000000E+00 -0.45593999997E+02  0.45594000000E+02  0.51100000000E-03 0.  1.
    9900012    2    1    2    0    0  0.55354002760E+01  0.10028994590E+01 -0.17861436852E+02  0.72461617809E+02  0.70000061897E+02 0.  0.
         12    1    1    2    0    0 -0.55354002760E+01 -0.10028994590E+01  0.17861436852E+02  0.18726382191E+02  0.00000000000E+00 0. -1.
         11    1    3    3    0    0 -0.16503509448E+02 -0.80370768917E+01 -0.85083713653E+01  0.20232469266E+02  0.51100000000E-03 0. -1.
        -11    1    3    3    0    0  0.22560354957E+02  0.10188309632E+02  0.14269769085E+02  0.28572671890E+02  0.51100000000E-03 0.  1.
         12    1    3    3    0    0 -0.52144523321E+00 -0.11483332812E+01 -0.23622834571E+02  0.23656476653E+02  0.00000000000E+00 0. -1.
</event>
<event>
 7    1  0.1333056E-013  0.7246158E+02  0.7816164E-02  0.1226708E+00
        -11   -1    0    0    0    0  0.00000000000E+00  0.00000000000E+00  0.45593999997E+02  0.45594000000E+02  0.51100000000E-03 0.  1.
         11   -1    0    0    0    0 -0.00000000000E+00 -0.00000000000E+00 -0.45593999997E+02  0.45594000000E+02  0.51100000000E-03 0. -1.
    9900012    2    1    2    0    0 -0.11933214403E+02  0.26592929082E+01  0.14184682217E+02  0.72461584049E+02  0.70000017918E+02 0.  0.
         12    1    1    2    0    0  0.11933214403E+02 -0.26592929082E+01 -0.14184682217E+02  0.18726415951E+02  0.00000000000E+00 0. -1.
         11    1    3    3    0    0 -0.19276126392E+02 -0.29821526167E+02  0.11580683903E+02  0.37349761867E+02  0.51100000000E-03 0. -1.
        -11    1    3    3    0    0  0.73784633574E+01  0.12078214360E+02  0.38600871889E+01  0.14670557488E+02  0.51100000000E-03 0.  1.
         12    1    3    3    0    0 -0.35551369159E-01  0.20402604715E+02 -0.12560888749E+01  0.20441264695E+02  0.00000000000E+00 0. -1.
</event>
<event>
 7    1  0.1333056E-013  0.7246161E+02  0.7816164E-02  0.1226708E+00
        -11   -1    0    0    0    0  0.00000000000E+00  0.00000000000E+00  0.45593999997E+02  0.45594000000E+02  0.51100000000E-03 0.  1.
         11   -1    0    0    0    0 -0.00000000000E+00 -0.00000000000E+00 -0.45593999997E+02  0.45594000000E+02  0.51100000000E-03 0. -1.
    9900012    2    1    2    0    0  0.61444073819E+01 -0.11770179233E+02  0.13205558418E+02  0.72461611283E+02  0.70000053396E+02 0.  0.
         12    1    1    2    0    0 -0.61444073819E+01  0.11770179233E+02 -0.13205558418E+02  0.18726388717E+02  0.00000000000E+00 0. -1.
         11    1    3    3    0    0 -0.91679808332E+01 -0.17457286216E+02 -0.13362799259E+02  0.23819595271E+02  0.51100000000E-03 0. -1.
        -11    1    3    3    0    0  0.25340502772E+02  0.97087589842E+00  0.72571845172E+01  0.26377081114E+02  0.51100000000E-03 0.  1.
        -12    1    3    3    0    0 -0.10028114557E+02  0.47162310848E+01  0.19311173159E+02  0.22264934898E+02  0.00000000000E+00 0.  1.
</event>
<event>
 7    1  0.1333056E-013  0.7246157E+02  0.7816164E-02  0.1226708E+00
        -11   -1    0    0    0    0  0.00000000000E+00  0.00000000000E+00  0.45593999997E+02  0.45594000000E+02  0.51100000000E-03 0. -1.
         11   -1    0    0    0    0 -0.00000000000E+00 -0.00000000000E+00 -0.45593999997E+02  0.45594000000E+02  0.51100000000E-03 0.  1.
    9900012    2    1    2    0    0 -0.30250088059E+01 -0.15911545633E+02 -0.93995237980E+01  0.72461574544E+02  0.70000005536E+02 0.  0.
         12    1    1    2    0    0  0.30250088059E+01  0.15911545633E+02  0.93995237980E+01  0.18726425456E+02  0.00000000000E+00 0. -1.
         11    1    3    3    0    0 -0.22302051609E+02  0.36414789257E+01 -0.25221062384E+01  0.22737697660E+02  0.51100000000E-03 0. -1.
        -11    1    3    3    0    0  0.26769889225E+02 -0.33351407428E+01  0.60812348355E+01  0.27653780036E+02  0.51100000000E-03 0.  1.
        -12    1    3    3    0    0 -0.74928464215E+01 -0.16217883816E+02 -0.12958652395E+02  0.22070096848E+02  0.00000000000E+00 0.  1.
</event>
<event>
 7    1  0.1333056E-013  0.7246160E+02  0.7816164E-02  0.1226708E+00
        -11   -1    0    0    0    0  0.00000000000E+00  0.00000000000E+00  0.45593999997E+02  0.45594000000E+02  0.51100000000E-03 0.  1.
         11   -1    0    0    0    0 -0.00000000000E+00 -0.00000000000E+00 -0.45593999997E+02  0.45594000000E+02  0.51100000000E-03 0. -1.
    9900012    2    1    2    0    0 -0.63688309287E+01 -0.15407909318E+02  0.85271607800E+01  0.72461597571E+02  0.70000035533E+02 0.  0.
         12    1    1    2    0    0  0.63688309287E+01  0.15407909318E+02 -0.85271607800E+01  0.18726402429E+02  0.00000000000E+00 0. -1.
         11    1    3    3    0    0 -0.20744907680E+02  0.89412648773E+01 -0.44294676853E+01  0.23019939107E+02  0.51100000000E-03 0. -1.
        -11    1    3    3    0    0  0.12875555921E+02  0.61888020373E+01  0.12313457352E+02  0.18860075375E+02  0.51100000000E-03 0.  1.
        -12    1    3    3    0    0  0.15005208301E+01 -0.30537976233E+02  0.64317111347E+00  0.30581583089E+02  0.00000000000E+00 0.  1.
</event>
<event>
 7    1  0.1333056E-013  0.7246140E+02  0.7816164E-02  0.1226708E+00
        -11   -1    0    0    0    0  0.00000000000E+00  0.00000000000E+00  0.45593999997E+02  0.45594000000E+02  0.51100000000E-03 0.  1.
         11   -1    0    0    0    0 -0.00000000000E+00 -0.00000000000E+00 -0.45593999997E+02  0.45594000000E+02  0.51100000000E-03 0. -1.
    9900012    2    1    2    0    0 -0.17670666024E+02 -0.65679249495E+00  0.61645570102E+01  0.72461399207E+02  0.69999777127E+02 0.  0.
         12    1    1    2    0    0  0.17670666024E+02  0.65679249495E+00 -0.61645570102E+01  0.18726600793E+02  0.00000000000E+00 0. -1.
         11    1    3    3    0    0 -0.24886149680E+00  0.57682626816E+00 -0.93204635414E+01  0.93416112891E+01  0.51100000000E-03 0.  1.
        -11    1    3    3    0    0  0.98519960097E+01 -0.20294032849E+02  0.19220502785E+02  0.29636756270E+02  0.51100000000E-03 0. -1.
        -12    1    3    3    0    0 -0.27273800537E+02  0.19060414086E+02 -0.37354822332E+01  0.33483031648E+02  0.00000000000E+00 0.  1.
</event>
<event>
 7    1  0.1333056E-013  0.7246154E+02  0.7816164E-02  0.1226708E+00
        -11   -1    0    0    0    0  0.00000000000E+00  0.00000000000E+00  0.45593999997E+02  0.45594000000E+02  0.51100000000E-03 0. -1.
         11   -1    0    0    0    0 -0.00000000000E+00 -0.00000000000E+00 -0.45593999997E+02  0.45594000000E+02  0.51100000000E-03 0.  1.
    9900012    2    1    2    0    0 -0.12414186460E+02 -0.12335264571E+02 -0.66640572141E+01  0.72461536478E+02  0.69999955948E+02 0.  0.
         12    1    1    2    0    0  0.12414186460E+02  0.12335264571E+02  0.66640572141E+01  0.18726463522E+02  0.00000000000E+00 0. -1.
         11    1    3    3    0    0 -0.66845353980E+00 -0.19241644388E+02 -0.29573947430E+02  0.35288894510E+02  0.51100000000E-03 0.  1.
        -11    1    3    3    0    0 -0.11594174785E+02  0.27708062227E+01  0.28106266555E+02  0.30529731018E+02  0.51100000000E-03 0. -1.
         12    1    3    3    0    0 -0.15155813513E+00  0.41355735949E+01 -0.51963763400E+01  0.66429109503E+01  0.00000000000E+00 0. -1.
</event>
<event>
 7    1  0.1333056E-013  0.7246157E+02  0.7816164E-02  0.1226708E+00
        -11   -1    0    0    0    0  0.00000000000E+00  0.00000000000E+00  0.45593999997E+02  0.45594000000E+02  0.51100000000E-03 0. -1.
         11   -1    0    0    0    0 -0.00000000000E+00 -0.00000000000E+00 -0.45593999997E+02  0.45594000000E+02  0.51100000000E-03 0.  1.
    9900012    2    1    2    0    0  0.13599615881E+02  0.53907713740E+01 -0.11690560299E+02  0.72461570329E+02  0.70000000045E+02 0.  0.
         12    1    1    2    0    0 -0.13599615881E+02 -0.53907713740E+01  0.11690560299E+02  0.18726429671E+02  0.00000000000E+00 0. -1.
         11    1    3    3    0    0  0.36718705247E+02  0.72196508152E+01 -0.18226642846E+02  0.41624478166E+02  0.51100000000E-03 0. -1.
        -11    1    3    3    0    0 -0.22396065462E+02 -0.40853063133E+01 -0.11494326022E+01  0.22794619352E+02  0.51100000000E-03 0.  1.
        -12    1    3    3    0    0 -0.72302390447E+00  0.22564268721E+01  0.76855151492E+01  0.80424728103E+01  0.00000000000E+00 0.  1.
</event>
<event>
 7    1  0.1333056E-013  0.7246156E+02  0.7816164E-02  0.1226708E+00
        -11   -1    0    0    0    0  0.00000000000E+00  0.00000000000E+00  0.45593999997E+02  0.45594000000E+02  0.51100000000E-03 0.  1.
         11   -1    0    0    0    0 -0.00000000000E+00 -0.00000000000E+00 -0.45593999997E+02  0.45594000000E+02  0.51100000000E-03 0. -1.
    9900012    2    1    2    0    0  0.35430712551E+01  0.15792728945E+02  0.94189084081E+01  0.72461562084E+02  0.69999989304E+02 0.  0.
         12    1    1    2    0    0 -0.35430712551E+01 -0.15792728945E+02 -0.94189084081E+01  0.18726437916E+02  0.00000000000E+00 0. -1.
         11    1    3    3    0    0  0.29739191834E+02  0.63609251438E+01  0.26095186486E+01  0.30523605414E+02  0.51100000000E-03 0. -1.
        -11    1    3    3    0    0 -0.11662762706E+02 -0.78038434907E+01 -0.68104386694E+01  0.15598143553E+02  0.51100000000E-03 0.  1.
         12    1    3    3    0    0 -0.14533357873E+02  0.17235647291E+02  0.13619828429E+02  0.26339813117E+02  0.00000000000E+00 0. -1.
</event>
<event>
 7    1  0.1333056E-013  0.7246157E+02  0.7816164E-02  0.1226708E+00
        -11   -1    0    0    0    0  0.00000000000E+00  0.00000000000E+00  0.45593999997E+02  0.45594000000E+02  0.51100000000E-03 0.  1.
         11   -1    0    0    0    0 -0.00000000000E+00 -0.00000000000E+00 -0.45593999997E+02  0.45594000000E+02  0.51100000000E-03 0. -1.
    9900012    2    1    2    0    0  0.12968194272E+02 -0.75121853111E+01  0.11228192833E+02  0.72461566673E+02  0.69999995283E+02 0.  0.
         12    1    1    2    0    0 -0.12968194272E+02  0.75121853111E+01 -0.11228192833E+02  0.18726433327E+02  0.00000000000E+00 0. -1.
         11    1    3    3    0    0  0.47417580865E+01  0.19608550405E+01 -0.12708724585E+02  0.13705506305E+02  0.51100000000E-03 0. -1.
        -11    1    3    3    0    0  0.13814586249E+02 -0.13297969892E+02  0.38324895259E+02  0.42854129245E+02  0.51100000000E-03 0.  1.
        -12    1    3    3    0    0 -0.55881500631E+01  0.38249295405E+01 -0.14387977841E+02  0.15901931124E+02  0.00000000000E+00 0.  1.
</event>
<event>
 7    1  0.1333056E-013  0.7246158E+02  0.7816164E-02  0.1226708E+00
        -11   -1    0    0    0    0  0.00000000000E+00  0.00000000000E+00  0.45593999997E+02  0.45594000000E+02  0.51100000000E-03 0.  1.
         11   -1    0    0    0    0 -0.00000000000E+00 -0.00000000000E+00 -0.45593999997E+02  0.45594000000E+02  0.51100000000E-03 0. -1.
    9900012    2    1    2    0    0 -0.77077162481E+01 -0.28309600771E+01  0.16830198822E+02  0.72461579703E+02  0.70000012257E+02 0.  0.
         12    1    1    2    0    0  0.77077162481E+01  0.28309600771E+01 -0.16830198822E+02  0.18726420297E+02  0.00000000000E+00 0. -1.
         11    1    3    3    0    0  0.83054119167E+01  0.39210858707E+01 -0.22299371475E+02  0.24116731743E+02  0.51100000000E-03 0. -1.
        -11    1    3    3    0    0 -0.12514422209E+02 -0.14563938530E+02  0.22040000365E+02  0.29231501587E+02  0.51100000000E-03 0.  1.
        -12    1    3    3    0    0 -0.34987059561E+01  0.78118925821E+01  0.17089569933E+02  0.19113346373E+02  0.00000000000E+00 0.  1.
</event>
<event>
 7    1  0.1333056E-013  0.7246152E+02  0.7816164E-02  0.1226708E+00
        -11   -1    0    0    0    0  0.00000000000E+00  0.00000000000E+00  0.45593999997E+02  0.45594000000E+02  0.51100000000E-03 0. -1.
         11   -1    0    0    0    0 -0.00000000000E+00 -0.00000000000E+00 -0.45593999997E+02  0.45594000000E+02  0.51100000000E-03 0.  1.
    9900012    2    1    2    0    0 -0.90357077585E+01 -0.13961079292E+02 -0.86096095509E+01  0.72461518047E+02  0.69999931938E+02 0.  0.
         12    1    1    2    0    0  0.90357077585E+01  0.13961079292E+02  0.86096095509E+01  0.18726481953E+02  0.00000000000E+00 0. -1.
         11    1    3    3    0    0 -0.16953693443E+02  0.12869102783E+02 -0.37557375271E+01  0.21613585830E+02  0.51100000000E-03 0. -1.
        -11    1    3    3    0    0  0.20101205815E+01  0.14942980310E+01 -0.18632875983E+02  0.18800467521E+02  0.51100000000E-03 0.  1.
         12    1    3    3    0    0  0.59078651025E+01 -0.28324480106E+02  0.13779003959E+02  0.32047464696E+02  0.00000000000E+00 0. -1.
</event>
<event>
 7    1  0.1333056E-013  0.7246157E+02  0.7816164E-02  0.1226708E+00
        -11   -1    0    0    0    0  0.00000000000E+00  0.00000000000E+00  0.45593999997E+02  0.45594000000E+02  0.51100000000E-03 0.  1.
         11   -1    0    0    0    0 -0.00000000000E+00 -0.00000000000E+00 -0.45593999997E+02  0.45594000000E+02  0.51100000000E-03 0. -1.
    9900012    2    1    2    0    0  0.21738833861E+01 -0.39953783288E+01  0.18165635025E+02  0.72461571808E+02  0.70000001971E+02 0.  0.
         12    1    1    2    0    0 -0.21738833861E+01  0.39953783288E+01 -0.18165635025E+02  0.18726428192E+02  0.00000000000E+00 0. -1.
         11    1    3    3    0    0  0.35648452650E+01  0.30801705326E+02  0.16678552237E+02  0.35208341025E+02  0.51100000000E-03 0. -1.
        -11    1    3    3    0    0 -0.67120053795E+01 -0.21381440217E+02 -0.16951011695E+01  0.22474215675E+02  0.51100000000E-03 0.  1.
         12    1    3    3    0    0  0.53210435006E+01 -0.13415643438E+02  0.31821839580E+01  0.14779015107E+02  0.00000000000E+00 0. -1.
</event>
<event>
 7    1  0.1333056E-013  0.7246159E+02  0.7816164E-02  0.1226708E+00
        -11   -1    0    0    0    0  0.00000000000E+00  0.00000000000E+00  0.45593999997E+02  0.45594000000E+02  0.51100000000E-03 0.  1.
         11   -1    0    0    0    0 -0.00000000000E+00 -0.00000000000E+00 -0.45593999997E+02  0.45594000000E+02  0.51100000000E-03 0. -1.
    9900012    2    1    2    0    0  0.76665177446E+01 -0.77835564174E+01  0.15209174945E+02  0.72461594917E+02  0.70000032075E+02 0.  0.
         12    1    1    2    0    0 -0.76665177446E+01  0.77835564174E+01 -0.15209174945E+02  0.18726405083E+02  0.00000000000E+00 0. -1.
         11    1    3    3    0    0  0.27070809413E+02  0.39729180137E+01 -0.92790861521E+01  0.28891421562E+02  0.51100000000E-03 0. -1.
        -11    1    3    3    0    0 -0.23788472934E+02 -0.91708298985E+00  0.19832640842E+02  0.30984933899E+02  0.51100000000E-03 0.  1.
         12    1    3    3    0    0  0.43841812654E+01 -0.10839391441E+02  0.46556202550E+01  0.12585239455E+02  0.00000000000E+00 0. -1.
</event>
<event>
 7    1  0.1333056E-013  0.7246150E+02  0.7816164E-02  0.1226708E+00
        -11   -1    0    0    0    0  0.00000000000E+00  0.00000000000E+00  0.45593999997E+02  0.45594000000E+02  0.51100000000E-03 0.  1.
         11   -1    0    0    0    0 -0.00000000000E+00 -0.00000000000E+00 -0.45593999997E+02  0.45594000000E+02  0.51100000000E-03 0. -1.
    9900012    2    1    2    0    0  0.65208260492E+01 -0.58507386081E+01  0.16550819559E+02  0.72461496250E+02  0.69999903544E+02 0.  0.
         12    1    1    2    0    0 -0.65208260492E+01  0.58507386081E+01 -0.16550819559E+02  0.18726503750E+02  0.00000000000E+00 0. -1.
         11    1    3    3    0    0  0.96050117677E+01  0.13244908597E+02 -0.14471445168E+02  0.21842769520E+02  0.51100000000E-03 0. -1.
        -11    1    3    3    0    0 -0.48534469560E+01 -0.43560071708E+01  0.34713888237E+02  0.35321166212E+02  0.51100000000E-03 0.  1.
         12    1    3    3    0    0  0.17692612375E+01 -0.14739640034E+02 -0.36916235101E+01  0.15297560518E+02  0.00000000000E+00 0. -1.
</event>
<event>
 7    1  0.1333056E-013  0.7246153E+02  0.7816164E-02  0.1226708E+00
        -11   -1    0    0    0    0  0.00000000000E+00  0.00000000000E+00  0.45593999997E+02  0.45594000000E+02  0.51100000000E-03 0.  1.
         11   -1    0    0    0    0 -0.00000000000E+00 -0.00000000000E+00 -0.45593999997E+02  0.45594000000E+02  0.51100000000E-03 0. -1.
    9900012    2    1    2    0    0  0.12972333536E+02  0.83111751298E+01  0.10645351438E+02  0.72461532724E+02  0.69999951057E+02 0.  0.
         12    1    1    2    0    0 -0.12972333536E+02 -0.83111751298E+01 -0.10645351438E+02  0.18726467276E+02  0.00000000000E+00 0. -1.
         11    1    3    3    0    0  0.35250700798E+01  0.43116375541E+01 -0.71052137301E+01  0.90277571897E+01  0.51100000000E-03 0. -1.
        -11    1    3    3    0    0 -0.52268774566E+01 -0.10759674581E+02  0.34629344896E+02  0.36637172015E+02  0.51100000000E-03 0.  1.
        -12    1    3    3    0    0  0.14674140913E+02  0.14759212157E+02 -0.16878779728E+02  0.26796603519E+02  0.00000000000E+00 0.  1.
</event>
<event>
 8    1  0.1333056E-013  0.7246153E+02  0.7816164E-02  0.1226708E+00
        -11   -1    0    0    0    0  0.00000000000E+00  0.00000000000E+00  0.45593999997E+02  0.45594000000E+02  0.51100000000E-03 0. -1.
         11   -1    0    0    0    0 -0.00000000000E+00 -0.00000000000E+00 -0.45593999997E+02  0.45594000000E+02  0.51100000000E-03 0.  1.
    9900012    2    1    2    0    0 -0.90104389242E+01 -0.10937397532E+02 -0.12241973051E+02  0.72461532672E+02  0.69999950990E+02 0.  0.
        -24    2    3    3    0    0 -0.14347951010E+02 -0.11879080386E+02  0.36779723530E+01  0.55644265838E+02  0.52304689952E+02 0.  0.
         12    1    1    2    0    0  0.90104389242E+01  0.10937397532E+02  0.12241973051E+02  0.18726467328E+02  0.00000000000E+00 0. -1.
         11    1    4    4    0    0  0.70087155701E+01 -0.44208330481E+01  0.23903765938E+02  0.25299325783E+02  0.51100000000E-03 0. -1.
        -11    1    3    3    0    0  0.53375120858E+01  0.94168285344E+00 -0.15919945404E+02  0.16817266835E+02  0.51100000000E-03 0.  1.
        -12    1    4    4    0    0 -0.21356666580E+02 -0.74582473378E+01 -0.20225793585E+02  0.30344940055E+02  0.00000000000E+00 0.  1.
</event>
<event>
 7    1  0.1333056E-013  0.7246156E+02  0.7816164E-02  0.1226708E+00
        -11   -1    0    0    0    0  0.00000000000E+00  0.00000000000E+00  0.45593999997E+02  0.45594000000E+02  0.51100000000E-03 0.  1.
         11   -1    0    0    0    0 -0.00000000000E+00 -0.00000000000E+00 -0.45593999997E+02  0.45594000000E+02  0.51100000000E-03 0. -1.
    9900012    2    1    2    0    0  0.13643095428E+01  0.74378353534E+01  0.17131751235E+02  0.72461557848E+02  0.69999983787E+02 0.  0.
         12    1    1    2    0    0 -0.13643095428E+01 -0.74378353534E+01 -0.17131751235E+02  0.18726442152E+02  0.00000000000E+00 0. -1.
         11    1    3    3    0    0  0.21883186911E+01  0.53411991473E+01 -0.21891840410E+02  0.22640004943E+02  0.51100000000E-03 0. -1.
        -11    1    3    3    0    0  0.14802128287E+02  0.35648547589E+01  0.20673087530E+02  0.25674651693E+02  0.51100000000E-03 0.  1.
        -12    1    3    3    0    0 -0.15626137435E+02 -0.14682185527E+01  0.18350504115E+02  0.24146901212E+02  0.00000000000E+00 0.  1.
</event>
<event>
 7    1  0.1333056E-013  0.7246157E+02  0.7816164E-02  0.1226708E+00
        -11   -1    0    0    0    0  0.00000000000E+00  0.00000000000E+00  0.45593999997E+02  0.45594000000E+02  0.51100000000E-03 0. -1.
         11   -1    0    0    0    0 -0.00000000000E+00 -0.00000000000E+00 -0.45593999997E+02  0.45594000000E+02  0.51100000000E-03 0.  1.
    9900012    2    1    2    0    0  0.12515013648E+01  0.34332023974E+01 -0.18366440646E+02  0.72461567441E+02  0.69999996283E+02 0.  0.
         12    1    1    2    0    0 -0.12515013648E+01 -0.34332023974E+01  0.18366440646E+02  0.18726432559E+02  0.00000000000E+00 0. -1.
         11    1    3    3    0    0  0.90242068262E+01  0.54607341967E+01  0.13712177499E+02  0.17299703432E+02  0.51100000000E-03 0. -1.
        -11    1    3    3    0    0 -0.24888787691E+02  0.12991051697E+01 -0.27543352753E+02  0.37145332251E+02  0.51100000000E-03 0.  1.
        -12    1    3    3    0    0  0.17116082229E+02 -0.33266369690E+01 -0.45352653926E+01  0.18016531758E+02  0.00000000000E+00 0.  1.
</event>
<event>
 7    1  0.1333056E-013  0.7246153E+02  0.7816164E-02  0.1226708E+00
        -11   -1    0    0    0    0  0.00000000000E+00  0.00000000000E+00  0.45593999997E+02  0.45594000000E+02  0.51100000000E-03 0.  1.
         11   -1    0    0    0    0 -0.00000000000E+00 -0.00000000000E+00 -0.45593999997E+02  0.45594000000E+02  0.51100000000E-03 0. -1.
    9900012    2    1    2    0    0 -0.17564653241E+02  0.45636886704E+01  0.46191178672E+01  0.72461533499E+02  0.69999952067E+02 0.  0.
         12    1    1    2    0    0  0.17564653241E+02 -0.45636886704E+01 -0.46191178672E+01  0.18726466501E+02  0.00000000000E+00 0. -1.
         11    1    3    3    0    0  0.21989113549E+02 -0.88370024249E+01  0.19190829468E+01  0.23775966987E+02  0.51100000000E-03 0. -1.
        -11    1    3    3    0    0 -0.32901582026E+02 -0.10885698296E+00  0.55304698447E+01  0.33363333866E+02  0.51100000000E-03 0.  1.
        -12    1    3    3    0    0 -0.66521847635E+01  0.13509548078E+02 -0.28304349243E+01  0.15322232646E+02  0.00000000000E+00 0.  1.
</event>
<event>
 7    1  0.1333056E-013  0.7246157E+02  0.7816164E-02  0.1226708E+00
        -11   -1    0    0    0    0  0.00000000000E+00  0.00000000000E+00  0.45593999997E+02  0.45594000000E+02  0.51100000000E-03 0.  1.
         11   -1    0    0    0    0 -0.00000000000E+00 -0.00000000000E+00 -0.45593999997E+02  0.45594000000E+02  0.51100000000E-03 0. -1.
    9900012    2    1    2    0    0 -0.94649448137E+01 -0.48572583053E+01  0.15411065429E+02  0.72461572785E+02  0.70000003245E+02 0.  0.
         12    1    1    2    0    0  0.94649448137E+01  0.48572583053E+01 -0.15411065429E+02  0.18726427215E+02  0.00000000000E+00 0. -1.
         11    1    3    3    0    0 -0.90524081571E+01 -0.21847119184E+02 -0.20419488462E+02  0.31244170966E+02  0.51100000000E-03 0. -1.
        -11    1    3    3    0    0  0.30978663749E+01  0.16145726849E+02  0.26184338451E+02  0.30917646288E+02  0.51100000000E-03 0.  1.
         12    1    3    3    0    0 -0.35104030315E+01  0.84413402946E+00  0.96462154393E+01  0.10299755531E+02  0.00000000000E+00 0. -1.
</event>
<event>
 7    1  0.1333056E-013  0.7246179E+02  0.7816164E-02  0.1226707E+00
        -11   -1    0    0    0    0  0.00000000000E+00  0.00000000000E+00  0.45593999997E+02  0.45594000000E+02  0.51100000000E-03 0.  1.
         11   -1    0    0    0    0 -0.00000000000E+00 -0.00000000000E+00 -0.45593999997E+02  0.45594000000E+02  0.51100000000E-03 0. -1.
    9900012    2    1    2    0    0  0.47983049539E+01 -0.41418842496E+00  0.18096284079E+02  0.72461794300E+02  0.70000291808E+02 0.  0.
         12    1    1    2    0    0 -0.47983049539E+01  0.41418842496E+00 -0.18096284079E+02  0.18726205700E+02  0.00000000000E+00 0. -1.
         11    1    3    3    0    0  0.29907688947E+02 -0.53340110176E+00  0.48273014437E+01  0.30299458978E+02  0.51100000000E-03 0. -1.
        -11    1    3    3    0    0 -0.95011108017E+01  0.11630183984E+02  0.16708714334E+02  0.22465827849E+02  0.51100000000E-03 0.  1.
         12    1    3    3    0    0 -0.15608273191E+02 -0.11510971308E+02 -0.34397316990E+01  0.19696507473E+02  0.00000000000E+00 0. -1.
</event>
<event>
 7    1  0.1333056E-013  0.7246159E+02  0.7816164E-02  0.1226708E+00
        -11   -1    0    0    0    0  0.00000000000E+00  0.00000000000E+00  0.45593999997E+02  0.45594000000E+02  0.51100000000E-03 0. -1.
         11   -1    0    0    0    0 -0.00000000000E+00 -0.00000000000E+00 -0.45593999997E+02  0.45594000000E+02  0.51100000000E-03 0.  1.
    9900012    2    1    2    0    0  0.10799208132E+02  0.11853615053E+02 -0.96719906975E+01  0.72461588434E+02  0.70000023630E+02 0.  0.
         12    1    1    2    0    0 -0.10799208132E+02 -0.11853615053E+02  0.96719906975E+01  0.18726411566E+02  0.00000000000E+00 0. -1.
         11    1    3    3    0    0  0.17259246123E+02  0.28110048753E+02  0.16635966476E+02  0.36943359329E+02  0.51100000000E-03 0. -1.
        -11    1    3    3    0    0  0.39502375341E+01  0.65492057335E+00 -0.44216821139E+01  0.59652804218E+01  0.51100000000E-03 0.  1.
         12    1    3    3    0    0 -0.10410275525E+02 -0.16911354274E+02 -0.21886275059E+02  0.29552948683E+02  0.00000000000E+00 0. -1.
</event>
<event>
 7    1  0.1333056E-013  0.7246159E+02  0.7816164E-02  0.1226708E+00
        -11   -1    0    0    0    0  0.00000000000E+00  0.00000000000E+00  0.45593999997E+02  0.45594000000E+02  0.51100000000E-03 0. -1.
         11   -1    0    0    0    0 -0.00000000000E+00 -0.00000000000E+00 -0.45593999997E+02  0.45594000000E+02  0.51100000000E-03 0.  1.
    9900012    2    1    2    0    0  0.12279787465E+02 -0.73878668333E+01 -0.12054237504E+02  0.72461590885E+02  0.70000026823E+02 0.  0.
         12    1    1    2    0    0 -0.12279787465E+02  0.73878668333E+01  0.12054237504E+02  0.18726409115E+02  0.00000000000E+00 0. -1.
         11    1    3    3    0    0 -0.25293024474E+02 -0.11530964910E+02 -0.15369238125E+01  0.27839942059E+02  0.51100000000E-03 0. -1.
        -11    1    3    3    0    0  0.23670739995E+02 -0.59907339067E+01  0.77884761242E-01  0.24417184337E+02  0.51100000000E-03 0.  1.
        -12    1    3    3    0    0  0.13902071944E+02  0.10133831984E+02 -0.10595198453E+02  0.20204464488E+02  0.00000000000E+00 0.  1.
</event>
<event>
 7    1  0.1333056E-013  0.7246159E+02  0.7816164E-02  0.1226708E+00
        -11   -1    0    0    0    0  0.00000000000E+00  0.00000000000E+00  0.45593999997E+02  0.45594000000E+02  0.51100000000E-03 0. -1.
         11   -1    0    0    0    0 -0.00000000000E+00 -0.00000000000E+00 -0.45593999997E+02  0.45594000000E+02  0.51100000000E-03 0.  1.
    9900012    2    1    2    0    0  0.18029076707E+02 -0.36144623591E+01 -0.35449157014E+01  0.72461591578E+02  0.70000027726E+02 0.  0.
         12    1    1    2    0    0 -0.18029076707E+02  0.36144623591E+01  0.35449157014E+01  0.18726408422E+02  0.00000000000E+00 0. -1.
         11    1    3    3    0    0  0.22185259509E+02  0.71825720027E+01  0.19516258762E+02  0.30408213305E+02  0.51100000000E-03 0. -1.
        -11    1    3    3    0    0  0.50524450631E+01 -0.71514469000E+01 -0.29143732188E+02  0.30430700287E+02  0.51100000000E-03 0.  1.
         12    1    3    3    0    0 -0.92086278652E+01 -0.36455874619E+01  0.60825577243E+01  0.11622677986E+02  0.00000000000E+00 0. -1.
</event>
<event>
 7    1  0.1333056E-013  0.7246154E+02  0.7816164E-02  0.1226708E+00
        -11   -1    0    0    0    0  0.00000000000E+00  0.00000000000E+00  0.45593999997E+02  0.45594000000E+02  0.51100000000E-03 0.  1.
         11   -1    0    0    0    0 -0.00000000000E+00 -0.00000000000E+00 -0.45593999997E+02  0.45594000000E+02  0.51100000000E-03 0. -1.
    9900012    2    1    2    0    0  0.10916135917E+02  0.13934566095E+02  0.61111471652E+01  0.72461540770E+02  0.69999961539E+02 0.  0.
         12    1    1    2    0    0 -0.10916135917E+02 -0.13934566095E+02 -0.61111471652E+01  0.18726459230E+02  0.00000000000E+00 0. -1.
         11    1    3    3    0    0  0.13568785180E+01  0.51778978571E+01 -0.83369980523E+01  0.99074357084E+01  0.51100000000E-03 0. -1.
        -11    1    3    3    0    0  0.43080714257E+01 -0.25631553316E+02  0.45486610329E+01  0.26386100930E+02  0.51100000000E-03 0.  1.
        -12    1    3    3    0    0  0.52511859734E+01  0.34388221554E+02  0.98994841846E+01  0.36168004132E+02  0.00000000000E+00 0.  1.
</event>
<event>
 7    1  0.1333056E-013  0.7246159E+02  0.7816164E-02  0.1226708E+00
        -11   -1    0    0    0    0  0.00000000000E+00  0.00000000000E+00  0.45593999997E+02  0.45594000000E+02  0.51100000000E-03 0. -1.
         11   -1    0    0    0    0 -0.00000000000E+00 -0.00000000000E+00 -0.45593999997E+02  0.45594000000E+02  0.51100000000E-03 0.  1.
    9900012    2    1    2    0    0  0.18350746005E+02 -0.90054874343E+00  0.36218109141E+01  0.72461591341E+02  0.70000027417E+02 0.  0.
         12    1    1    2    0    0 -0.18350746005E+02  0.90054874343E+00 -0.36218109141E+01  0.18726408659E+02  0.00000000000E+00 0. -1.
         11    1    3    3    0    0  0.79253303447E+01 -0.80809253928E+01  0.15819708637E+02  0.19451873891E+02  0.51100000000E-03 0. -1.
        -11    1    3    3    0    0 -0.15090748595E+02  0.42846088028E+01 -0.20687637964E+02  0.25962798973E+02  0.51100000000E-03 0.  1.
        -12    1    3    3    0    0  0.25516164255E+02  0.28957678465E+01  0.84897402412E+01  0.27046918476E+02  0.00000000000E+00 0.  1.
</event>
<event>
 7    1  0.1333056E-013  0.7246155E+02  0.7816164E-02  0.1226708E+00
        -11   -1    0    0    0    0  0.00000000000E+00  0.00000000000E+00  0.45593999997E+02  0.45594000000E+02  0.51100000000E-03 0. -1.
         11   -1    0    0    0    0 -0.00000000000E+00 -0.00000000000E+00 -0.45593999997E+02  0.45594000000E+02  0.51100000000E-03 0.  1.
    9900012    2    1    2    0    0 -0.14814785542E+02 -0.11340153987E+02  0.16133135603E+01  0.72461554962E+02  0.69999980027E+02 0.  0.
         12    1    1    2    0    0  0.14814785542E+02  0.11340153987E+02 -0.16133135603E+01  0.18726445038E+02  0.00000000000E+00 0. -1.
         11    1    3    3    0    0 -0.18895258785E+02 -0.10380157280E+02  0.13017605916E+02  0.25184053164E+02  0.51100000000E-03 0. -1.
        -11    1    3    3    0    0  0.24519915882E+02  0.40109437055E+01 -0.62713830057E+01  0.25625069548E+02  0.51100000000E-03 0.  1.
        -12    1    3    3    0    0 -0.20439442638E+02 -0.49709404130E+01 -0.51329093505E+01  0.21652432250E+02  0.00000000000E+00 0.  1.
</event>
<event>
 7    1  0.1333056E-013  0.7246158E+02  0.7816164E-02  0.1226708E+00
        -11   -1    0    0    0    0  0.00000000000E+00  0.00000000000E+00  0.45593999997E+02  0.45594000000E+02  0.51100000000E-03 0. -1.
         11   -1    0    0    0    0 -0.00000000000E+00 -0.00000000000E+00 -0.45593999997E+02  0.45594000000E+02  0.51100000000E-03 0.  1.
    9900012    2    1    2    0    0 -0.84806858633E+01  0.16693211892E+02 -0.30580862043E+00  0.72461578161E+02  0.70000010247E+02 0.  0.
         12    1    1    2    0    0  0.84806858633E+01 -0.16693211892E+02  0.30580862043E+00  0.18726421839E+02  0.00000000000E+00 0. -1.
         11    1    3    3    0    0  0.18205216054E+02  0.13912167238E+02 -0.59468391495E+01  0.23671569127E+02  0.51100000000E-03 0. -1.
        -11    1    3    3    0    0 -0.29489794774E+02  0.13981321596E+02  0.12964903469E+02  0.35117147828E+02  0.51100000000E-03 0.  1.
         12    1    3    3    0    0  0.28038928565E+01 -0.11200276941E+02 -0.73238729400E+01  0.13672861205E+02  0.00000000000E+00 0. -1.
</event>
<event>
 7    1  0.1333056E-013  0.7246136E+02  0.7816164E-02  0.1226709E+00
        -11   -1    0    0    0    0  0.00000000000E+00  0.00000000000E+00  0.45593999997E+02  0.45594000000E+02  0.51100000000E-03 0.  1.
         11   -1    0    0    0    0 -0.00000000000E+00 -0.00000000000E+00 -0.45593999997E+02  0.45594000000E+02  0.51100000000E-03 0. -1.
    9900012    2    1    2    0    0 -0.74418334730E+01 -0.15825478769E+02 -0.66977999752E+01  0.72461356194E+02  0.69999721095E+02 0.  0.
         12    1    1    2    0    0  0.74418334730E+01  0.15825478769E+02  0.66977999752E+01  0.18726643806E+02  0.00000000000E+00 0. -1.
         11    1    3    3    0    0 -0.27838628142E+02 -0.40688771202E+01 -0.24421420674E+02  0.37255211258E+02  0.51100000000E-03 0. -1.
        -11    1    3    3    0    0  0.14339001193E+02  0.10365019144E+01  0.28172091301E+01  0.14649845015E+02  0.51100000000E-03 0.  1.
         12    1    3    3    0    0  0.60577934762E+01 -0.12793103563E+02  0.14906411569E+02  0.20556299921E+02  0.00000000000E+00 0. -1.
</event>
<event>
 7    1  0.1333056E-013  0.7246156E+02  0.7816164E-02  0.1226708E+00
        -11   -1    0    0    0    0  0.00000000000E+00  0.00000000000E+00  0.45593999997E+02  0.45594000000E+02  0.51100000000E-03 0. -1.
         11   -1    0    0    0    0 -0.00000000000E+00 -0.00000000000E+00 -0.45593999997E+02  0.45594000000E+02  0.51100000000E-03 0.  1.
    9900012    2    1    2    0    0  0.14764299310E+02 -0.43520525121E+01  0.10665587997E+02  0.72461557131E+02  0.69999982853E+02 0.  0.
         12    1    1    2    0    0 -0.14764299310E+02  0.43520525121E+01 -0.10665587997E+02  0.18726442869E+02  0.00000000000E+00 0. -1.
         11    1    3    3    0    0  0.23813885851E+02  0.90721572314E+01  0.17421508887E+02  0.30869307869E+02  0.51100000000E-03 0. -1.
        -11    1    3    3    0    0  0.80046137977E+01 -0.14038684855E+02 -0.15521806457E+02  0.22407253078E+02  0.51100000000E-03 0.  1.
        -12    1    3    3    0    0 -0.17054200338E+02  0.61447511206E+00  0.87658855669E+01  0.19184996185E+02  0.00000000000E+00 0.  1.
</event>
<event>
 7    1  0.1333056E-013  0.7246135E+02  0.7816164E-02  0.1226709E+00
        -11   -1    0    0    0    0  0.00000000000E+00  0.00000000000E+00  0.45593999997E+02  0.45594000000E+02  0.51100000000E-03 0. -1.
         11   -1    0    0    0    0 -0.00000000000E+00 -0.00000000000E+00 -0.45593999997E+02  0.45594000000E+02  0.51100000000E-03 0.  1.
    9900012    2    1    2    0    0  0.35089804107E+01  0.99553666465E+01 -0.15468195211E+02  0.72461352364E+02  0.69999716105E+02 0.  0.
         12    1    1    2    0    0 -0.35089804107E+01 -0.99553666465E+01  0.15468195211E+02  0.18726647636E+02  0.00000000000E+00 0. -1.
         11    1    3    3    0    0  0.76090355985E+01  0.81192430585E+01  0.78858999541E+01  0.13638436455E+02  0.51100000000E-03 0. -1.
        -11    1    3    3    0    0 -0.13932826622E+01 -0.25037445504E+02 -0.35397118396E+01  0.25324779844E+02  0.51100000000E-03 0.  1.
        -12    1    3    3    0    0 -0.27067725256E+01  0.26873569092E+02 -0.19814383326E+02  0.33498136065E+02  0.00000000000E+00 0.  1.
</event>
<event>
 7    1  0.1333056E-013  0.7246156E+02  0.7816164E-02  0.1226708E+00
        -11   -1    0    0    0    0  0.00000000000E+00  0.00000000000E+00  0.45593999997E+02  0.45594000000E+02  0.51100000000E-03 0.  1.
         11   -1    0    0    0    0 -0.00000000000E+00 -0.00000000000E+00 -0.45593999997E+02  0.45594000000E+02  0.51100000000E-03 0. -1.
    9900012    2    1    2    0    0  0.18428421048E+01  0.10574984746E+02 -0.15344489559E+02  0.72461555350E+02  0.69999980532E+02 0.  0.
         12    1    1    2    0    0 -0.18428421048E+01 -0.10574984746E+02  0.15344489559E+02  0.18726444650E+02  0.00000000000E+00 0. -1.
         11    1    3    3    0    0  0.26387294732E+02  0.31516928633E+01  0.94409442585E+01  0.28202019785E+02  0.51100000000E-03 0. -1.
        -11    1    3    3    0    0 -0.14565695523E+02 -0.91993866077E+01 -0.10473713823E+02  0.20161519822E+02  0.51100000000E-03 0.  1.
         12    1    3    3    0    0 -0.99787571046E+01  0.16622678491E+02 -0.14311719995E+02  0.24098015743E+02  0.00000000000E+00 0. -1.
</event>
<event>
 7    1  0.1333056E-013  0.7246157E+02  0.7816164E-02  0.1226708E+00
        -11   -1    0    0    0    0  0.00000000000E+00  0.00000000000E+00  0.45593999997E+02  0.45594000000E+02  0.51100000000E-03 0.  1.
         11   -1    0    0    0    0 -0.00000000000E+00 -0.00000000000E+00 -0.45593999997E+02  0.45594000000E+02  0.51100000000E-03 0. -1.
    9900012    2    1    2    0    0  0.30180200867E+01 -0.12831160705E+02  0.13301579991E+02  0.72461570535E+02  0.70000000313E+02 0.  0.
         12    1    1    2    0    0 -0.30180200867E+01  0.12831160705E+02 -0.13301579991E+02  0.18726429465E+02  0.00000000000E+00 0. -1.
         11    1    3    3    0    0  0.14955105400E+02  0.19744685484E+02 -0.49926122937E+01  0.25267250744E+02  0.51100000000E-03 0. -1.
        -11    1    3    3    0    0 -0.84897529170E+01 -0.28575165812E+02  0.24826731139E+02  0.38794105030E+02  0.51100000000E-03 0.  1.
         12    1    3    3    0    0 -0.34473323959E+01 -0.40006803774E+01 -0.65325388550E+01  0.84002147605E+01  0.00000000000E+00 0. -1.
</event>
<event>
 7    1  0.1333056E-013  0.7246158E+02  0.7816164E-02  0.1226708E+00
        -11   -1    0    0    0    0  0.00000000000E+00  0.00000000000E+00  0.45593999997E+02  0.45594000000E+02  0.51100000000E-03 0.  1.
         11   -1    0    0    0    0 -0.00000000000E+00 -0.00000000000E+00 -0.45593999997E+02  0.45594000000E+02  0.51100000000E-03 0. -1.
    9900012    2    1    2    0    0  0.18001386327E+02  0.13940423079E+01 -0.49684595771E+01  0.72461578713E+02  0.70000010967E+02 0.  0.
         12    1    1    2    0    0 -0.18001386327E+02 -0.13940423079E+01  0.49684595771E+01  0.18726421287E+02  0.00000000000E+00 0. -1.
         11    1    3    3    0    0  0.10516923692E+02 -0.16298635087E+02  0.21725441087E+02  0.29124662750E+02  0.51100000000E-03 0. -1.
        -11    1    3    3    0    0 -0.93341933060E+01  0.53923144202E+01 -0.18929666324E+01  0.10944749536E+02  0.51100000000E-03 0.  1.
         12    1    3    3    0    0  0.16818655941E+02  0.12300362974E+02 -0.24800934032E+02  0.32392166427E+02  0.00000000000E+00 0. -1.
</event>
<event>
 7    1  0.1333056E-013  0.7246164E+02  0.7816164E-02  0.1226708E+00
        -11   -1    0    0    0    0  0.00000000000E+00  0.00000000000E+00  0.45593999997E+02  0.45594000000E+02  0.51100000000E-03 0. -1.
         11   -1    0    0    0    0 -0.00000000000E+00 -0.00000000000E+00 -0.45593999997E+02  0.45594000000E+02  0.51100000000E-03 0.  1.
    9900012    2    1    2    0    0 -0.14623320354E+02  0.25863071641E+01  0.11408152367E+02  0.72461643618E+02  0.70000095517E+02 0.  0.
         12    1    1    2    0    0  0.14623320354E+02 -0.25863071641E+01 -0.11408152367E+02  0.18726356382E+02  0.00000000000E+00 0. -1.
         11    1    3    3    0    0 -0.27444633058E+02  0.33131997679E+01 -0.67636001969E+00  0.27652172420E+02  0.51100000000E-03 0. -1.
        -11    1    3    3    0    0  0.17843624835E+02 -0.10781217352E+02  0.21646501367E+02  0.30053296268E+02  0.51100000000E-03 0.  1.
         12    1    3    3    0    0 -0.50223121312E+01  0.10054324749E+02 -0.95619889804E+01  0.14756174930E+02  0.00000000000E+00 0. -1.
</event>
<event>
 7    1  0.1333056E-013  0.7246158E+02  0.7816164E-02  0.1226708E+00
        -11   -1    0    0    0    0  0.00000000000E+00  0.00000000000E+00  0.45593999997E+02  0.45594000000E+02  0.51100000000E-03 0. -1.
         11   -1    0    0    0    0 -0.00000000000E+00 -0.00000000000E+00 -0.45593999997E+02  0.45594000000E+02  0.51100000000E-03 0.  1.
    9900012    2    1    2    0    0 -0.56002358033E+01  0.10347328512E+02 -0.14568771060E+02  0.72461576460E+02  0.70000008032E+02 0.  0.
         12    1    1    2    0    0  0.56002358033E+01 -0.10347328512E+02  0.14568771060E+02  0.18726423540E+02  0.00000000000E+00 0. -1.
         11    1    3    3    0    0 -0.21697909266E+01  0.17071078171E+02  0.22785896713E+02  0.28553927783E+02  0.51100000000E-03 0. -1.
        -11    1    3    3    0    0  0.53067208389E+01 -0.11607580066E+02 -0.24400707947E+02  0.27537097698E+02  0.51100000000E-03 0.  1.
        -12    1    3    3    0    0 -0.87371657155E+01  0.48838304068E+01 -0.12953959826E+02  0.16370550979E+02  0.00000000000E+00 0.  1.
</event>
<event>
 7    1  0.1333056E-013  0.7246163E+02  0.7816164E-02  0.1226708E+00
        -11   -1    0    0    0    0  0.00000000000E+00  0.00000000000E+00  0.45593999997E+02  0.45594000000E+02  0.51100000000E-03 0.  1.
         11   -1    0    0    0    0 -0.00000000000E+00 -0.00000000000E+00 -0.45593999997E+02  0.45594000000E+02  0.51100000000E-03 0. -1.
    9900012    2    1    2    0    0 -0.41146154218E+01  0.11883206612E+02  0.13875743196E+02  0.72461630659E+02  0.70000078637E+02 0.  0.
         12    1    1    2    0    0  0.41146154218E+01 -0.11883206612E+02 -0.13875743196E+02  0.18726369341E+02  0.00000000000E+00 0. -1.
         11    1    3    3    0    0 -0.13136248413E+02  0.12338711933E+02  0.35432940994E+02  0.39752963943E+02  0.51100000000E-03 0. -1.
        -11    1    3    3    0    0  0.83356084497E+01 -0.10950257596E+02 -0.95730246949E+01  0.16764048190E+02  0.51100000000E-03 0.  1.
         12    1    3    3    0    0  0.68602454140E+00  0.10494752274E+02 -0.11984173103E+02  0.15944618526E+02  0.00000000000E+00 0. -1.
</event>
<event>
 7    1  0.1780064E-013  0.7246130E+02  0.7816164E-02  0.1226709E+00
        -11   -1    0    0    0    0  0.00000000000E+00  0.00000000000E+00  0.45593999997E+02  0.45594000000E+02  0.51100000000E-03 0. -1.
         11   -1    0    0    0    0 -0.00000000000E+00 -0.00000000000E+00 -0.45593999997E+02  0.45594000000E+02  0.51100000000E-03 0.  1.
    9900012    2    1    2    0    0 -0.40790386412E+01  0.51520576886E+01 -0.17535877842E+02  0.72461300708E+02  0.69999648813E+02 0.  0.
         12    1    1    2    0    0  0.40790386412E+01 -0.51520576886E+01  0.17535877842E+02  0.18726699292E+02  0.00000000000E+00 0. -1.
         11    1    3    3    0    0  0.70651507497E+00 -0.13941563505E+02  0.10979179082E+02  0.17759750282E+02  0.51100000000E-03 0. -1.
        -11    1    3    3    0    0  0.73291192585E+00  0.30378030498E+02 -0.93613355287E+01  0.31796171152E+02  0.51100000000E-03 0.  1.
        -12    1    3    3    0    0 -0.55184656420E+01 -0.11284409304E+02 -0.19153721395E+02  0.22905379274E+02  0.00000000000E+00 0.  1.
</event>
<event>
 7    1  0.1333056E-013  0.7246169E+02  0.7816164E-02  0.1226708E+00
        -11   -1    0    0    0    0  0.00000000000E+00  0.00000000000E+00  0.45593999997E+02  0.45594000000E+02  0.51100000000E-03 0. -1.
         11   -1    0    0    0    0 -0.00000000000E+00 -0.00000000000E+00 -0.45593999997E+02  0.45594000000E+02  0.51100000000E-03 0.  1.
    9900012    2    1    2    0    0  0.70495684863E+00 -0.90614134089E+01 -0.16372801146E+02  0.72461687109E+02  0.70000152172E+02 0.  0.
         12    1    1    2    0    0 -0.70495684863E+00  0.90614134089E+01  0.16372801146E+02  0.18726312891E+02  0.00000000000E+00 0. -1.
         11    1    3    3    0    0 -0.64295698757E+01  0.21540467800E+02  0.12978191806E+02  0.25956975645E+02  0.51100000000E-03 0. -1.
        -11    1    3    3    0    0  0.10137896852E+02 -0.77656216524E+01 -0.78142248053E+01  0.14971437533E+02  0.51100000000E-03 0.  1.
         12    1    3    3    0    0 -0.30033701276E+01 -0.22836259556E+02 -0.21536768147E+02  0.31533273931E+02  0.00000000000E+00 0. -1.
</event>
<event>
 7    1  0.1333056E-013  0.7246159E+02  0.7816164E-02  0.1226708E+00
        -11   -1    0    0    0    0  0.00000000000E+00  0.00000000000E+00  0.45593999997E+02  0.45594000000E+02  0.51100000000E-03 0.  1.
         11   -1    0    0    0    0 -0.00000000000E+00 -0.00000000000E+00 -0.45593999997E+02  0.45594000000E+02  0.51100000000E-03 0. -1.
    9900012    2    1    2    0    0 -0.14501735854E+02  0.42917893496E+01 -0.11043481156E+02  0.72461594188E+02  0.70000031125E+02 0.  0.
         12    1    1    2    0    0  0.14501735854E+02 -0.42917893496E+01  0.11043481156E+02  0.18726405812E+02  0.00000000000E+00 0. -1.
         11    1    3    3    0    0 -0.46050246939E+01  0.24134037821E+02 -0.13553094306E+02  0.28059657865E+02  0.51100000000E-03 0. -1.
        -11    1    3    3    0    0 -0.56838536377E+01 -0.30802135472E+02 -0.29349185586E+01  0.31459362502E+02  0.51100000000E-03 0.  1.
         12    1    3    3    0    0 -0.42128575229E+01  0.10959887000E+02  0.54445317089E+01  0.12942573820E+02  0.00000000000E+00 0. -1.
</event>
<event>
 7    1  0.1333056E-013  0.7246139E+02  0.7816164E-02  0.1226708E+00
        -11   -1    0    0    0    0  0.00000000000E+00  0.00000000000E+00  0.45593999997E+02  0.45594000000E+02  0.51100000000E-03 0. -1.
         11   -1    0    0    0    0 -0.00000000000E+00 -0.00000000000E+00 -0.45593999997E+02  0.45594000000E+02  0.51100000000E-03 0.  1.
    9900012    2    1    2    0    0 -0.57291665889E+01  0.61100976556E+01 -0.16749005412E+02  0.72461392580E+02  0.69999768494E+02 0.  0.
         12    1    1    2    0    0  0.57291665889E+01 -0.61100976556E+01  0.16749005412E+02  0.18726607420E+02  0.00000000000E+00 0. -1.
         11    1    3    3    0    0  0.71396943455E+01 -0.75760402507E+01 -0.12818161469E+01  0.10488788020E+02  0.51100000000E-03 0. -1.
        -11    1    3    3    0    0 -0.24245424081E+02  0.10144563656E+02 -0.32116079926E+02  0.41499341570E+02  0.51100000000E-03 0.  1.
        -12    1    3    3    0    0  0.11376563147E+02  0.35415742500E+01  0.16648890661E+02  0.20473262990E+02  0.00000000000E+00 0.  1.
</event>
<event>
 7    1  0.1333056E-013  0.7246156E+02  0.7816164E-02  0.1226708E+00
        -11   -1    0    0    0    0  0.00000000000E+00  0.00000000000E+00  0.45593999997E+02  0.45594000000E+02  0.51100000000E-03 0. -1.
         11   -1    0    0    0    0 -0.00000000000E+00 -0.00000000000E+00 -0.45593999997E+02  0.45594000000E+02  0.51100000000E-03 0.  1.
    9900012    2    1    2    0    0  0.53976701961E+01 -0.17842231612E+02  0.17887604484E+01  0.72461555159E+02  0.69999980283E+02 0.  0.
         12    1    1    2    0    0 -0.53976701961E+01  0.17842231612E+02 -0.17887604484E+01  0.18726444841E+02  0.00000000000E+00 0. -1.
         11    1    3    3    0    0  0.11736221824E+02 -0.39167705999E+02  0.21999154522E+01  0.40947377501E+02  0.51100000000E-03 0. -1.
        -11    1    3    3    0    0 -0.11273794594E+02  0.17588154196E+02 -0.74135923340E+01  0.22167610699E+02  0.51100000000E-03 0.  1.
        -12    1    3    3    0    0  0.49352429662E+01  0.37373201915E+01  0.70024373303E+01  0.93465669587E+01  0.00000000000E+00 0.  1.
</event>
<event>
 7    1  0.1333056E-013  0.7246143E+02  0.7816164E-02  0.1226708E+00
        -11   -1    0    0    0    0  0.00000000000E+00  0.00000000000E+00  0.45593999997E+02  0.45594000000E+02  0.51100000000E-03 0. -1.
         11   -1    0    0    0    0 -0.00000000000E+00 -0.00000000000E+00 -0.45593999997E+02  0.45594000000E+02  0.51100000000E-03 0.  1.
    9900012    2    1    2    0    0  0.16280875749E+02 -0.85293132905E+01 -0.35872607129E+01  0.72461426908E+02  0.69999813212E+02 0.  0.
         12    1    1    2    0    0 -0.16280875749E+02  0.85293132905E+01  0.35872607129E+01  0.18726573092E+02  0.00000000000E+00 0. -1.
         11    1    3    3    0    0 -0.10487695893E+02  0.27863229265E+01 -0.94538752312E-01  0.10851926024E+02  0.51100000000E-03 0. -1.
        -11    1    3    3    0    0  0.30830637968E+01 -0.29912218245E+02  0.46166169908E+01  0.30423005036E+02  0.51100000000E-03 0.  1.
        -12    1    3    3    0    0  0.23685507845E+02  0.18596582028E+02 -0.81093389514E+01  0.31186495847E+02  0.00000000000E+00 0.  1.
</event>
<event>
 8    1  0.1333056E-013  0.7246157E+02  0.7816164E-02  0.1226708E+00
        -11   -1    0    0    0    0  0.00000000000E+00  0.00000000000E+00  0.45593999997E+02  0.45594000000E+02  0.51100000000E-03 0.  1.
         11   -1    0    0    0    0 -0.00000000000E+00 -0.00000000000E+00 -0.45593999997E+02  0.45594000000E+02  0.51100000000E-03 0. -1.
    9900012    2    1    2    0    0 -0.21874926989E+01 -0.13943509954E+02 -0.12307412623E+02  0.72461574831E+02  0.70000005910E+02 0.  0.
        -24    2    3    3    0    0 -0.47909797380E+01 -0.17504799496E+01 -0.18386772477E+02  0.58590499100E+02  0.55396349300E+02 0.  0.
         12    1    1    2    0    0  0.21874926989E+01  0.13943509954E+02  0.12307412623E+02  0.18726425169E+02  0.00000000000E+00 0. -1.
         11    1    4    4    0    0 -0.59889851768E+01  0.26594440214E+02 -0.90263215092E+01  0.28715965490E+02  0.51100000000E-03 0. -1.
        -11    1    3    3    0    0  0.26034870391E+01 -0.12193030004E+02  0.60793598537E+01  0.13871075731E+02  0.51100000000E-03 0.  1.
        -12    1    4    4    0    0  0.11980054388E+01 -0.28344920164E+02 -0.93604509679E+01  0.29874533610E+02  0.00000000000E+00 0.  1.
</event>
<event>
 7    1  0.1333056E-013  0.7246170E+02  0.7816164E-02  0.1226708E+00
        -11   -1    0    0    0    0  0.00000000000E+00  0.00000000000E+00  0.45593999997E+02  0.45594000000E+02  0.51100000000E-03 0.  1.
         11   -1    0    0    0    0 -0.00000000000E+00 -0.00000000000E+00 -0.45593999997E+02  0.45594000000E+02  0.51100000000E-03 0. -1.
    9900012    2    1    2    0    0  0.14591905996E+02  0.10147979645E+02  0.58965419736E+01  0.72461697142E+02  0.70000165243E+02 0.  0.
         12    1    1    2    0    0 -0.14591905996E+02 -0.10147979645E+02 -0.58965419736E+01  0.18726302858E+02  0.00000000000E+00 0. -1.
         11    1    3    3    0    0 -0.39176065627E+01 -0.15473916566E+02 -0.14965474712E+02  0.21880474599E+02  0.51100000000E-03 0. -1.
        -11    1    3    3    0    0  0.10245839159E+02  0.72285670553E+01  0.26776731392E+02  0.29567258007E+02  0.51100000000E-03 0.  1.
         12    1    3    3    0    0  0.82636733992E+01  0.18393329156E+02 -0.59147147069E+01  0.21013964536E+02  0.00000000000E+00 0. -1.
</event>
<event>
 7    1  0.1333056E-013  0.7246160E+02  0.7816164E-02  0.1226708E+00
        -11   -1    0    0    0    0  0.00000000000E+00  0.00000000000E+00  0.45593999997E+02  0.45594000000E+02  0.51100000000E-03 0.  1.
         11   -1    0    0    0    0 -0.00000000000E+00 -0.00000000000E+00 -0.45593999997E+02  0.45594000000E+02  0.51100000000E-03 0. -1.
    9900012    2    1    2    0    0 -0.16571929066E+02  0.71121033112E+01  0.50464955560E+01  0.72461602486E+02  0.70000041935E+02 0.  0.
         12    1    1    2    0    0  0.16571929066E+02 -0.71121033112E+01 -0.50464955560E+01  0.18726397514E+02  0.00000000000E+00 0. -1.
         11    1    3    3    0    0  0.19993285199E+02  0.70811267622E+01  0.11777186895E+02  0.24260584096E+02  0.51100000000E-03 0. -1.
        -11    1    3    3    0    0 -0.36564353916E+02  0.81875502445E+01  0.24154351859E+00  0.37470605811E+02  0.51100000000E-03 0.  1.
         12    1    3    3    0    0 -0.86034845945E-03 -0.81565736956E+01 -0.69722348580E+01  0.10730412579E+02  0.00000000000E+00 0. -1.
</event>
<event>
 7    1  0.1333056E-013  0.7246158E+02  0.7816164E-02  0.1226708E+00
        -11   -1    0    0    0    0  0.00000000000E+00  0.00000000000E+00  0.45593999997E+02  0.45594000000E+02  0.51100000000E-03 0.  1.
         11   -1    0    0    0    0 -0.00000000000E+00 -0.00000000000E+00 -0.45593999997E+02  0.45594000000E+02  0.51100000000E-03 0. -1.
    9900012    2    1    2    0    0 -0.88349987383E+01 -0.16468231505E+02 -0.11912455342E+01  0.72461577023E+02  0.70000008765E+02 0.  0.
         12    1    1    2    0    0  0.88349987383E+01  0.16468231505E+02  0.11912455342E+01  0.18726422977E+02  0.00000000000E+00 0. -1.
         11    1    3    3    0    0 -0.11599879898E+02 -0.37541302990E+02 -0.42047825677E+01  0.39516918409E+02  0.51100000000E-03 0. -1.
        -11    1    3    3    0    0 -0.65384139057E-02  0.10131215679E+02  0.13941560748E+02  0.17233940067E+02  0.51100000000E-03 0.  1.
         12    1    3    3    0    0  0.27714195740E+01  0.10941855806E+02 -0.10928023714E+02  0.15710718546E+02  0.00000000000E+00 0. -1.
</event>
<event>
 7    1  0.1333056E-013  0.7246159E+02  0.7816164E-02  0.1226708E+00
        -11   -1    0    0    0    0  0.00000000000E+00  0.00000000000E+00  0.45593999997E+02  0.45594000000E+02  0.51100000000E-03 0.  1.
         11   -1    0    0    0    0 -0.00000000000E+00 -0.00000000000E+00 -0.45593999997E+02  0.45594000000E+02  0.51100000000E-03 0. -1.
    9900012    2    1    2    0    0  0.14439310425E+02  0.86283869363E+01  0.82301586020E+01  0.72461594651E+02  0.70000031729E+02 0.  0.
         12    1    1    2    0    0 -0.14439310425E+02 -0.86283869363E+01 -0.82301586020E+01  0.18726405349E+02  0.00000000000E+00 0. -1.
         11    1    3    3    0    0 -0.15374667057E+02 -0.31295541951E+01 -0.43386630344E-01  0.15690008898E+02  0.51100000000E-03 0. -1.
        -11    1    3    3    0    0  0.41825379780E+02  0.76102689584E+01  0.18977842973E+01  0.42554437758E+02  0.51100000000E-03 0.  1.
        -12    1    3    3    0    0 -0.12011402298E+02  0.41476721730E+01  0.63757609350E+01  0.14217147995E+02  0.00000000000E+00 0.  1.
</event>
<event>
 7    1  0.1333056E-013  0.7246158E+02  0.7816164E-02  0.1226708E+00
        -11   -1    0    0    0    0  0.00000000000E+00  0.00000000000E+00  0.45593999997E+02  0.45594000000E+02  0.51100000000E-03 0.  1.
         11   -1    0    0    0    0 -0.00000000000E+00 -0.00000000000E+00 -0.45593999997E+02  0.45594000000E+02  0.51100000000E-03 0. -1.
    9900012    2    1    2    0    0 -0.76140386824E+01 -0.16452470875E+02  0.46927037373E+01  0.72461578791E+02  0.70000011068E+02 0.  0.
         12    1    1    2    0    0  0.76140386824E+01  0.16452470875E+02 -0.46927037373E+01  0.18726421209E+02  0.00000000000E+00 0. -1.
         11    1    3    3    0    0 -0.11126584424E+02 -0.83635926865E+00 -0.18032542403E+02  0.21205493711E+02  0.51100000000E-03 0. -1.
        -11    1    3    3    0    0 -0.73831903820E+01 -0.28133660476E+02  0.17060468164E+02  0.33720526779E+02  0.51100000000E-03 0.  1.
        -12    1    3    3    0    0  0.10895736123E+02  0.12517548870E+02  0.56647779758E+01  0.17535558300E+02  0.00000000000E+00 0.  1.
</event>
<event>
 7    1  0.1333056E-013  0.7246158E+02  0.7816164E-02  0.1226708E+00
        -11   -1    0    0    0    0  0.00000000000E+00  0.00000000000E+00  0.45593999997E+02  0.45594000000E+02  0.51100000000E-03 0. -1.
         11   -1    0    0    0    0 -0.00000000000E+00 -0.00000000000E+00 -0.45593999997E+02  0.45594000000E+02  0.51100000000E-03 0.  1.
    9900012    2    1    2    0    0  0.12223856515E+02  0.13640598984E+02 -0.38974733234E+01  0.72461577302E+02  0.70000009129E+02 0.  0.
         12    1    1    2    0    0 -0.12223856515E+02 -0.13640598984E+02  0.38974733234E+01  0.18726422698E+02  0.00000000000E+00 0. -1.
         11    1    3    3    0    0 -0.22696433703E+02 -0.29229869101E+01  0.96274575373E+01  0.24826596508E+02  0.51100000000E-03 0. -1.
        -11    1    3    3    0    0  0.21400361447E+02 -0.18048663401E+01 -0.12401244995E+02  0.24799675204E+02  0.51100000000E-03 0.  1.
        -12    1    3    3    0    0  0.13519928771E+02  0.18368452234E+02 -0.11236858661E+01  0.22835305590E+02  0.00000000000E+00 0.  1.
</event>
<event>
 7    1  0.1333056E-013  0.7246161E+02  0.7816164E-02  0.1226708E+00
        -11   -1    0    0    0    0  0.00000000000E+00  0.00000000000E+00  0.45593999997E+02  0.45594000000E+02  0.51100000000E-03 0.  1.
         11   -1    0    0    0    0 -0.00000000000E+00 -0.00000000000E+00 -0.45593999997E+02  0.45594000000E+02  0.51100000000E-03 0. -1.
    9900012    2    1    2    0    0 -0.74845910678E+01 -0.11973756746E+02  0.12299900872E+02  0.72461614457E+02  0.70000057530E+02 0.  0.
         12    1    1    2    0    0  0.74845910678E+01  0.11973756746E+02 -0.12299900872E+02  0.18726385543E+02  0.00000000000E+00 0. -1.
         11    1    3    3    0    0 -0.13606389504E+01  0.15129006768E+02  0.17887932984E+01  0.15295030757E+02  0.51100000000E-03 0. -1.
        -11    1    3    3    0    0 -0.21642762560E+02 -0.31658263658E+02  0.91417756420E+00  0.38360012382E+02  0.51100000000E-03 0.  1.
        -12    1    3    3    0    0  0.15518810443E+02  0.45555001438E+01  0.95969300091E+01  0.18806571318E+02  0.00000000000E+00 0.  1.
</event>
<event>
 7    1  0.1333056E-013  0.7246153E+02  0.7816164E-02  0.1226708E+00
        -11   -1    0    0    0    0  0.00000000000E+00  0.00000000000E+00  0.45593999997E+02  0.45594000000E+02  0.51100000000E-03 0.  1.
         11   -1    0    0    0    0 -0.00000000000E+00 -0.00000000000E+00 -0.45593999997E+02  0.45594000000E+02  0.51100000000E-03 0. -1.
    9900012    2    1    2    0    0 -0.16504838642E+01  0.12180468031E+02  0.14127733777E+02  0.72461527825E+02  0.69999944676E+02 0.  0.
         12    1    1    2    0    0  0.16504838642E+01 -0.12180468031E+02 -0.14127733777E+02  0.18726472175E+02  0.00000000000E+00 0. -1.
         11    1    3    3    0    0 -0.16784593744E+02  0.20227346280E+02  0.37961317220E+01  0.26557084573E+02  0.51100000000E-03 0. -1.
        -11    1    3    3    0    0  0.28162684113E+02  0.13762367639E+01  0.34206865022E+01  0.28403026256E+02  0.51100000000E-03 0.  1.
        -12    1    3    3    0    0 -0.13028574233E+02 -0.94231150135E+01  0.69109155527E+01  0.17501416996E+02  0.00000000000E+00 0.  1.
</event>
<event>
 7    1  0.1333056E-013  0.7246145E+02  0.7816164E-02  0.1226708E+00
        -11   -1    0    0    0    0  0.00000000000E+00  0.00000000000E+00  0.45593999997E+02  0.45594000000E+02  0.51100000000E-03 0.  1.
         11   -1    0    0    0    0 -0.00000000000E+00 -0.00000000000E+00 -0.45593999997E+02  0.45594000000E+02  0.51100000000E-03 0. -1.
    9900012    2    1    2    0    0 -0.12434493412E+01  0.15861427093E+02  0.98768755956E+01  0.72461449137E+02  0.69999842170E+02 0.  0.
         12    1    1    2    0    0  0.12434493412E+01 -0.15861427093E+02 -0.98768755956E+01  0.18726550863E+02  0.00000000000E+00 0. -1.
         11    1    3    3    0    0 -0.23014287311E+02  0.17882046211E+02  0.25080539342E+02  0.38450727575E+02  0.51100000000E-03 0. -1.
        -11    1    3    3    0    0  0.19797871085E+02 -0.41800050466E+00 -0.12654987177E+01  0.19842679033E+02  0.51100000000E-03 0.  1.
        -12    1    3    3    0    0  0.19729668846E+01 -0.16026186140E+01 -0.13938165028E+02  0.14168042529E+02  0.00000000000E+00 0.  1.
</event>
<event>
 7    1  0.1333056E-013  0.7246177E+02  0.7816164E-02  0.1226707E+00
        -11   -1    0    0    0    0  0.00000000000E+00  0.00000000000E+00  0.45593999997E+02  0.45594000000E+02  0.51100000000E-03 0.  1.
         11   -1    0    0    0    0 -0.00000000000E+00 -0.00000000000E+00 -0.45593999997E+02  0.45594000000E+02  0.51100000000E-03 0. -1.
    9900012    2    1    2    0    0  0.39354688996E+00 -0.35574495458E+01  0.18381001908E+02  0.72461773537E+02  0.70000264761E+02 0.  0.
         12    1    1    2    0    0 -0.39354688996E+00  0.35574495458E+01 -0.18381001908E+02  0.18726226463E+02  0.00000000000E+00 0. -1.
         11    1    3    3    0    0  0.32349281157E+01 -0.49594412621E+01 -0.21016316644E+02  0.21834522736E+02  0.51100000000E-03 0. -1.
        -11    1    3    3    0    0 -0.22609715554E+01  0.14453152980E+02  0.32965701038E+02  0.36065815790E+02  0.51100000000E-03 0.  1.
         12    1    3    3    0    0 -0.58040967034E+00 -0.13051161264E+02  0.64316175144E+01  0.14561435011E+02  0.00000000000E+00 0. -1.
</event>
<event>
 7    1  0.1333056E-013  0.7246160E+02  0.7816164E-02  0.1226708E+00
        -11   -1    0    0    0    0  0.00000000000E+00  0.00000000000E+00  0.45593999997E+02  0.45594000000E+02  0.51100000000E-03 0.  1.
         11   -1    0    0    0    0 -0.00000000000E+00 -0.00000000000E+00 -0.45593999997E+02  0.45594000000E+02  0.51100000000E-03 0. -1.
    9900012    2    1    2    0    0  0.64067981449E+01 -0.10070209661E+02  0.14429892967E+02  0.72461601625E+02  0.70000040814E+02 0.  0.
         12    1    1    2    0    0 -0.64067981449E+01  0.10070209661E+02 -0.14429892967E+02  0.18726398375E+02  0.00000000000E+00 0. -1.
         11    1    3    3    0    0  0.23630018045E+02  0.63491115752E+01 -0.33817968081E+01  0.24700719028E+02  0.51100000000E-03 0. -1.
        -11    1    3    3    0    0  0.57093307720E+01 -0.15685017985E+02  0.18355557423E+02  0.24810133728E+02  0.51100000000E-03 0.  1.
         12    1    3    3    0    0 -0.22932550672E+02 -0.73430325130E+00 -0.54386764826E+00  0.22950748868E+02  0.00000000000E+00 0. -1.
</event>
<event>
 7    1  0.1333056E-013  0.7246151E+02  0.7816164E-02  0.1226708E+00
        -11   -1    0    0    0    0  0.00000000000E+00  0.00000000000E+00  0.45593999997E+02  0.45594000000E+02  0.51100000000E-03 0. -1.
         11   -1    0    0    0    0 -0.00000000000E+00 -0.00000000000E+00 -0.45593999997E+02  0.45594000000E+02  0.51100000000E-03 0.  1.
    9900012    2    1    2    0    0  0.24045724260E+01 -0.15883565430E+02 -0.96235048124E+01  0.72461509026E+02  0.69999920187E+02 0.  0.
         12    1    1    2    0    0 -0.24045724260E+01  0.15883565430E+02  0.96235048124E+01  0.18726490974E+02  0.00000000000E+00 0. -1.
         11    1    3    3    0    0  0.20334608549E+02  0.86506886620E+01 -0.23014700920E+02  0.31906224751E+02  0.51100000000E-03 0. -1.
        -11    1    3    3    0    0 -0.12873449312E+02 -0.24276668727E+02  0.18685250316E+02  0.33229819760E+02  0.51100000000E-03 0.  1.
         12    1    3    3    0    0 -0.50565868109E+01 -0.25758536542E+00 -0.52940542087E+01  0.73254645150E+01  0.00000000000E+00 0. -1.
</event>
<event>
 7    1  0.1333056E-013  0.7246174E+02  0.7816164E-02  0.1226708E+00
        -11   -1    0    0    0    0  0.00000000000E+00  0.00000000000E+00  0.45593999997E+02  0.45594000000E+02  0.51100000000E-03 0.  1.
         11   -1    0    0    0    0 -0.00000000000E+00 -0.00000000000E+00 -0.45593999997E+02  0.45594000000E+02  0.51100000000E-03 0. -1.
    9900012    2    1    2    0    0  0.16098123838E+02  0.12959432429E+01  0.94785989133E+01  0.72461737764E+02  0.70000218160E+02 0.  0.
         12    1    1    2    0    0 -0.16098123838E+02 -0.12959432429E+01 -0.94785989133E+01  0.18726262236E+02  0.00000000000E+00 0. -1.
         11    1    3    3    0    0  0.10288799715E+02 -0.31694575297E+02 -0.20185176264E+01  0.33383827170E+02  0.51100000000E-03 0.  1.
        -11    1    3    3    0    0  0.88592094388E+01  0.32866424917E+02  0.11761268706E+02  0.36014093360E+02  0.51100000000E-03 0. -1.
         12    1    3    3    0    0 -0.30498853166E+01  0.12409362316E+00 -0.26415216668E+00  0.30638172333E+01  0.00000000000E+00 0. -1.
</event>
<event>
 7    1  0.1333056E-013  0.7246156E+02  0.7816164E-02  0.1226708E+00
        -11   -1    0    0    0    0  0.00000000000E+00  0.00000000000E+00  0.45593999997E+02  0.45594000000E+02  0.51100000000E-03 0. -1.
         11   -1    0    0    0    0 -0.00000000000E+00 -0.00000000000E+00 -0.45593999997E+02  0.45594000000E+02  0.51100000000E-03 0.  1.
    9900012    2    1    2    0    0 -0.14945236178E+02 -0.96125145269E+01  0.59092398228E+01  0.72461557860E+02  0.69999983802E+02 0.  0.
         12    1    1    2    0    0  0.14945236178E+02  0.96125145269E+01 -0.59092398228E+01  0.18726442140E+02  0.00000000000E+00 0. -1.
         11    1    3    3    0    0  0.97426240182E+01 -0.12628132403E+02 -0.73028513856E+01  0.17541952268E+02  0.51100000000E-03 0.  1.
        -11    1    3    3    0    0 -0.35790959146E+02 -0.29816463105E+01  0.19449278768E+02  0.40843082844E+02  0.51100000000E-03 0. -1.
        -12    1    3    3    0    0  0.11103098950E+02  0.59972641865E+01 -0.62371875601E+01  0.14076522748E+02  0.00000000000E+00 0.  1.
</event>
<event>
 7    1  0.1333056E-013  0.7246159E+02  0.7816164E-02  0.1226708E+00
        -11   -1    0    0    0    0  0.00000000000E+00  0.00000000000E+00  0.45593999997E+02  0.45594000000E+02  0.51100000000E-03 0.  1.
         11   -1    0    0    0    0 -0.00000000000E+00 -0.00000000000E+00 -0.45593999997E+02  0.45594000000E+02  0.51100000000E-03 0. -1.
    9900012    2    1    2    0    0 -0.11624532454E+02 -0.11002384736E+02  0.97209123530E+01  0.72461591865E+02  0.70000028100E+02 0.  0.
         12    1    1    2    0    0  0.11624532454E+02  0.11002384736E+02 -0.97209123530E+01  0.18726408135E+02  0.00000000000E+00 0. -1.
         11    1    3    3    0    0 -0.12812444929E+02 -0.30055973813E+02 -0.11362351054E+02  0.34592243764E+02  0.51100000000E-03 0. -1.
        -11    1    3    3    0    0 -0.94375877249E+01  0.11063138976E+02  0.20983727781E+01  0.14692320261E+02  0.51100000000E-03 0.  1.
         12    1    3    3    0    0  0.10625500200E+02  0.79904501010E+01  0.18984890629E+02  0.23177027840E+02  0.00000000000E+00 0. -1.
</event>
<event>
 7    1  0.1333056E-013  0.7246156E+02  0.7816164E-02  0.1226708E+00
        -11   -1    0    0    0    0  0.00000000000E+00  0.00000000000E+00  0.45593999997E+02  0.45594000000E+02  0.51100000000E-03 0. -1.
         11   -1    0    0    0    0 -0.00000000000E+00 -0.00000000000E+00 -0.45593999997E+02  0.45594000000E+02  0.51100000000E-03 0.  1.
    9900012    2    1    2    0    0 -0.15504608296E+02  0.10483885289E+02 -0.61216470033E+00  0.72461562144E+02  0.69999989383E+02 0.  0.
         12    1    1    2    0    0  0.15504608296E+02 -0.10483885289E+02  0.61216470033E+00  0.18726437856E+02  0.00000000000E+00 0. -1.
         11    1    3    3    0    0 -0.92590247588E+01  0.24499754358E+02  0.11515675923E+02  0.28610807316E+02  0.51100000000E-03 0.  1.
        -11    1    3    3    0    0 -0.68219706993E+01 -0.27382004937E+02 -0.48891733649E+01  0.28639439503E+02  0.51100000000E-03 0. -1.
         12    1    3    3    0    0  0.57638716257E+00  0.13366135869E+02 -0.72386672580E+01  0.15211315324E+02  0.00000000000E+00 0. -1.
</event>
<event>
 7    1  0.1333056E-013  0.7246154E+02  0.7816164E-02  0.1226708E+00
        -11   -1    0    0    0    0  0.00000000000E+00  0.00000000000E+00  0.45593999997E+02  0.45594000000E+02  0.51100000000E-03 0.  1.
         11   -1    0    0    0    0 -0.00000000000E+00 -0.00000000000E+00 -0.45593999997E+02  0.45594000000E+02  0.51100000000E-03 0. -1.
    9900012    2    1    2    0    0 -0.11125869631E+01  0.12957210602E+02  0.13474164748E+02  0.72461540858E+02  0.69999961654E+02 0.  0.
         12    1    1    2    0    0  0.11125869631E+01 -0.12957210602E+02 -0.13474164748E+02  0.18726459142E+02  0.00000000000E+00 0. -1.
         11    1    3    3    0    0 -0.20861380721E+02 -0.89767734820E+01  0.28356350223E+02  0.36329908697E+02  0.51100000000E-03 0. -1.
        -11    1    3    3    0    0  0.16438077814E+01  0.50396758075E+01  0.25159422554E+01  0.58677424927E+01  0.51100000000E-03 0.  1.
         12    1    3    3    0    0  0.18104985976E+02  0.16894308277E+02 -0.17398127730E+02  0.30263889668E+02  0.00000000000E+00 0. -1.
</event>
<event>
 7    1  0.1333056E-013  0.7246155E+02  0.7816164E-02  0.1226708E+00
        -11   -1    0    0    0    0  0.00000000000E+00  0.00000000000E+00  0.45593999997E+02  0.45594000000E+02  0.51100000000E-03 0.  1.
         11   -1    0    0    0    0 -0.00000000000E+00 -0.00000000000E+00 -0.45593999997E+02  0.45594000000E+02  0.51100000000E-03 0. -1.
    9900012    2    1    2    0    0  0.16731306337E+02  0.83140317778E+01  0.12729385311E+01  0.72461545219E+02  0.69999967335E+02 0.  0.
         12    1    1    2    0    0 -0.16731306337E+02 -0.83140317778E+01 -0.12729385311E+01  0.18726454781E+02  0.00000000000E+00 0. -1.
         11    1    3    3    0    0  0.10567130664E+02  0.17491488569E+02 -0.24930569804E+02  0.32235845480E+02  0.51100000000E-03 0. -1.
        -11    1    3    3    0    0 -0.10588877519E+02 -0.85581108094E+01  0.98364648243E+01  0.16796476661E+02  0.51100000000E-03 0.  1.
         12    1    3    3    0    0  0.16753053193E+02 -0.61934598138E+00  0.16367043511E+02  0.23429223077E+02  0.00000000000E+00 0. -1.
</event>
<event>
 7    1  0.1333056E-013  0.7246156E+02  0.7816164E-02  0.1226708E+00
        -11   -1    0    0    0    0  0.00000000000E+00  0.00000000000E+00  0.45593999997E+02  0.45594000000E+02  0.51100000000E-03 0. -1.
         11   -1    0    0    0    0 -0.00000000000E+00 -0.00000000000E+00 -0.45593999997E+02  0.45594000000E+02  0.51100000000E-03 0.  1.
    9900012    2    1    2    0    0 -0.69588782996E+01 -0.24421574410E+01 -0.17213062895E+02  0.72461557348E+02  0.69999983136E+02 0.  0.
         12    1    1    2    0    0  0.69588782996E+01  0.24421574410E+01  0.17213062895E+02  0.18726442652E+02  0.00000000000E+00 0. -1.
         11    1    3    3    0    0  0.23977145118E+01 -0.13976997285E+02 -0.78358552675E+01  0.16202040489E+02  0.51100000000E-03 0. -1.
        -11    1    3    3    0    0 -0.18728182204E+01  0.30089748977E+02 -0.17278738019E+02  0.34748456504E+02  0.51100000000E-03 0.  1.
        -12    1    3    3    0    0 -0.74837745910E+01 -0.18554909133E+02  0.79015303919E+01  0.21511060355E+02  0.00000000000E+00 0.  1.
</event>
<event>
 7    1  0.1333056E-013  0.7246164E+02  0.7816164E-02  0.1226708E+00
        -11   -1    0    0    0    0  0.00000000000E+00  0.00000000000E+00  0.45593999997E+02  0.45594000000E+02  0.51100000000E-03 0. -1.
         11   -1    0    0    0    0 -0.00000000000E+00 -0.00000000000E+00 -0.45593999997E+02  0.45594000000E+02  0.51100000000E-03 0.  1.
    9900012    2    1    2    0    0 -0.77172983575E+01  0.51239807726E+01 -0.16274658875E+02  0.72461644391E+02  0.70000096525E+02 0.  0.
         12    1    1    2    0    0  0.77172983575E+01 -0.51239807726E+01  0.16274658875E+02  0.18726355609E+02  0.00000000000E+00 0. -1.
         11    1    3    3    0    0  0.18839741461E+01  0.28996395562E+02 -0.16379409385E+02  0.33356039427E+02  0.51100000000E-03 0.  1.
        -11    1    3    3    0    0 -0.63906973950E+01 -0.25310062301E+02 -0.10345093042E+02  0.28079551584E+02  0.51100000000E-03 0. -1.
        -12    1    3    3    0    0 -0.32105751086E+01  0.14376475112E+01  0.10449843552E+02  0.11026053381E+02  0.00000000000E+00 0.  1.
</event>
<event>
 7    1  0.1333056E-013  0.7246157E+02  0.7816164E-02  0.1226708E+00
        -11   -1    0    0    0    0  0.00000000000E+00  0.00000000000E+00  0.45593999997E+02  0.45594000000E+02  0.51100000000E-03 0. -1.
         11   -1    0    0    0    0 -0.00000000000E+00 -0.00000000000E+00 -0.45593999997E+02  0.45594000000E+02  0.51100000000E-03 0.  1.
    9900012    2    1    2    0    0 -0.11159456278E+02  0.44027904527E+01 -0.14379188657E+02  0.72461572294E+02  0.70000002605E+02 0.  0.
         12    1    1    2    0    0  0.11159456278E+02 -0.44027904527E+01  0.14379188657E+02  0.18726427706E+02  0.00000000000E+00 0. -1.
         11    1    3    3    0    0 -0.21404591375E+02  0.11178762094E+02  0.18175135534E+02  0.30223447947E+02  0.51100000000E-03 0. -1.
        -11    1    3    3    0    0  0.15386072119E+02 -0.43696265961E+01 -0.32868110542E+02  0.36553215217E+02  0.51100000000E-03 0.  1.
         12    1    3    3    0    0 -0.51409370219E+01 -0.24063450450E+01  0.31378635043E+00  0.56849091297E+01  0.00000000000E+00 0. -1.
</event>
<event>
 7    1  0.1333056E-013  0.7246159E+02  0.7816164E-02  0.1226708E+00
        -11   -1    0    0    0    0  0.00000000000E+00  0.00000000000E+00  0.45593999997E+02  0.45594000000E+02  0.51100000000E-03 0. -1.
         11   -1    0    0    0    0 -0.00000000000E+00 -0.00000000000E+00 -0.45593999997E+02  0.45594000000E+02  0.51100000000E-03 0.  1.
    9900012    2    1    2    0    0  0.11545398752E+02  0.11358019427E+02 -0.94009400899E+01  0.72461587844E+02  0.70000022862E+02 0.  0.
         12    1    1    2    0    0 -0.11545398752E+02 -0.11358019427E+02  0.94009400899E+01  0.18726412156E+02  0.00000000000E+00 0. -1.
         11    1    3    3    0    0 -0.13014008837E+02  0.12454777700E+02  0.46546339845E+01  0.18605147980E+02  0.51100000000E-03 0. -1.
        -11    1    3    3    0    0 -0.15229348378E+00 -0.20542655556E+02 -0.57461583979E+01  0.21331718806E+02  0.51100000000E-03 0.  1.
         12    1    3    3    0    0  0.24711701073E+02  0.19445897283E+02 -0.83094156765E+01  0.32524721059E+02  0.00000000000E+00 0. -1.
</event>
<event>
 7    1  0.1333056E-013  0.7246159E+02  0.7816164E-02  0.1226708E+00
        -11   -1    0    0    0    0  0.00000000000E+00  0.00000000000E+00  0.45593999997E+02  0.45594000000E+02  0.51100000000E-03 0. -1.
         11   -1    0    0    0    0 -0.00000000000E+00 -0.00000000000E+00 -0.45593999997E+02  0.45594000000E+02  0.51100000000E-03 0.  1.
    9900012    2    1    2    0    0 -0.16159760607E+02  0.76521963257E+01  0.55663698239E+01  0.72461589653E+02  0.70000025218E+02 0.  0.
         12    1    1    2    0    0  0.16159760607E+02 -0.76521963257E+01 -0.55663698239E+01  0.18726410347E+02  0.00000000000E+00 0. -1.
         11    1    3    3    0    0 -0.72637219640E+01 -0.24049531460E+00  0.27081239307E+02  0.28039490320E+02  0.51100000000E-03 0. -1.
        -11    1    3    3    0    0  0.56152239817E+01 -0.88368647673E+01 -0.19564869083E+02  0.22190201031E+02  0.51100000000E-03 0.  1.
        -12    1    3    3    0    0 -0.14511262624E+02  0.16729556408E+02 -0.19500003992E+01  0.22231898302E+02  0.00000000000E+00 0.  1.
</event>
<event>
 7    1  0.1333056E-013  0.7246129E+02  0.7816164E-02  0.1226709E+00
        -11   -1    0    0    0    0  0.00000000000E+00  0.00000000000E+00  0.45593999997E+02  0.45594000000E+02  0.51100000000E-03 0.  1.
         11   -1    0    0    0    0 -0.00000000000E+00 -0.00000000000E+00 -0.45593999997E+02  0.45594000000E+02  0.51100000000E-03 0. -1.
    9900012    2    1    2    0    0  0.78574777617E+01 -0.12164163942E+01  0.16954943268E+02  0.72461288413E+02  0.69999632797E+02 0.  0.
         12    1    1    2    0    0 -0.78574777617E+01  0.12164163942E+01 -0.16954943268E+02  0.18726711587E+02  0.00000000000E+00 0. -1.
         11    1    3    3    0    0 -0.38973401975E+01  0.27451221363E+02  0.24783846419E+02  0.37188679171E+02  0.51100000000E-03 0. -1.
        -11    1    3    3    0    0 -0.28614405086E+00 -0.23017200224E+01  0.34608955468E+01  0.41662443191E+01  0.51100000000E-03 0.  1.
         12    1    3    3    0    0  0.12040962010E+02 -0.26365917734E+02 -0.11289798697E+02  0.31106364923E+02  0.00000000000E+00 0. -1.
</event>
<event>
 7    1  0.1333056E-013  0.7246153E+02  0.7816164E-02  0.1226708E+00
        -11   -1    0    0    0    0  0.00000000000E+00  0.00000000000E+00  0.45593999997E+02  0.45594000000E+02  0.51100000000E-03 0. -1.
         11   -1    0    0    0    0 -0.00000000000E+00 -0.00000000000E+00 -0.45593999997E+02  0.45594000000E+02  0.51100000000E-03 0.  1.
    9900012    2    1    2    0    0 -0.17662339327E+02  0.58177532168E+01  0.22081704895E+01  0.72461534772E+02  0.69999953726E+02 0.  0.
         12    1    1    2    0    0  0.17662339327E+02 -0.58177532168E+01 -0.22081704895E+01  0.18726465228E+02  0.00000000000E+00 0. -1.
         11    1    3    3    0    0  0.20266742001E+02 -0.10321465874E+02 -0.43141871552E+01  0.23149205174E+02  0.51100000000E-03 0. -1.
        -11    1    3    3    0    0 -0.16494642476E+02  0.20486603703E+01 -0.94254488361E+01  0.19107834146E+02  0.51100000000E-03 0.  1.
         12    1    3    3    0    0 -0.21434438852E+02  0.14090558721E+02  0.15947806481E+02  0.30204495452E+02  0.00000000000E+00 0. -1.
</event>
<event>
 7    1  0.1333056E-013  0.7246157E+02  0.7816164E-02  0.1226708E+00
        -11   -1    0    0    0    0  0.00000000000E+00  0.00000000000E+00  0.45593999997E+02  0.45594000000E+02  0.51100000000E-03 0. -1.
         11   -1    0    0    0    0 -0.00000000000E+00 -0.00000000000E+00 -0.45593999997E+02  0.45594000000E+02  0.51100000000E-03 0.  1.
    9900012    2    1    2    0    0 -0.11157310574E+02 -0.14689135284E+02 -0.32284266534E+01  0.72461574466E+02  0.70000005435E+02 0.  0.
         12    1    1    2    0    0  0.11157310574E+02  0.14689135284E+02  0.32284266534E+01  0.18726425534E+02  0.00000000000E+00 0. -1.
         11    1    3    3    0    0  0.15616128698E+01  0.16791304003E+02 -0.15148741959E+02  0.22668720918E+02  0.51100000000E-03 0. -1.
        -11    1    3    3    0    0 -0.11768999259E+00 -0.12007067452E+02  0.21557076946E+02  0.24675718560E+02  0.51100000000E-03 0.  1.
        -12    1    3    3    0    0 -0.12601233451E+02 -0.19473371835E+02 -0.96367616406E+01  0.25117134988E+02  0.00000000000E+00 0.  1.
</event>
<event>
 7    1  0.1333056E-013  0.7246154E+02  0.7816164E-02  0.1226708E+00
        -11   -1    0    0    0    0  0.00000000000E+00  0.00000000000E+00  0.45593999997E+02  0.45594000000E+02  0.51100000000E-03 0.  1.
         11   -1    0    0    0    0 -0.00000000000E+00 -0.00000000000E+00 -0.45593999997E+02  0.45594000000E+02  0.51100000000E-03 0. -1.
    9900012    2    1    2    0    0  0.77524746095E+01  0.17035585922E+02  0.60697118209E+00  0.72461535723E+02  0.69999954965E+02 0.  0.
         12    1    1    2    0    0 -0.77524746095E+01 -0.17035585922E+02 -0.60697118209E+00  0.18726464277E+02  0.00000000000E+00 0. -1.
         11    1    3    3    0    0 -0.24444714727E+02  0.75193670298E+01  0.97874432389E+01  0.27383918712E+02  0.51100000000E-03 0. -1.
        -11    1    3    3    0    0  0.28229605379E+02  0.15417456374E+02  0.15524336571E+01  0.32202773660E+02  0.51100000000E-03 0.  1.
         12    1    3    3    0    0  0.39675839574E+01 -0.59012374813E+01 -0.10732905714E+02  0.12874843352E+02  0.00000000000E+00 0. -1.
</event>
<event>
 7    1  0.1333056E-013  0.7246153E+02  0.7816164E-02  0.1226708E+00
        -11   -1    0    0    0    0  0.00000000000E+00  0.00000000000E+00  0.45593999997E+02  0.45594000000E+02  0.51100000000E-03 0. -1.
         11   -1    0    0    0    0 -0.00000000000E+00 -0.00000000000E+00 -0.45593999997E+02  0.45594000000E+02  0.51100000000E-03 0.  1.
    9900012    2    1    2    0    0  0.17858282593E+02  0.11489411788E+00 -0.56346297451E+01  0.72461534498E+02  0.69999953368E+02 0.  0.
         12    1    1    2    0    0 -0.17858282593E+02 -0.11489411788E+00  0.56346297451E+01  0.18726465502E+02  0.00000000000E+00 0. -1.
         11    1    3    3    0    0  0.24773555748E+02  0.93444240650E+01  0.73257800484E+01  0.27472065431E+02  0.51100000000E-03 0. -1.
        -11    1    3    3    0    0 -0.22249849155E+02  0.41802412511E+01 -0.81214674118E+01  0.24051786576E+02  0.51100000000E-03 0.  1.
         12    1    3    3    0    0  0.15334576000E+02 -0.13409771198E+02 -0.48389423818E+01  0.20937682490E+02  0.00000000000E+00 0. -1.
</event>
<event>
 7    1  0.1333056E-013  0.7246157E+02  0.7816164E-02  0.1226708E+00
        -11   -1    0    0    0    0  0.00000000000E+00  0.00000000000E+00  0.45593999997E+02  0.45594000000E+02  0.51100000000E-03 0.  1.
         11   -1    0    0    0    0 -0.00000000000E+00 -0.00000000000E+00 -0.45593999997E+02  0.45594000000E+02  0.51100000000E-03 0. -1.
    9900012    2    1    2    0    0 -0.39023464859E+01 -0.13826120209E+02  0.12012049989E+02  0.72461568063E+02  0.69999997094E+02 0.  0.
         12    1    1    2    0    0  0.39023464859E+01  0.13826120209E+02 -0.12012049989E+02  0.18726431937E+02  0.00000000000E+00 0. -1.
         11    1    3    3    0    0  0.13743249916E+02 -0.90597484522E+00 -0.33303144362E+01  0.14169993055E+02  0.51100000000E-03 0. -1.
        -11    1    3    3    0    0 -0.11617915929E+02  0.16499075372E+02  0.19395463543E+02  0.27988916824E+02  0.51100000000E-03 0.  1.
        -12    1    3    3    0    0 -0.60276804721E+01 -0.29419220736E+02 -0.40530991177E+01  0.30302658185E+02  0.00000000000E+00 0.  1.
</event>
<event>
 7    1  0.1333056E-013  0.7246156E+02  0.7816164E-02  0.1226708E+00
        -11   -1    0    0    0    0  0.00000000000E+00  0.00000000000E+00  0.45593999997E+02  0.45594000000E+02  0.51100000000E-03 0.  1.
         11   -1    0    0    0    0 -0.00000000000E+00 -0.00000000000E+00 -0.45593999997E+02  0.45594000000E+02  0.51100000000E-03 0. -1.
    9900012    2    1    2    0    0 -0.18713515943E+02  0.26521919624E+00  0.64311526902E+00  0.72461558335E+02  0.69999984421E+02 0.  0.
         12    1    1    2    0    0  0.18713515943E+02 -0.26521919624E+00 -0.64311526902E+00  0.18726441665E+02  0.00000000000E+00 0. -1.
         11    1    3    3    0    0 -0.36952512935E+01 -0.13396761732E+02 -0.12797883292E+02  0.18892165679E+02  0.51100000000E-03 0. -1.
        -11    1    3    3    0    0 -0.22890697245E+01  0.27958183062E+02 -0.31630984068E+01  0.28229506409E+02  0.51100000000E-03 0.  1.
        -12    1    3    3    0    0 -0.12729194925E+02 -0.14296202134E+02  0.16604096968E+02  0.25339886247E+02  0.00000000000E+00 0.  1.
</event>
<event>
 7    1  0.1333056E-013  0.7246154E+02  0.7816164E-02  0.1226708E+00
        -11   -1    0    0    0    0  0.00000000000E+00  0.00000000000E+00  0.45593999997E+02  0.45594000000E+02  0.51100000000E-03 0. -1.
         11   -1    0    0    0    0 -0.00000000000E+00 -0.00000000000E+00 -0.45593999997E+02  0.45594000000E+02  0.51100000000E-03 0.  1.
    9900012    2    1    2    0    0 -0.12849509864E+02  0.56917985705E+01 -0.12376345735E+02  0.72461537214E+02  0.69999956907E+02 0.  0.
         12    1    1    2    0    0  0.12849509864E+02 -0.56917985705E+01  0.12376345735E+02  0.18726462786E+02  0.00000000000E+00 0. -1.
         11    1    3    3    0    0  0.13188328594E+01 -0.25116572460E+02 -0.21318491698E+02  0.32970587207E+02  0.51100000000E-03 0. -1.
        -11    1    3    3    0    0  0.18614751996E+00  0.16233688300E+02 -0.18883215302E+01  0.16344205248E+02  0.51100000000E-03 0.  1.
         12    1    3    3    0    0 -0.14354490243E+02  0.14574682730E+02  0.10830467493E+02  0.23146744759E+02  0.00000000000E+00 0. -1.
</event>
<event>
 7    1  0.1333056E-013  0.7246176E+02  0.7816164E-02  0.1226708E+00
        -11   -1    0    0    0    0  0.00000000000E+00  0.00000000000E+00  0.45593999997E+02  0.45594000000E+02  0.51100000000E-03 0.  1.
         11   -1    0    0    0    0 -0.00000000000E+00 -0.00000000000E+00 -0.45593999997E+02  0.45594000000E+02  0.51100000000E-03 0. -1.
    9900012    2    1    2    0    0 -0.13518640337E+01  0.17452726513E+02  0.66518377204E+01  0.72461757874E+02  0.70000244356E+02 0.  0.
         12    1    1    2    0    0  0.13518640337E+01 -0.17452726513E+02 -0.66518377204E+01  0.18726242126E+02  0.00000000000E+00 0. -1.
         11    1    3    3    0    0  0.18345747640E+02  0.63997587843E+01 -0.92585621756E+01  0.21523111829E+02  0.51100000000E-03 0. -1.
        -11    1    3    3    0    0 -0.26916923112E+02  0.17140249786E+02 -0.60212613296E+00  0.31916633104E+02  0.51100000000E-03 0.  1.
         12    1    3    3    0    0  0.72193114378E+01 -0.60872820566E+01  0.16512526029E+02  0.19022012941E+02  0.00000000000E+00 0. -1.
</event>
<event>
 7    1  0.1333056E-013  0.7246155E+02  0.7816164E-02  0.1226708E+00
        -11   -1    0    0    0    0  0.00000000000E+00  0.00000000000E+00  0.45593999997E+02  0.45594000000E+02  0.51100000000E-03 0.  1.
         11   -1    0    0    0    0 -0.00000000000E+00 -0.00000000000E+00 -0.45593999997E+02  0.45594000000E+02  0.51100000000E-03 0. -1.
    9900012    2    1    2    0    0  0.49461867469E+01 -0.12198415197E+02 -0.13319675045E+02  0.72461552394E+02  0.69999976681E+02 0.  0.
         12    1    1    2    0    0 -0.49461867469E+01  0.12198415197E+02  0.13319675045E+02  0.18726447606E+02  0.00000000000E+00 0. -1.
         11    1    3    3    0    0  0.24934654728E+02 -0.31119679624E+02 -0.39637043506E+01  0.40073462774E+02  0.51100000000E-03 0. -1.
        -11    1    3    3    0    0 -0.22054434746E+02  0.16588927051E+02 -0.69694947685E+01  0.28463387892E+02  0.51100000000E-03 0.  1.
        -12    1    3    3    0    0  0.20659667652E+01  0.23323373757E+01 -0.23864759258E+01  0.39247017279E+01  0.00000000000E+00 0.  1.
</event>
<event>
 7    1  0.1333056E-013  0.7246162E+02  0.7816164E-02  0.1226708E+00
        -11   -1    0    0    0    0  0.00000000000E+00  0.00000000000E+00  0.45593999997E+02  0.45594000000E+02  0.51100000000E-03 0.  1.
         11   -1    0    0    0    0 -0.00000000000E+00 -0.00000000000E+00 -0.45593999997E+02  0.45594000000E+02  0.51100000000E-03 0. -1.
    9900012    2    1    2    0    0  0.90957121864E+01 -0.16168810971E+02  0.25524407496E+01  0.72461618017E+02  0.70000062168E+02 0.  0.
         12    1    1    2    0    0 -0.90957121864E+01  0.16168810971E+02 -0.25524407496E+01  0.18726381983E+02  0.00000000000E+00 0. -1.
         11    1    3    3    0    0  0.16868600939E+02 -0.11694325601E+01 -0.25426612146E+02  0.30535714756E+02  0.51100000000E-03 0. -1.
        -11    1    3    3    0    0 -0.49422164649E+01  0.32971660821E+01  0.21507872507E+02  0.22313345509E+02  0.51100000000E-03 0.  1.
         12    1    3    3    0    0 -0.28306722875E+01 -0.18296544493E+02  0.64711803893E+01  0.19612557753E+02  0.00000000000E+00 0. -1.
</event>
<event>
 7    1  0.1333056E-013  0.7246159E+02  0.7816164E-02  0.1226708E+00
        -11   -1    0    0    0    0  0.00000000000E+00  0.00000000000E+00  0.45593999997E+02  0.45594000000E+02  0.51100000000E-03 0.  1.
         11   -1    0    0    0    0 -0.00000000000E+00 -0.00000000000E+00 -0.45593999997E+02  0.45594000000E+02  0.51100000000E-03 0. -1.
    9900012    2    1    2    0    0  0.16058722696E+02 -0.95736570225E+01 -0.10681247909E+01  0.72461591536E+02  0.70000027671E+02 0.  0.
         12    1    1    2    0    0 -0.16058722696E+02  0.95736570225E+01  0.10681247909E+01  0.18726408464E+02  0.00000000000E+00 0. -1.
         11    1    3    3    0    0 -0.99136547543E+01  0.16533089258E+02 -0.31977713774E+01  0.19540965509E+02  0.51100000000E-03 0. -1.
        -11    1    3    3    0    0  0.35251481950E+02 -0.16983391092E+02  0.54074693768E+01  0.39501180716E+02  0.51100000000E-03 0.  1.
        -12    1    3    3    0    0 -0.92791044994E+01 -0.91233551880E+01 -0.32778227902E+01  0.13419445310E+02  0.00000000000E+00 0.  1.
</event>
<event>
 7    1  0.1333056E-013  0.7246147E+02  0.7816164E-02  0.1226708E+00
        -11   -1    0    0    0    0  0.00000000000E+00  0.00000000000E+00  0.45593999997E+02  0.45594000000E+02  0.51100000000E-03 0. -1.
         11   -1    0    0    0    0 -0.00000000000E+00 -0.00000000000E+00 -0.45593999997E+02  0.45594000000E+02  0.51100000000E-03 0.  1.
    9900012    2    1    2    0    0 -0.16268467538E+02 -0.92368180062E+01  0.83727989750E+00  0.72461471210E+02  0.69999870924E+02 0.  0.
         12    1    1    2    0    0  0.16268467538E+02  0.92368180062E+01 -0.83727989750E+00  0.18726528790E+02  0.00000000000E+00 0. -1.
         11    1    3    3    0    0  0.14331364213E+02 -0.12138013300E+02  0.16409750203E+02  0.24939913173E+02  0.51100000000E-03 0. -1.
        -11    1    3    3    0    0 -0.33420402621E+02 -0.41597607615E+01 -0.19549176611E+02  0.38940945384E+02  0.51100000000E-03 0.  1.
         12    1    3    3    0    0  0.28205708705E+01  0.70609560555E+01  0.39767063064E+01  0.85806126530E+01  0.00000000000E+00 0. -1.
</event>
<event>
 7    1  0.1592283E-013  0.7246153E+02  0.7816164E-02  0.1226708E+00
        -11   -1    0    0    0    0  0.00000000000E+00  0.00000000000E+00  0.45593999997E+02  0.45594000000E+02  0.51100000000E-03 0. -1.
         11   -1    0    0    0    0 -0.00000000000E+00 -0.00000000000E+00 -0.45593999997E+02  0.45594000000E+02  0.51100000000E-03 0.  1.
    9900012    2    1    2    0    0 -0.17634471315E+02 -0.52565609743E+01 -0.34748774026E+01  0.72461527166E+02  0.69999943817E+02 0.  0.
         12    1    1    2    0    0  0.17634471315E+02  0.52565609743E+01  0.34748774026E+01  0.18726472834E+02  0.00000000000E+00 0. -1.
         11    1    3    3    0    0  0.27493664238E+01 -0.27620074844E+01  0.16015097891E+02  0.16482447081E+02  0.51100000000E-03 0. -1.
        -11    1    3    3    0    0 -0.32591069524E+02 -0.13610654916E+02 -0.91023716026E+01  0.36473016176E+02  0.51100000000E-03 0.  1.
        -12    1    3    3    0    0  0.12207231785E+02  0.11116101426E+02 -0.10387603691E+02  0.19506063909E+02  0.00000000000E+00 0.  1.
</event>
<event>
 7    1  0.1333056E-013  0.7246157E+02  0.7816164E-02  0.1226708E+00
        -11   -1    0    0    0    0  0.00000000000E+00  0.00000000000E+00  0.45593999997E+02  0.45594000000E+02  0.51100000000E-03 0. -1.
         11   -1    0    0    0    0 -0.00000000000E+00 -0.00000000000E+00 -0.45593999997E+02  0.45594000000E+02  0.51100000000E-03 0.  1.
    9900012    2    1    2    0    0  0.12969353171E+02  0.54848187555E+01 -0.12344703618E+02  0.72461573062E+02  0.70000003605E+02 0.  0.
         12    1    1    2    0    0 -0.12969353171E+02 -0.54848187555E+01  0.12344703618E+02  0.18726426938E+02  0.00000000000E+00 0. -1.
         11    1    3    3    0    0  0.13367782744E+02 -0.10887753528E+02  0.10803186463E+02  0.20345752146E+02  0.51100000000E-03 0. -1.
        -11    1    3    3    0    0  0.70623670306E+01  0.71446215687E+01 -0.34354886316E+02  0.35793586849E+02  0.51100000000E-03 0.  1.
        -12    1    3    3    0    0 -0.74607966037E+01  0.92279507144E+01  0.11206996235E+02  0.16322234068E+02  0.00000000000E+00 0.  1.
</event>
<event>
 7    1  0.1333056E-013  0.7246157E+02  0.7816164E-02  0.1226708E+00
        -11   -1    0    0    0    0  0.00000000000E+00  0.00000000000E+00  0.45593999997E+02  0.45594000000E+02  0.51100000000E-03 0. -1.
         11   -1    0    0    0    0 -0.00000000000E+00 -0.00000000000E+00 -0.45593999997E+02  0.45594000000E+02  0.51100000000E-03 0.  1.
    9900012    2    1    2    0    0 -0.91696057246E+01  0.14750262096E+02  0.70019401681E+01  0.72461573027E+02  0.70000003560E+02 0.  0.
         12    1    1    2    0    0  0.91696057246E+01 -0.14750262096E+02 -0.70019401681E+01  0.18726426973E+02  0.00000000000E+00 0. -1.
         11    1    3    3    0    0  0.38044348292E+01 -0.11331172429E+02 -0.10417857719E+02  0.15855628424E+02  0.51100000000E-03 0. -1.
        -11    1    3    3    0    0  0.16046651376E+01  0.26170072422E+02 -0.79046054824E+01  0.27384857657E+02  0.51100000000E-03 0.  1.
        -12    1    3    3    0    0 -0.14578705691E+02 -0.88637896459E-01  0.25324403370E+02  0.29221086947E+02  0.00000000000E+00 0.  1.
</event>
<event>
 7    1  0.1333056E-013  0.7246155E+02  0.7816164E-02  0.1226708E+00
        -11   -1    0    0    0    0  0.00000000000E+00  0.00000000000E+00  0.45593999997E+02  0.45594000000E+02  0.51100000000E-03 0. -1.
         11   -1    0    0    0    0 -0.00000000000E+00 -0.00000000000E+00 -0.45593999997E+02  0.45594000000E+02  0.51100000000E-03 0.  1.
    9900012    2    1    2    0    0 -0.14284625572E+02  0.84045607465E+01 -0.87173812415E+01  0.72461550663E+02  0.69999974426E+02 0.  0.
         12    1    1    2    0    0  0.14284625572E+02 -0.84045607465E+01  0.87173812415E+01  0.18726449337E+02  0.00000000000E+00 0. -1.
         11    1    3    3    0    0  0.10494993456E+02  0.54595020103E+01 -0.11094924921E+02  0.16218767188E+02  0.51100000000E-03 0. -1.
        -11    1    3    3    0    0 -0.22596645548E+02  0.21804165727E+02  0.13565917295E+02  0.34206200394E+02  0.51100000000E-03 0.  1.
        -12    1    3    3    0    0 -0.21829734800E+01 -0.18859106990E+02 -0.11188373616E+02  0.22036583081E+02  0.00000000000E+00 0.  1.
</event>
<event>
 7    1  0.1333056E-013  0.7246160E+02  0.7816164E-02  0.1226708E+00
        -11   -1    0    0    0    0  0.00000000000E+00  0.00000000000E+00  0.45593999997E+02  0.45594000000E+02  0.51100000000E-03 0.  1.
         11   -1    0    0    0    0 -0.00000000000E+00 -0.00000000000E+00 -0.45593999997E+02  0.45594000000E+02  0.51100000000E-03 0. -1.
    9900012    2    1    2    0    0 -0.25307428560E+01 -0.13657587042E+02 -0.12559605089E+02  0.72461600901E+02  0.70000039871E+02 0.  0.
         12    1    1    2    0    0  0.25307428560E+01  0.13657587042E+02  0.12559605089E+02  0.18726399099E+02  0.00000000000E+00 0. -1.
         11    1    3    3    0    0  0.81467039174E+01  0.99101486330E+01 -0.13807050558E+02  0.18847134425E+02  0.51100000000E-03 0. -1.
        -11    1    3    3    0    0 -0.26580707475E+02 -0.14245376088E+02 -0.10293410017E+02  0.31865640426E+02  0.51100000000E-03 0.  1.
        -12    1    3    3    0    0  0.15903260701E+02 -0.93223595870E+01  0.11540855486E+02  0.21748826050E+02  0.00000000000E+00 0.  1.
</event>
<event>
 7    1  0.1333056E-013  0.7246163E+02  0.7816164E-02  0.1226708E+00
        -11   -1    0    0    0    0  0.00000000000E+00  0.00000000000E+00  0.45593999997E+02  0.45594000000E+02  0.51100000000E-03 0.  1.
         11   -1    0    0    0    0 -0.00000000000E+00 -0.00000000000E+00 -0.45593999997E+02  0.45594000000E+02  0.51100000000E-03 0. -1.
    9900012    2    1    2    0    0  0.30758630979E+01 -0.11793878469E+02  0.14216909008E+02  0.72461628091E+02  0.70000075291E+02 0.  0.
         12    1    1    2    0    0 -0.30758630979E+01  0.11793878469E+02 -0.14216909008E+02  0.18726371909E+02  0.00000000000E+00 0. -1.
         11    1    3    3    0    0 -0.16491329827E+02 -0.23457607593E+02 -0.98646724048E+00  0.28691399954E+02  0.51100000000E-03 0. -1.
        -11    1    3    3    0    0  0.30248291855E+01  0.21398181348E+02  0.10406142177E+02  0.23985819808E+02  0.51100000000E-03 0.  1.
         12    1    3    3    0    0  0.16542363739E+02 -0.97344522236E+01  0.47972340716E+01  0.19784408328E+02  0.00000000000E+00 0. -1.
</event>
<event>
 7    1  0.1333056E-013  0.7246152E+02  0.7816164E-02  0.1226708E+00
        -11   -1    0    0    0    0  0.00000000000E+00  0.00000000000E+00  0.45593999997E+02  0.45594000000E+02  0.51100000000E-03 0.  1.
         11   -1    0    0    0    0 -0.00000000000E+00 -0.00000000000E+00 -0.45593999997E+02  0.45594000000E+02  0.51100000000E-03 0. -1.
    9900012    2    1    2    0    0  0.51771720190E+01  0.77670069380E+01  0.16234270137E+02  0.72461520518E+02  0.69999935157E+02 0.  0.
         12    1    1    2    0    0 -0.51771720190E+01 -0.77670069380E+01 -0.16234270137E+02  0.18726479482E+02  0.00000000000E+00 0. -1.
         11    1    3    3    0    0 -0.57367826336E+01 -0.19217164290E+02  0.61839637130E+01  0.20986936075E+02  0.51100000000E-03 0. -1.
        -11    1    3    3    0    0 -0.84545059807E+01  0.28713306412E+02  0.80453140685E+00  0.29942944202E+02  0.51100000000E-03 0.  1.
        -12    1    3    3    0    0  0.19368460633E+02 -0.17291351835E+01  0.92457750176E+01  0.21531640241E+02  0.00000000000E+00 0.  1.
</event>
<event>
 7    1  0.1333056E-013  0.7246153E+02  0.7816164E-02  0.1226708E+00
        -11   -1    0    0    0    0  0.00000000000E+00  0.00000000000E+00  0.45593999997E+02  0.45594000000E+02  0.51100000000E-03 0.  1.
         11   -1    0    0    0    0 -0.00000000000E+00 -0.00000000000E+00 -0.45593999997E+02  0.45594000000E+02  0.51100000000E-03 0. -1.
    9900012    2    1    2    0    0  0.15902207046E+02  0.83176606788E+01  0.53494767939E+01  0.72461532899E+02  0.69999951286E+02 0.  0.
         12    1    1    2    0    0 -0.15902207046E+02 -0.83176606788E+01 -0.53494767939E+01  0.18726467101E+02  0.00000000000E+00 0. -1.
         11    1    3    3    0    0 -0.13951695012E+02 -0.97562427930E+01  0.90970411471E+01  0.19302596329E+02  0.51100000000E-03 0.  1.
        -11    1    3    3    0    0  0.23753883082E+02 -0.14597818931E+01  0.12635322810E+02  0.26944931015E+02  0.51100000000E-03 0. -1.
         12    1    3    3    0    0  0.61000189764E+01  0.19533685365E+02 -0.16382887163E+02  0.26214005555E+02  0.00000000000E+00 0. -1.
</event>
<event>
 7    1  0.1333056E-013  0.7246160E+02  0.7816164E-02  0.1226708E+00
        -11   -1    0    0    0    0  0.00000000000E+00  0.00000000000E+00  0.45593999997E+02  0.45594000000E+02  0.51100000000E-03 0.  1.
         11   -1    0    0    0    0 -0.00000000000E+00 -0.00000000000E+00 -0.45593999997E+02  0.45594000000E+02  0.51100000000E-03 0. -1.
    9900012    2    1    2    0    0  0.95958802439E+01 -0.12756293910E+02  0.97915278341E+01  0.72461602341E+02  0.70000041747E+02 0.  0.
         12    1    1    2    0    0 -0.95958802439E+01  0.12756293910E+02 -0.97915278341E+01  0.18726397659E+02  0.00000000000E+00 0. -1.
         11    1    3    3    0    0  0.27027845217E+02 -0.15178428647E+02 -0.87107475012E+01  0.32198854569E+02  0.51100000000E-03 0. -1.
        -11    1    3    3    0    0 -0.71466879221E+01  0.11083492939E+02  0.22634105652E+02  0.26195833693E+02  0.51100000000E-03 0.  1.
        -12    1    3    3    0    0 -0.10285277051E+02 -0.86613582013E+01 -0.41318303163E+01  0.14066914078E+02  0.00000000000E+00 0.  1.
</event>
<event>
 7    1  0.1333056E-013  0.7246158E+02  0.7816164E-02  0.1226708E+00
        -11   -1    0    0    0    0  0.00000000000E+00  0.00000000000E+00  0.45593999997E+02  0.45594000000E+02  0.51100000000E-03 0.  1.
         11   -1    0    0    0    0 -0.00000000000E+00 -0.00000000000E+00 -0.45593999997E+02  0.45594000000E+02  0.51100000000E-03 0. -1.
    9900012    2    1    2    0    0  0.14844092968E+02 -0.56987060583E+01  0.98922349610E+01  0.72461583917E+02  0.70000017746E+02 0.  0.
         12    1    1    2    0    0 -0.14844092968E+02  0.56987060583E+01 -0.98922349610E+01  0.18726416083E+02  0.00000000000E+00 0. -1.
         11    1    3    3    0    0  0.20423853703E+02  0.57827761598E+01 -0.22601445358E+02  0.31006445019E+02  0.51100000000E-03 0. -1.
        -11    1    3    3    0    0 -0.29493929652E+01  0.56426989649E+01  0.25460604017E+01  0.68572147627E+01  0.51100000000E-03 0.  1.
         12    1    3    3    0    0 -0.26303677694E+01 -0.17124181183E+02  0.29947619917E+02  0.34597924136E+02  0.00000000000E+00 0. -1.
</event>
<event>
 7    1  0.1431402E-013  0.7246154E+02  0.7816164E-02  0.1226708E+00
        -11   -1    0    0    0    0  0.00000000000E+00  0.00000000000E+00  0.45593999997E+02  0.45594000000E+02  0.51100000000E-03 0. -1.
         11   -1    0    0    0    0 -0.00000000000E+00 -0.00000000000E+00 -0.45593999997E+02  0.45594000000E+02  0.51100000000E-03 0.  1.
    9900012    2    1    2    0    0  0.24635207982E+01  0.45354721593E+01 -0.18001134333E+02  0.72461540652E+02  0.69999961385E+02 0.  0.
         12    1    1    2    0    0 -0.24635207982E+01 -0.45354721593E+01  0.18001134333E+02  0.18726459348E+02  0.00000000000E+00 0. -1.
         11    1    3    3    0    0  0.39183123424E+01  0.30516472558E+01  0.10772647416E+02  0.11862362969E+02  0.51100000000E-03 0. -1.
        -11    1    3    3    0    0 -0.22993168580E+02  0.56859577682E+01 -0.30465419368E+02  0.38589606043E+02  0.51100000000E-03 0.  1.
        -12    1    3    3    0    0  0.21538377036E+02 -0.42021328647E+01  0.16916376184E+01  0.22009571640E+02  0.00000000000E+00 0.  1.
</event>
<event>
 7    1  0.1333056E-013  0.7246159E+02  0.7816164E-02  0.1226708E+00
        -11   -1    0    0    0    0  0.00000000000E+00  0.00000000000E+00  0.45593999997E+02  0.45594000000E+02  0.51100000000E-03 0.  1.
         11   -1    0    0    0    0 -0.00000000000E+00 -0.00000000000E+00 -0.45593999997E+02  0.45594000000E+02  0.51100000000E-03 0. -1.
    9900012    2    1    2    0    0 -0.88581875747E+01  0.10675723705E+02  0.12579345321E+02  0.72461588373E+02  0.70000023551E+02 0.  0.
         12    1    1    2    0    0  0.88581875747E+01 -0.10675723705E+02 -0.12579345321E+02  0.18726411627E+02  0.00000000000E+00 0. -1.
         11    1    3    3    0    0 -0.14735298357E+02  0.71653816393E+01 -0.14321390893E+02  0.21761754274E+02  0.51100000000E-03 0. -1.
        -11    1    3    3    0    0 -0.66727310234E+01 -0.85862610814E+01  0.30950265330E+02  0.32805001797E+02  0.51100000000E-03 0.  1.
         12    1    3    3    0    0  0.12549841806E+02  0.12096603147E+02 -0.40495291162E+01  0.17894832301E+02  0.00000000000E+00 0. -1.
</event>
<event>
 7    1  0.1333056E-013  0.7246155E+02  0.7816164E-02  0.1226708E+00
        -11   -1    0    0    0    0  0.00000000000E+00  0.00000000000E+00  0.45593999997E+02  0.45594000000E+02  0.51100000000E-03 0. -1.
         11   -1    0    0    0    0 -0.00000000000E+00 -0.00000000000E+00 -0.45593999997E+02  0.45594000000E+02  0.51100000000E-03 0.  1.
    9900012    2    1    2    0    0  0.49991989220E+00 -0.11849361936E+02 -0.14492154438E+02  0.72461552434E+02  0.69999976734E+02 0.  0.
         12    1    1    2    0    0 -0.49991989220E+00  0.11849361936E+02  0.14492154438E+02  0.18726447566E+02  0.00000000000E+00 0. -1.
         11    1    3    3    0    0 -0.19080401820E+02 -0.17404810622E+02  0.15803605755E+02  0.30277766125E+02  0.51100000000E-03 0. -1.
        -11    1    3    3    0    0  0.94251092798E+01  0.20482264054E+01  0.40885936993E+00  0.96537600234E+01  0.51100000000E-03 0.  1.
         12    1    3    3    0    0  0.10155212432E+02  0.35072222810E+01 -0.30704619563E+02  0.32530026286E+02  0.00000000000E+00 0. -1.
</event>
<event>
 7    1  0.1333056E-013  0.7246147E+02  0.7816164E-02  0.1226708E+00
        -11   -1    0    0    0    0  0.00000000000E+00  0.00000000000E+00  0.45593999997E+02  0.45594000000E+02  0.51100000000E-03 0. -1.
         11   -1    0    0    0    0 -0.00000000000E+00 -0.00000000000E+00 -0.45593999997E+02  0.45594000000E+02  0.51100000000E-03 0.  1.
    9900012    2    1    2    0    0  0.12940898837E+02 -0.56573641787E-01 -0.13535610153E+02  0.72461473213E+02  0.69999873533E+02 0.  0.
         12    1    1    2    0    0 -0.12940898837E+02  0.56573641787E-01  0.13535610153E+02  0.18726526787E+02  0.00000000000E+00 0. -1.
         11    1    3    3    0    0  0.21162797602E+01  0.13384311927E+02  0.24365963157E+02  0.27880434119E+02  0.51100000000E-03 0. -1.
        -11    1    3    3    0    0 -0.23606745358E+01 -0.70274835252E+01 -0.62429176957E+01  0.96918693025E+01  0.51100000000E-03 0.  1.
         12    1    3    3    0    0  0.13185293613E+02 -0.64134020439E+01 -0.31658655615E+02  0.34889169792E+02  0.00000000000E+00 0. -1.
</event>
<event>
 7    1  0.1333056E-013  0.7246159E+02  0.7816164E-02  0.1226708E+00
        -11   -1    0    0    0    0  0.00000000000E+00  0.00000000000E+00  0.45593999997E+02  0.45594000000E+02  0.51100000000E-03 0. -1.
         11   -1    0    0    0    0 -0.00000000000E+00 -0.00000000000E+00 -0.45593999997E+02  0.45594000000E+02  0.51100000000E-03 0.  1.
    9900012    2    1    2    0    0 -0.67184542670E+01 -0.14260871008E+02  0.10107834961E+02  0.72461590914E+02  0.70000026862E+02 0.  0.
         12    1    1    2    0    0  0.67184542670E+01  0.14260871008E+02 -0.10107834961E+02  0.18726409086E+02  0.00000000000E+00 0. -1.
         11    1    3    3    0    0  0.55367664137E+01  0.12386745607E+02  0.26010452417E+02  0.29336511112E+02  0.51100000000E-03 0. -1.
        -11    1    3    3    0    0 -0.20367961974E+02 -0.13308978700E+02 -0.11451669458E+02  0.26890956150E+02  0.51100000000E-03 0.  1.
        -12    1    3    3    0    0  0.81127412929E+01 -0.13338637914E+02 -0.44509479977E+01  0.16234123653E+02  0.00000000000E+00 0.  1.
</event>
<event>
 7    1  0.1333056E-013  0.7246154E+02  0.7816164E-02  0.1226708E+00
        -11   -1    0    0    0    0  0.00000000000E+00  0.00000000000E+00  0.45593999997E+02  0.45594000000E+02  0.51100000000E-03 0.  1.
         11   -1    0    0    0    0 -0.00000000000E+00 -0.00000000000E+00 -0.45593999997E+02  0.45594000000E+02  0.51100000000E-03 0. -1.
    9900012    2    1    2    0    0 -0.12429809240E+02  0.13734234720E+02 -0.27479046744E+01  0.72461539011E+02  0.69999959247E+02 0.  0.
         12    1    1    2    0    0  0.12429809240E+02 -0.13734234720E+02  0.27479046744E+01  0.18726460989E+02  0.00000000000E+00 0. -1.
         11    1    3    3    0    0 -0.17016200416E+02  0.15868124095E+01 -0.13423584231E+02  0.21731582181E+02  0.51100000000E-03 0. -1.
        -11    1    3    3    0    0  0.22526067838E+02 -0.58053184344E+01  0.17258947364E+00  0.23262743642E+02  0.51100000000E-03 0.  1.
        -12    1    3    3    0    0 -0.17939676662E+02  0.17952740745E+02  0.10503090083E+02  0.27467213187E+02  0.00000000000E+00 0.  1.
</event>
<event>
 7    1  0.1333056E-013  0.7246157E+02  0.7816164E-02  0.1226708E+00
        -11   -1    0    0    0    0  0.00000000000E+00  0.00000000000E+00  0.45593999997E+02  0.45594000000E+02  0.51100000000E-03 0.  1.
         11   -1    0    0    0    0 -0.00000000000E+00 -0.00000000000E+00 -0.45593999997E+02  0.45594000000E+02  0.51100000000E-03 0. -1.
    9900012    2    1    2    0    0 -0.14586636213E+02 -0.67572363613E+01 -0.96046323064E+01  0.72461570522E+02  0.70000000297E+02 0.  0.
         12    1    1    2    0    0  0.14586636213E+02  0.67572363613E+01  0.96046323064E+01  0.18726429478E+02  0.00000000000E+00 0. -1.
         11    1    3    3    0    0  0.17782459887E+02  0.18648275934E+02 -0.81601838008E+01  0.27028922932E+02  0.51100000000E-03 0. -1.
        -11    1    3    3    0    0 -0.95002386511E+01 -0.15867842028E+02  0.61938004359E+01  0.19504002388E+02  0.51100000000E-03 0.  1.
         12    1    3    3    0    0 -0.22868857448E+02 -0.95376702672E+01 -0.76382489415E+01  0.25928645202E+02  0.00000000000E+00 0. -1.
</event>
<event>
 7    1  0.1333056E-013  0.7246156E+02  0.7816164E-02  0.1226708E+00
        -11   -1    0    0    0    0  0.00000000000E+00  0.00000000000E+00  0.45593999997E+02  0.45594000000E+02  0.51100000000E-03 0.  1.
         11   -1    0    0    0    0 -0.00000000000E+00 -0.00000000000E+00 -0.45593999997E+02  0.45594000000E+02  0.51100000000E-03 0. -1.
    9900012    2    1    2    0    0  0.50339539032E+01 -0.11548657208E+02  0.13855234169E+02  0.72461556422E+02  0.69999981929E+02 0.  0.
         12    1    1    2    0    0 -0.50339539032E+01  0.11548657208E+02 -0.13855234169E+02  0.18726443578E+02  0.00000000000E+00 0. -1.
         11    1    3    3    0    0 -0.12383019913E+02 -0.36334035829E+01 -0.21674413480E+02  0.25225403936E+02  0.51100000000E-03 0. -1.
        -11    1    3    3    0    0  0.12418292992E+02 -0.16092618675E+02  0.17521210972E+02  0.26836154919E+02  0.51100000000E-03 0.  1.
        -12    1    3    3    0    0  0.49986808249E+01  0.81773650504E+01  0.18008436678E+02  0.20399997567E+02  0.00000000000E+00 0.  1.
</event>
<event>
 7    1  0.1333056E-013  0.7246154E+02  0.7816164E-02  0.1226708E+00
        -11   -1    0    0    0    0  0.00000000000E+00  0.00000000000E+00  0.45593999997E+02  0.45594000000E+02  0.51100000000E-03 0. -1.
         11   -1    0    0    0    0 -0.00000000000E+00 -0.00000000000E+00 -0.45593999997E+02  0.45594000000E+02  0.51100000000E-03 0.  1.
    9900012    2    1    2    0    0  0.82805088971E+01 -0.65237779453E+01 -0.15477526001E+02  0.72461539646E+02  0.69999960075E+02 0.  0.
         12    1    1    2    0    0 -0.82805088971E+01  0.65237779453E+01  0.15477526001E+02  0.18726460354E+02  0.00000000000E+00 0. -1.
         11    1    3    3    0    0 -0.15148696488E+02  0.17799965365E+02 -0.19642256958E+01  0.23455915141E+02  0.51100000000E-03 0. -1.
        -11    1    3    3    0    0  0.15663925374E+02 -0.32284561510E+02 -0.89374245403E+01  0.36980116654E+02  0.51100000000E-03 0.  1.
        -12    1    3    3    0    0  0.77652800108E+01  0.79608182004E+01 -0.45758757647E+01  0.12025507851E+02  0.00000000000E+00 0.  1.
</event>
<event>
 7    1  0.1333056E-013  0.7246160E+02  0.7816164E-02  0.1226708E+00
        -11   -1    0    0    0    0  0.00000000000E+00  0.00000000000E+00  0.45593999997E+02  0.45594000000E+02  0.51100000000E-03 0. -1.
         11   -1    0    0    0    0 -0.00000000000E+00 -0.00000000000E+00 -0.45593999997E+02  0.45594000000E+02  0.51100000000E-03 0.  1.
    9900012    2    1    2    0    0 -0.67189240146E+01  0.64274863643E+01 -0.16254896975E+02  0.72461596273E+02  0.70000033842E+02 0.  0.
         12    1    1    2    0    0  0.67189240146E+01 -0.64274863643E+01  0.16254896975E+02  0.18726403727E+02  0.00000000000E+00 0. -1.
         11    1    3    3    0    0 -0.18704070593E+01  0.22606188566E+02  0.42203229673E+01  0.23072696207E+02  0.51100000000E-03 0. -1.
        -11    1    3    3    0    0  0.18000905209E+02 -0.60518249726E+01 -0.13932853869E+02  0.23553802050E+02  0.51100000000E-03 0.  1.
        -12    1    3    3    0    0 -0.22849422164E+02 -0.10126877229E+02 -0.65423660737E+01  0.25835098016E+02  0.00000000000E+00 0.  1.
</event>
<event>
 7    1  0.1333056E-013  0.7246157E+02  0.7816164E-02  0.1226708E+00
        -11   -1    0    0    0    0  0.00000000000E+00  0.00000000000E+00  0.45593999997E+02  0.45594000000E+02  0.51100000000E-03 0. -1.
         11   -1    0    0    0    0 -0.00000000000E+00 -0.00000000000E+00 -0.45593999997E+02  0.45594000000E+02  0.51100000000E-03 0.  1.
    9900012    2    1    2    0    0  0.17737680549E+02 -0.55458977579E+01  0.23015007845E+01  0.72461569506E+02  0.69999998972E+02 0.  0.
         12    1    1    2    0    0 -0.17737680549E+02  0.55458977579E+01 -0.23015007845E+01  0.18726430494E+02  0.00000000000E+00 0. -1.
         11    1    3    3    0    0  0.72069315774E+01  0.15316076390E+02  0.10257035143E+02  0.19792140585E+02  0.51100000000E-03 0. -1.
        -11    1    3    3    0    0 -0.28180901693E+01 -0.21118351709E+02 -0.23804367172E+02  0.31946428718E+02  0.51100000000E-03 0.  1.
        -12    1    3    3    0    0  0.13348839141E+02  0.25637756123E+00  0.15848832813E+02  0.20723000202E+02  0.00000000000E+00 0.  1.
</event>
<event>
 7    1  0.1333056E-013  0.7246154E+02  0.7816164E-02  0.1226708E+00
        -11   -1    0    0    0    0  0.00000000000E+00  0.00000000000E+00  0.45593999997E+02  0.45594000000E+02  0.51100000000E-03 0.  1.
         11   -1    0    0    0    0 -0.00000000000E+00 -0.00000000000E+00 -0.45593999997E+02  0.45594000000E+02  0.51100000000E-03 0. -1.
    9900012    2    1    2    0    0 -0.15512309893E+02  0.14603721445E+01  0.10388251751E+02  0.72461542261E+02  0.69999963481E+02 0.  0.
         12    1    1    2    0    0  0.15512309893E+02 -0.14603721445E+01 -0.10388251751E+02  0.18726457739E+02  0.00000000000E+00 0. -1.
         11    1    3    3    0    0  0.15443879547E+02 -0.80729893152E+01 -0.31349202701E+01  0.17706334948E+02  0.51100000000E-03 0. -1.
        -11    1    3    3    0    0 -0.22459926727E+02  0.15075598930E+02  0.26778805173E+02  0.38063452266E+02  0.51100000000E-03 0.  1.
         12    1    3    3    0    0 -0.84962627131E+01 -0.55422374699E+01 -0.13255633152E+02  0.16691755047E+02  0.00000000000E+00 0. -1.
</event>
<event>
 7    1  0.1333056E-013  0.7246137E+02  0.7816164E-02  0.1226709E+00
        -11   -1    0    0    0    0  0.00000000000E+00  0.00000000000E+00  0.45593999997E+02  0.45594000000E+02  0.51100000000E-03 0. -1.
         11   -1    0    0    0    0 -0.00000000000E+00 -0.00000000000E+00 -0.45593999997E+02  0.45594000000E+02  0.51100000000E-03 0.  1.
    9900012    2    1    2    0    0  0.63310002823E+00 -0.14233040043E+02  0.12153459768E+02  0.72461365790E+02  0.69999733595E+02 0.  0.
         12    1    1    2    0    0 -0.63310002823E+00  0.14233040043E+02 -0.12153459768E+02  0.18726634210E+02  0.00000000000E+00 0. -1.
         11    1    3    3    0    0  0.28572467030E+01 -0.15768591632E+02 -0.14801800683E+01  0.16093578660E+02  0.51100000000E-03 0. -1.
        -11    1    3    3    0    0 -0.23340076989E+02  0.10195943158E+01  0.23427483587E+02  0.33085431142E+02  0.51100000000E-03 0.  1.
        -12    1    3    3    0    0  0.21115930314E+02  0.51595727401E+00 -0.97938437505E+01  0.23282355988E+02  0.00000000000E+00 0.  1.
</event>
<event>
 7    1  0.1333056E-013  0.7246164E+02  0.7816164E-02  0.1226708E+00
        -11   -1    0    0    0    0  0.00000000000E+00  0.00000000000E+00  0.45593999997E+02  0.45594000000E+02  0.51100000000E-03 0.  1.
         11   -1    0    0    0    0 -0.00000000000E+00 -0.00000000000E+00 -0.45593999997E+02  0.45594000000E+02  0.51100000000E-03 0. -1.
    9900012    2    1    2    0    0  0.18632143909E+02  0.18746570024E+01  0.73465714309E-01  0.72461640964E+02  0.70000092061E+02 0.  0.
         12    1    1    2    0    0 -0.18632143909E+02 -0.18746570024E+01 -0.73465714309E-01  0.18726359036E+02  0.00000000000E+00 0. -1.
         11    1    3    3    0    0 -0.15033981041E+02 -0.19015787661E+02  0.40421612807E+01  0.24575594283E+02  0.51100000000E-03 0.  1.
        -11    1    3    3    0    0  0.32491923221E+02  0.10688937003E+02 -0.10422388907E+02  0.35757581569E+02  0.51100000000E-03 0. -1.
        -12    1    3    3    0    0  0.11742017296E+01  0.10201507660E+02  0.64536933407E+01  0.12128465112E+02  0.00000000000E+00 0.  1.
</event>
<event>
 7    1  0.1333056E-013  0.7246160E+02  0.7816164E-02  0.1226708E+00
        -11   -1    0    0    0    0  0.00000000000E+00  0.00000000000E+00  0.45593999997E+02  0.45594000000E+02  0.51100000000E-03 0. -1.
         11   -1    0    0    0    0 -0.00000000000E+00 -0.00000000000E+00 -0.45593999997E+02  0.45594000000E+02  0.51100000000E-03 0.  1.
    9900012    2    1    2    0    0 -0.11708212951E+01  0.83911461317E+01 -0.16700173784E+02  0.72461602580E+02  0.70000042058E+02 0.  0.
         12    1    1    2    0    0  0.11708212951E+01 -0.83911461317E+01  0.16700173784E+02  0.18726397420E+02  0.00000000000E+00 0. -1.
         11    1    3    3    0    0  0.75482574498E+01 -0.47402553226E+01  0.50277545952E+01  0.10233500261E+02  0.51100000000E-03 0. -1.
        -11    1    3    3    0    0 -0.39517144210E+01 -0.13249680607E+02 -0.30933759326E+02  0.33883145506E+02  0.51100000000E-03 0.  1.
        -12    1    3    3    0    0 -0.47673643239E+01  0.26381082062E+02  0.92058309464E+01  0.28344956813E+02  0.00000000000E+00 0.  1.
</event>
<event>
 8    1  0.1333056E-013  0.7246162E+02  0.7816164E-02  0.1226708E+00
        -11   -1    0    0    0    0  0.00000000000E+00  0.00000000000E+00  0.45593999997E+02  0.45594000000E+02  0.51100000000E-03 0.  1.
         11   -1    0    0    0    0 -0.00000000000E+00 -0.00000000000E+00 -0.45593999997E+02  0.45594000000E+02  0.51100000000E-03 0. -1.
    9900012    2    1    2    0    0  0.33524590268E+01 -0.51444242552E+01  0.17691050615E+02  0.72461618761E+02  0.70000063137E+02 0.  0.
        -24    2    3    3    0    0  0.17330419025E+02 -0.13065501409E+02  0.17862266161E+02  0.56394380542E+02  0.48889823620E+02 0.  0.
         12    1    1    2    0    0 -0.33524590268E+01  0.51444242552E+01 -0.17691050615E+02  0.18726381239E+02  0.00000000000E+00 0. -1.
         11    1    4    4    0    0  0.12651413304E+02 -0.28518989089E+02  0.23747584095E+02  0.39208911587E+02  0.51100000000E-03 0. -1.
        -11    1    3    3    0    0 -0.13977959998E+02  0.79210771536E+01 -0.17121554610E+00  0.16067238220E+02  0.51100000000E-03 0.  1.
        -12    1    4    4    0    0  0.46790057208E+01  0.15453487680E+02 -0.58853179337E+01  0.17185468955E+02  0.00000000000E+00 0.  1.
</event>
<event>
 7    1  0.1333056E-013  0.7246159E+02  0.7816164E-02  0.1226708E+00
        -11   -1    0    0    0    0  0.00000000000E+00  0.00000000000E+00  0.45593999997E+02  0.45594000000E+02  0.51100000000E-03 0. -1.
         11   -1    0    0    0    0 -0.00000000000E+00 -0.00000000000E+00 -0.45593999997E+02  0.45594000000E+02  0.51100000000E-03 0.  1.
    9900012    2    1    2    0    0  0.32361253459E+01  0.15406307411E+02 -0.10141583122E+02  0.72461587543E+02  0.70000022469E+02 0.  0.
         12    1    1    2    0    0 -0.32361253459E+01 -0.15406307411E+02  0.10141583122E+02  0.18726412457E+02  0.00000000000E+00 0. -1.
         11    1    3    3    0    0 -0.59864136841E+00  0.36774898282E+01  0.16272078651E+02  0.16693197621E+02  0.51100000000E-03 0. -1.
        -11    1    3    3    0    0 -0.23730697583E+01 -0.17558351309E+02 -0.16556187276E+02  0.24249422636E+02  0.51100000000E-03 0.  1.
        -12    1    3    3    0    0  0.62078364726E+01  0.29287168892E+02 -0.98574744964E+01  0.31518967287E+02  0.00000000000E+00 0.  1.
</event>
<event>
 7    1  0.1333056E-013  0.7246156E+02  0.7816164E-02  0.1226708E+00
        -11   -1    0    0    0    0  0.00000000000E+00  0.00000000000E+00  0.45593999997E+02  0.45594000000E+02  0.51100000000E-03 0. -1.
         11   -1    0    0    0    0 -0.00000000000E+00 -0.00000000000E+00 -0.45593999997E+02  0.45594000000E+02  0.51100000000E-03 0.  1.
    9900012    2    1    2    0    0  0.11445112215E+02  0.11313059063E+02 -0.95762069015E+01  0.72461557797E+02  0.69999983720E+02 0.  0.
         12    1    1    2    0    0 -0.11445112215E+02 -0.11313059063E+02  0.95762069015E+01  0.18726442203E+02  0.00000000000E+00 0. -1.
         11    1    3    3    0    0  0.51776967432E+01 -0.14484756628E+01  0.84456078552E+01  0.10011738991E+02  0.51100000000E-03 0. -1.
        -11    1    3    3    0    0 -0.24832651142E+02  0.65024648117E+01 -0.16846918564E+02  0.30704417870E+02  0.51100000000E-03 0.  1.
        -12    1    3    3    0    0  0.31100066613E+02  0.62590699138E+01 -0.11748961924E+01  0.31745400936E+02  0.00000000000E+00 0.  1.
</event>
<event>
 7    1  0.1333056E-013  0.7246159E+02  0.7816164E-02  0.1226708E+00
        -11   -1    0    0    0    0  0.00000000000E+00  0.00000000000E+00  0.45593999997E+02  0.45594000000E+02  0.51100000000E-03 0.  1.
         11   -1    0    0    0    0 -0.00000000000E+00 -0.00000000000E+00 -0.45593999997E+02  0.45594000000E+02  0.51100000000E-03 0. -1.
    9900012    2    1    2    0    0  0.65000747852E+01  0.45973035754E+00  0.17556088629E+02  0.72461586244E+02  0.70000020777E+02 0.  0.
         12    1    1    2    0    0 -0.65000747852E+01 -0.45973035754E+00 -0.17556088629E+02  0.18726413756E+02  0.00000000000E+00 0. -1.
         11    1    3    3    0    0  0.27094278496E+01  0.33058845515E+01 -0.94284909062E+01  0.10352116352E+02  0.51100000000E-03 0. -1.
        -11    1    3    3    0    0  0.23764633671E+02  0.32492574279E+01  0.32610488014E+02  0.40481593547E+02  0.51100000000E-03 0.  1.
        -12    1    3    3    0    0 -0.19973986736E+02 -0.60954116219E+01 -0.56259084790E+01  0.21627876344E+02  0.00000000000E+00 0.  1.
</event>
<event>
 7    1  0.1333056E-013  0.7246156E+02  0.7816164E-02  0.1226708E+00
        -11   -1    0    0    0    0  0.00000000000E+00  0.00000000000E+00  0.45593999997E+02  0.45594000000E+02  0.51100000000E-03 0.  1.
         11   -1    0    0    0    0 -0.00000000000E+00 -0.00000000000E+00 -0.45593999997E+02  0.45594000000E+02  0.51100000000E-03 0. -1.
    9900012    2    1    2    0    0 -0.17803419791E+02 -0.28949596913E+01 -0.50335888257E+01  0.72461559752E+02  0.69999986267E+02 0.  0.
         12    1    1    2    0    0  0.17803419791E+02  0.28949596913E+01  0.50335888257E+01  0.18726440248E+02  0.00000000000E+00 0. -1.
         11    1    3    3    0    0 -0.11651660271E+02  0.23250282275E+02 -0.38062888077E+01  0.26283543286E+02  0.51100000000E-03 0. -1.
        -11    1    3    3    0    0 -0.13003829371E+02 -0.32595813430E+02  0.41514408338E+01  0.35338662860E+02  0.51100000000E-03 0.  1.
         12    1    3    3    0    0  0.68520698501E+01  0.64505714643E+01 -0.53787408518E+01  0.10839353606E+02  0.00000000000E+00 0. -1.
</event>
<event>
 7    1  0.1333056E-013  0.7246158E+02  0.7816164E-02  0.1226708E+00
        -11   -1    0    0    0    0  0.00000000000E+00  0.00000000000E+00  0.45593999997E+02  0.45594000000E+02  0.51100000000E-03 0.  1.
         11   -1    0    0    0    0 -0.00000000000E+00 -0.00000000000E+00 -0.45593999997E+02  0.45594000000E+02  0.51100000000E-03 0. -1.
    9900012    2    1    2    0    0 -0.68803169903E+01  0.17381112154E+02 -0.11121500594E+01  0.72461582848E+02  0.70000016353E+02 0.  0.
         12    1    1    2    0    0  0.68803169903E+01 -0.17381112154E+02  0.11121500594E+01  0.18726417152E+02  0.00000000000E+00 0. -1.
         11    1    3    3    0    0 -0.22457340358E+02  0.73657343702E+01  0.11892164014E+02  0.26457697254E+02  0.51100000000E-03 0.  1.
        -11    1    3    3    0    0  0.14829106423E+02 -0.92765271948E+01  0.64052255305E+01  0.18627486907E+02  0.51100000000E-03 0. -1.
        -12    1    3    3    0    0  0.74791694455E+00  0.19291904979E+02 -0.19409539604E+02  0.27376398687E+02  0.00000000000E+00 0.  1.
</event>
<event>
 8    1  0.1333056E-013  0.7246179E+02  0.7816164E-02  0.1226707E+00
        -11   -1    0    0    0    0  0.00000000000E+00  0.00000000000E+00  0.45593999997E+02  0.45594000000E+02  0.51100000000E-03 0.  1.
         11   -1    0    0    0    0 -0.00000000000E+00 -0.00000000000E+00 -0.45593999997E+02  0.45594000000E+02  0.51100000000E-03 0. -1.
    9900012    2    1    2    0    0  0.12641583376E+02  0.48385904188E+01  0.12940228431E+02  0.72461785772E+02  0.70000280699E+02 0.  0.
         24    2    3    3    0    0  0.17830149309E+02 -0.38628373758E+01  0.21585535820E+02  0.59143474984E+02  0.51953628743E+02 0.  0.
         12    1    1    2    0    0 -0.12641583376E+02 -0.48385904188E+01 -0.12940228431E+02  0.18726214228E+02  0.00000000000E+00 0. -1.
         11    1    3    3    0    0 -0.51885659339E+01  0.87014277946E+01 -0.86453073889E+01  0.13318310787E+02  0.51100000000E-03 0. -1.
        -11    1    4    4    0    0  0.15562745025E+02  0.14513930632E+02  0.31596365544E+02  0.38094402882E+02  0.51100000000E-03 0.  1.
         12    1    4    4    0    0  0.22674042849E+01 -0.18376768008E+02 -0.10010829724E+02  0.21049072102E+02  0.00000000000E+00 0. -1.
</event>
<event>
 7    1  0.1333056E-013  0.7246159E+02  0.7816164E-02  0.1226708E+00
        -11   -1    0    0    0    0  0.00000000000E+00  0.00000000000E+00  0.45593999997E+02  0.45594000000E+02  0.51100000000E-03 0. -1.
         11   -1    0    0    0    0 -0.00000000000E+00 -0.00000000000E+00 -0.45593999997E+02  0.45594000000E+02  0.51100000000E-03 0.  1.
    9900012    2    1    2    0    0  0.85192683886E+01  0.14101851321E+02 -0.89015979216E+01  0.72461585764E+02  0.70000020153E+02 0.  0.
         12    1    1    2    0    0 -0.85192683886E+01 -0.14101851321E+02  0.89015979216E+01  0.18726414236E+02  0.00000000000E+00 0. -1.
         11    1    3    3    0    0  0.10627889400E+02 -0.12347426700E+01 -0.32610973149E+02  0.34321308142E+02  0.51100000000E-03 0.  1.
        -11    1    3    3    0    0 -0.10341600571E+02  0.68492713951E+00  0.17272526819E+02  0.20143435917E+02  0.51100000000E-03 0. -1.
        -12    1    3    3    0    0  0.82329795592E+01  0.14651666852E+02  0.64368484084E+01  0.17996841706E+02  0.00000000000E+00 0.  1.
</event>
<event>
 7    1  0.1333056E-013  0.7246152E+02  0.7816164E-02  0.1226708E+00
        -11   -1    0    0    0    0  0.00000000000E+00  0.00000000000E+00  0.45593999997E+02  0.45594000000E+02  0.51100000000E-03 0. -1.
         11   -1    0    0    0    0 -0.00000000000E+00 -0.00000000000E+00 -0.45593999997E+02  0.45594000000E+02  0.51100000000E-03 0.  1.
    9900012    2    1    2    0    0 -0.43006355794E+01 -0.84998067013E+01 -0.16122615904E+02  0.72461523451E+02  0.69999938978E+02 0.  0.
         12    1    1    2    0    0  0.43006355794E+01  0.84998067013E+01  0.16122615904E+02  0.18726476549E+02  0.00000000000E+00 0. -1.
         11    1    3    3    0    0  0.17556609470E+02  0.16098900637E+01 -0.35730033917E+02  0.39842961813E+02  0.51100000000E-03 0. -1.
        -11    1    3    3    0    0 -0.13304703653E+02 -0.78446971721E+01  0.63934038393E+01  0.16716160621E+02  0.51100000000E-03 0.  1.
         12    1    3    3    0    0 -0.85525413965E+01 -0.22649995929E+01  0.13214014173E+02  0.15902401016E+02  0.00000000000E+00 0. -1.
</event>
<event>
 7    1  0.1333056E-013  0.7246156E+02  0.7816164E-02  0.1226708E+00
        -11   -1    0    0    0    0  0.00000000000E+00  0.00000000000E+00  0.45593999997E+02  0.45594000000E+02  0.51100000000E-03 0. -1.
         11   -1    0    0    0    0 -0.00000000000E+00 -0.00000000000E+00 -0.45593999997E+02  0.45594000000E+02  0.51100000000E-03 0.  1.
    9900012    2    1    2    0    0  0.15221201159E+02  0.88929014759E+01 -0.63174921190E+01  0.72461564994E+02  0.69999993095E+02 0.  0.
         12    1    1    2    0    0 -0.15221201159E+02 -0.88929014759E+01  0.63174921190E+01  0.18726435006E+02  0.00000000000E+00 0. -1.
         11    1    3    3    0    0  0.28485498096E+02  0.13465720480E+02  0.14028767769E+02  0.34489934114E+02  0.51100000000E-03 0. -1.
        -11    1    3    3    0    0 -0.18161240420E+02 -0.34045318952E+00 -0.17115807890E+01  0.18244891642E+02  0.51100000000E-03 0.  1.
        -12    1    3    3    0    0  0.48969434828E+01 -0.42323658142E+01 -0.18634679099E+02  0.19726739238E+02  0.00000000000E+00 0.  1.
</event>
<event>
 7    1  0.1333056E-013  0.7246157E+02  0.7816164E-02  0.1226708E+00
        -11   -1    0    0    0    0  0.00000000000E+00  0.00000000000E+00  0.45593999997E+02  0.45594000000E+02  0.51100000000E-03 0.  1.
         11   -1    0    0    0    0 -0.00000000000E+00 -0.00000000000E+00 -0.45593999997E+02  0.45594000000E+02  0.51100000000E-03 0. -1.
    9900012    2    1    2    0    0  0.14518933170E+02 -0.15366632161E+01  0.11726831845E+02  0.72461565760E+02  0.69999994093E+02 0.  0.
         12    1    1    2    0    0 -0.14518933170E+02  0.15366632161E+01 -0.11726831845E+02  0.18726434240E+02  0.00000000000E+00 0. -1.
         11    1    3    3    0    0 -0.12738642879E+02  0.20396413973E+02  0.13338127016E+02  0.27498951942E+02  0.51100000000E-03 0. -1.
        -11    1    3    3    0    0  0.61538079504E+01 -0.56115520029E+01  0.12315804055E+02  0.14867343339E+02  0.51100000000E-03 0.  1.
         12    1    3    3    0    0  0.21103768099E+02 -0.16321525186E+02 -0.13927099226E+02  0.30095270479E+02  0.00000000000E+00 0. -1.
</event>
<event>
 7    1  0.1333056E-013  0.7246142E+02  0.7816164E-02  0.1226708E+00
        -11   -1    0    0    0    0  0.00000000000E+00  0.00000000000E+00  0.45593999997E+02  0.45594000000E+02  0.51100000000E-03 0.  1.
         11   -1    0    0    0    0 -0.00000000000E+00 -0.00000000000E+00 -0.45593999997E+02  0.45594000000E+02  0.51100000000E-03 0. -1.
    9900012    2    1    2    0    0 -0.23099827868E+01  0.15520032975E+02 -0.10221419653E+02  0.72461418258E+02  0.69999801944E+02 0.  0.
         12    1    1    2    0    0  0.23099827868E+01 -0.15520032975E+02  0.10221419653E+02  0.18726581742E+02  0.00000000000E+00 0. -1.
         11    1    3    3    0    0 -0.57923922051E+01  0.26376882868E+02 -0.18786154982E+02  0.32896981268E+02  0.51100000000E-03 0. -1.
        -11    1    3    3    0    0  0.16503465251E+02 -0.16424546577E+02  0.54553071088E+00  0.23290077277E+02  0.51100000000E-03 0.  1.
         12    1    3    3    0    0 -0.13021055833E+02  0.55676966838E+01  0.80192046186E+01  0.16274359713E+02  0.00000000000E+00 0. -1.
</event>
<event>
 7    1  0.1333056E-013  0.7246157E+02  0.7816164E-02  0.1226708E+00
        -11   -1    0    0    0    0  0.00000000000E+00  0.00000000000E+00  0.45593999997E+02  0.45594000000E+02  0.51100000000E-03 0. -1.
         11   -1    0    0    0    0 -0.00000000000E+00 -0.00000000000E+00 -0.45593999997E+02  0.45594000000E+02  0.51100000000E-03 0.  1.
    9900012    2    1    2    0    0 -0.74421755252E+01  0.15851092355E+00 -0.17183365409E+02  0.72461570841E+02  0.70000000713E+02 0.  0.
         12    1    1    2    0    0  0.74421755252E+01 -0.15851092355E+00  0.17183365409E+02  0.18726429159E+02  0.00000000000E+00 0. -1.
         11    1    3    3    0    0  0.37695718333E+01  0.51442620206E+01 -0.26130145403E+02  0.26897167185E+02  0.51100000000E-03 0. -1.
        -11    1    3    3    0    0 -0.12322366123E+02 -0.19816026696E+02  0.16793425490E+02  0.28749517576E+02  0.51100000000E-03 0.  1.
        -12    1    3    3    0    0  0.11106187647E+01  0.14830275599E+02 -0.78466454956E+01  0.16814886081E+02  0.00000000000E+00 0.  1.
</event>
<event>
 7    1  0.1333056E-013  0.7246156E+02  0.7816164E-02  0.1226708E+00
        -11   -1    0    0    0    0  0.00000000000E+00  0.00000000000E+00  0.45593999997E+02  0.45594000000E+02  0.51100000000E-03 0.  1.
         11   -1    0    0    0    0 -0.00000000000E+00 -0.00000000000E+00 -0.45593999997E+02  0.45594000000E+02  0.51100000000E-03 0. -1.
    9900012    2    1    2    0    0 -0.10554687917E+02 -0.42322886463E+01  0.14878373181E+02  0.72461556325E+02  0.69999981802E+02 0.  0.
         12    1    1    2    0    0  0.10554687917E+02  0.42322886463E+01 -0.14878373181E+02  0.18726443675E+02  0.00000000000E+00 0. -1.
         11    1    3    3    0    0  0.38703891377E+01  0.13021112661E+02  0.27832951807E+02  0.30970994391E+02  0.51100000000E-03 0. -1.
        -11    1    3    3    0    0 -0.24075104939E+02 -0.11683151303E+02 -0.14173276862E+02  0.30281817638E+02  0.51100000000E-03 0.  1.
         12    1    3    3    0    0  0.96500278849E+01 -0.55702500047E+01  0.12186982360E+01  0.11208744296E+02  0.00000000000E+00 0. -1.
</event>
<event>
 7    1  0.1333056E-013  0.7246146E+02  0.7816164E-02  0.1226708E+00
        -11   -1    0    0    0    0  0.00000000000E+00  0.00000000000E+00  0.45593999997E+02  0.45594000000E+02  0.51100000000E-03 0.  1.
         11   -1    0    0    0    0 -0.00000000000E+00 -0.00000000000E+00 -0.45593999997E+02  0.45594000000E+02  0.51100000000E-03 0. -1.
    9900012    2    1    2    0    0  0.24992018112E+01 -0.44623924229E+01  0.18014556840E+02  0.72461462307E+02  0.69999859326E+02 0.  0.
         12    1    1    2    0    0 -0.24992018112E+01  0.44623924229E+01 -0.18014556840E+02  0.18726537693E+02  0.00000000000E+00 0. -1.
         11    1    3    3    0    0 -0.23349599690E+02  0.13406487076E+02  0.12066765808E+02  0.29504991760E+02  0.51100000000E-03 0. -1.
        -11    1    3    3    0    0  0.21683689643E+02  0.13752917801E+01  0.80150993382E+01  0.23158489624E+02  0.51100000000E-03 0.  1.
         12    1    3    3    0    0  0.41651118590E+01 -0.19244171279E+02 -0.20673083063E+01  0.19797980923E+02  0.00000000000E+00 0. -1.
</event>
<event>
 7    1  0.1333056E-013  0.7246158E+02  0.7816164E-02  0.1226708E+00
        -11   -1    0    0    0    0  0.00000000000E+00  0.00000000000E+00  0.45593999997E+02  0.45594000000E+02  0.51100000000E-03 0.  1.
         11   -1    0    0    0    0 -0.00000000000E+00 -0.00000000000E+00 -0.45593999997E+02  0.45594000000E+02  0.51100000000E-03 0. -1.
    9900012    2    1    2    0    0 -0.19821410297E+01  0.89985222633E+01  0.16302657166E+02  0.72461577046E+02  0.70000008796E+02 0.  0.
         12    1    1    2    0    0  0.19821410297E+01 -0.89985222633E+01 -0.16302657166E+02  0.18726422954E+02  0.00000000000E+00 0. -1.
         11    1    3    3    0    0 -0.98168465523E+01  0.49652575299E+01 -0.46643502839E+01  0.11949076215E+02  0.51100000000E-03 0. -1.
        -11    1    3    3    0    0  0.59627564712E+01 -0.25603961944E+02  0.48778996218E+01  0.26737824088E+02  0.51100000000E-03 0.  1.
        -12    1    3    3    0    0  0.18719490513E+01  0.29637226678E+02  0.16089107828E+02  0.33774676743E+02  0.00000000000E+00 0.  1.
</event>
<event>
 7    1  0.1333056E-013  0.7246158E+02  0.7816164E-02  0.1226708E+00
        -11   -1    0    0    0    0  0.00000000000E+00  0.00000000000E+00  0.45593999997E+02  0.45594000000E+02  0.51100000000E-03 0. -1.
         11   -1    0    0    0    0 -0.00000000000E+00 -0.00000000000E+00 -0.45593999997E+02  0.45594000000E+02  0.51100000000E-03 0.  1.
    9900012    2    1    2    0    0  0.10450614100E+02  0.10898609727E+02  0.11076276843E+02  0.72461576482E+02  0.70000008061E+02 0.  0.
         12    1    1    2    0    0 -0.10450614100E+02 -0.10898609727E+02 -0.11076276843E+02  0.18726423518E+02  0.00000000000E+00 0. -1.
         11    1    3    3    0    0  0.14712507689E+02  0.14033695433E+02 -0.11209601166E+02  0.23217615049E+02  0.51100000000E-03 0.  1.
        -11    1    3    3    0    0 -0.21454820447E+02 -0.97452088122E+01  0.52244902373E+01  0.24136563834E+02  0.51100000000E-03 0. -1.
        -12    1    3    3    0    0  0.17192926859E+02  0.66101231062E+01  0.17061387772E+02  0.25107397598E+02  0.00000000000E+00 0.  1.
</event>
<event>
 7    1  0.1333056E-013  0.7246152E+02  0.7816164E-02  0.1226708E+00
        -11   -1    0    0    0    0  0.00000000000E+00  0.00000000000E+00  0.45593999997E+02  0.45594000000E+02  0.51100000000E-03 0.  1.
         11   -1    0    0    0    0 -0.00000000000E+00 -0.00000000000E+00 -0.45593999997E+02  0.45594000000E+02  0.51100000000E-03 0. -1.
    9900012    2    1    2    0    0  0.10053620632E+02  0.70873090010E+01  0.14120049004E+02  0.72461520871E+02  0.69999935617E+02 0.  0.
         12    1    1    2    0    0 -0.10053620632E+02 -0.70873090010E+01 -0.14120049004E+02  0.18726479129E+02  0.00000000000E+00 0. -1.
         11    1    3    3    0    0 -0.93166014147E+01  0.80454854820E+01 -0.15683189358E+02  0.19937184537E+02  0.51100000000E-03 0. -1.
        -11    1    3    3    0    0  0.16279757350E+02 -0.18834085840E+02  0.19795461447E+02  0.31805873404E+02  0.51100000000E-03 0.  1.
         12    1    3    3    0    0  0.30904646966E+01  0.17875909359E+02  0.10007776915E+02  0.20718462931E+02  0.00000000000E+00 0. -1.
</event>
<event>
 7    1  0.1333056E-013  0.7246165E+02  0.7816164E-02  0.1226708E+00
        -11   -1    0    0    0    0  0.00000000000E+00  0.00000000000E+00  0.45593999997E+02  0.45594000000E+02  0.51100000000E-03 0.  1.
         11   -1    0    0    0    0 -0.00000000000E+00 -0.00000000000E+00 -0.45593999997E+02  0.45594000000E+02  0.51100000000E-03 0. -1.
    9900012    2    1    2    0    0  0.14735847620E+02  0.93728291283E+01 -0.67587888366E+01  0.72461645376E+02  0.70000097808E+02 0.  0.
         12    1    1    2    0    0 -0.14735847620E+02 -0.93728291283E+01  0.67587888366E+01  0.18726354624E+02  0.00000000000E+00 0. -1.
         11    1    3    3    0    0 -0.19821413701E+02  0.15487742428E+02 -0.66332405773E+01  0.26014582208E+02  0.51100000000E-03 0.  1.
        -11    1    3    3    0    0  0.37288474135E+02 -0.78267905671E+01 -0.71062750828E+01  0.38758071414E+02  0.51100000000E-03 0. -1.
        -12    1    3    3    0    0 -0.27312128141E+01  0.17118772675E+01  0.69807268235E+01  0.76889917544E+01  0.00000000000E+00 0.  1.
</event>
<event>
 7    1  0.1333056E-013  0.7246171E+02  0.7816164E-02  0.1226708E+00
        -11   -1    0    0    0    0  0.00000000000E+00  0.00000000000E+00  0.45593999997E+02  0.45594000000E+02  0.51100000000E-03 0.  1.
         11   -1    0    0    0    0 -0.00000000000E+00 -0.00000000000E+00 -0.45593999997E+02  0.45594000000E+02  0.51100000000E-03 0. -1.
    9900012    2    1    2    0    0 -0.14157316434E+02  0.51459349988E+01  0.11124918068E+02  0.72461706783E+02  0.70000177801E+02 0.  0.
         12    1    1    2    0    0  0.14157316434E+02 -0.51459349988E+01 -0.11124918068E+02  0.18726293217E+02  0.00000000000E+00 0. -1.
         11    1    3    3    0    0 -0.20897606616E+02 -0.89254162996E+01 -0.19876886510E+02  0.30190456041E+02  0.51100000000E-03 0. -1.
        -11    1    3    3    0    0  0.13089648457E+02  0.16780418692E+02  0.19543150373E+02  0.28893876080E+02  0.51100000000E-03 0.  1.
        -12    1    3    3    0    0 -0.63493582751E+01 -0.27090673932E+01  0.11458654205E+02  0.13377374662E+02  0.00000000000E+00 0.  1.
</event>
<event>
 7    1  0.1333056E-013  0.7246160E+02  0.7816164E-02  0.1226708E+00
        -11   -1    0    0    0    0  0.00000000000E+00  0.00000000000E+00  0.45593999997E+02  0.45594000000E+02  0.51100000000E-03 0.  1.
         11   -1    0    0    0    0 -0.00000000000E+00 -0.00000000000E+00 -0.45593999997E+02  0.45594000000E+02  0.51100000000E-03 0. -1.
    9900012    2    1    2    0    0  0.14760271086E+01  0.12816467119E+02  0.13573420615E+02  0.72461595310E+02  0.70000032587E+02 0.  0.
         12    1    1    2    0    0 -0.14760271086E+01 -0.12816467119E+02 -0.13573420615E+02  0.18726404690E+02  0.00000000000E+00 0. -1.
         11    1    3    3    0    0  0.20853154621E+02 -0.85853423313E+01  0.21415185981E+01  0.22652776050E+02  0.51100000000E-03 0. -1.
        -11    1    3    3    0    0 -0.28972063929E+02  0.16478174841E+02 -0.10073255757E+01  0.33345546022E+02  0.51100000000E-03 0.  1.
        -12    1    3    3    0    0  0.95949364165E+01  0.49236346095E+01  0.12439227592E+02  0.16463273238E+02  0.00000000000E+00 0.  1.
</event>
<event>
 7    1  0.1333056E-013  0.7246154E+02  0.7816164E-02  0.1226708E+00
        -11   -1    0    0    0    0  0.00000000000E+00  0.00000000000E+00  0.45593999997E+02  0.45594000000E+02  0.51100000000E-03 0. -1.
         11   -1    0    0    0    0 -0.00000000000E+00 -0.00000000000E+00 -0.45593999997E+02  0.45594000000E+02  0.51100000000E-03 0.  1.
    9900012    2    1    2    0    0 -0.75726170273E+01  0.36549807858E+01 -0.16732512125E+02  0.72461538102E+02  0.69999958064E+02 0.  0.
         12    1    1    2    0    0  0.75726170273E+01 -0.36549807858E+01  0.16732512125E+02  0.18726461898E+02  0.00000000000E+00 0. -1.
         11    1    3    3    0    0  0.86550202840E+01  0.21637469682E+02 -0.12009071738E+01  0.23335201921E+02  0.51100000000E-03 0. -1.
        -11    1    3    3    0    0 -0.10785370020E+02 -0.30701748010E+02 -0.86312711253E+01  0.33666309255E+02  0.51100000000E-03 0.  1.
         12    1    3    3    0    0 -0.54422672910E+01  0.12719259114E+02 -0.69003338260E+01  0.15460026927E+02  0.00000000000E+00 0. -1.
</event>
<event>
 7    1  0.1333056E-013  0.7246158E+02  0.7816164E-02  0.1226708E+00
        -11   -1    0    0    0    0  0.00000000000E+00  0.00000000000E+00  0.45593999997E+02  0.45594000000E+02  0.51100000000E-03 0. -1.
         11   -1    0    0    0    0 -0.00000000000E+00 -0.00000000000E+00 -0.45593999997E+02  0.45594000000E+02  0.51100000000E-03 0.  1.
    9900012    2    1    2    0    0 -0.16176335493E+02 -0.93277335693E+01  0.14136848681E+01  0.72461576197E+02  0.70000007690E+02 0.  0.
         12    1    1    2    0    0  0.16176335493E+02  0.93277335693E+01 -0.14136848681E+01  0.18726423803E+02  0.00000000000E+00 0. -1.
         11    1    3    3    0    0 -0.29657755076E+02 -0.25042136839E+02 -0.16435764174E+02  0.42152406786E+02  0.51100000000E-03 0.  1.
        -11    1    3    3    0    0  0.12932250102E+02  0.16712813290E+02  0.19193321218E+02  0.28547238052E+02  0.51100000000E-03 0. -1.
        -12    1    3    3    0    0  0.54916948128E+00 -0.99841002064E+00 -0.13438721759E+01  0.17619313590E+01  0.00000000000E+00 0.  1.
</event>
<event>
 7    1  0.1333056E-013  0.7246155E+02  0.7816164E-02  0.1226708E+00
        -11   -1    0    0    0    0  0.00000000000E+00  0.00000000000E+00  0.45593999997E+02  0.45594000000E+02  0.51100000000E-03 0.  1.
         11   -1    0    0    0    0 -0.00000000000E+00 -0.00000000000E+00 -0.45593999997E+02  0.45594000000E+02  0.51100000000E-03 0. -1.
    9900012    2    1    2    0    0  0.17992789087E+02 -0.42030098378E+01  0.30453776774E+01  0.72461546091E+02  0.69999968471E+02 0.  0.
         12    1    1    2    0    0 -0.17992789087E+02  0.42030098378E+01 -0.30453776774E+01  0.18726453909E+02  0.00000000000E+00 0. -1.
         11    1    3    3    0    0  0.31059634852E+00 -0.58117137629E+01 -0.10456927491E+02  0.11967448340E+02  0.51100000000E-03 0. -1.
        -11    1    3    3    0    0  0.25950483401E+02 -0.44443039236E+01  0.30719519922E+02  0.40458229455E+02  0.51100000000E-03 0.  1.
        -12    1    3    3    0    0 -0.82682906629E+01  0.60530078486E+01 -0.17217214754E+02  0.20035868296E+02  0.00000000000E+00 0.  1.
</event>
<event>
 7    1  0.1333056E-013  0.7246160E+02  0.7816164E-02  0.1226708E+00
        -11   -1    0    0    0    0  0.00000000000E+00  0.00000000000E+00  0.45593999997E+02  0.45594000000E+02  0.51100000000E-03 0.  1.
         11   -1    0    0    0    0 -0.00000000000E+00 -0.00000000000E+00 -0.45593999997E+02  0.45594000000E+02  0.51100000000E-03 0. -1.
    9900012    2    1    2    0    0 -0.18506473080E+02 -0.25975696180E+00  0.28497673598E+01  0.72461596353E+02  0.70000033946E+02 0.  0.
         12    1    1    2    0    0  0.18506473080E+02  0.25975696180E+00 -0.28497673598E+01  0.18726403647E+02  0.00000000000E+00 0. -1.
         11    1    3    3    0    0 -0.52945608617E+01  0.18586218294E+02 -0.14048673836E+02  0.23892365350E+02  0.51100000000E-03 0. -1.
        -11    1    3    3    0    0 -0.12154732251E+02 -0.78636438315E+01  0.28865487315E+02  0.32292271035E+02  0.51100000000E-03 0.  1.
         12    1    3    3    0    0 -0.10571799672E+01 -0.10982331424E+02 -0.11967046119E+02  0.16276959968E+02  0.00000000000E+00 0. -1.
</event>
<event>
 7    1  0.1333056E-013  0.7246151E+02  0.7816164E-02  0.1226708E+00
        -11   -1    0    0    0    0  0.00000000000E+00  0.00000000000E+00  0.45593999997E+02  0.45594000000E+02  0.51100000000E-03 0.  1.
         11   -1    0    0    0    0 -0.00000000000E+00 -0.00000000000E+00 -0.45593999997E+02  0.45594000000E+02  0.51100000000E-03 0. -1.
    9900012    2    1    2    0    0  0.12756993518E+02 -0.13697547021E+02 -0.56379063122E+00  0.72461507059E+02  0.69999917624E+02 0.  0.
         12    1    1    2    0    0 -0.12756993518E+02  0.13697547021E+02  0.56379063122E+00  0.18726492941E+02  0.00000000000E+00 0. -1.
         11    1    3    3    0    0  0.14523284031E+01 -0.21987458009E+02 -0.24186238255E+02  0.32718980557E+02  0.51100000000E-03 0. -1.
        -11    1    3    3    0    0  0.18429690206E+02  0.52610963772E+01  0.25379743930E+02  0.31803522106E+02  0.51100000000E-03 0.  1.
         12    1    3    3    0    0 -0.71250250910E+01  0.30288146110E+01 -0.17572963056E+01  0.79390043961E+01  0.00000000000E+00 0. -1.
</event>
<event>
 7    1  0.1333056E-013  0.7246149E+02  0.7816164E-02  0.1226708E+00
        -11   -1    0    0    0    0  0.00000000000E+00  0.00000000000E+00  0.45593999997E+02  0.45594000000E+02  0.51100000000E-03 0. -1.
         11   -1    0    0    0    0 -0.00000000000E+00 -0.00000000000E+00 -0.45593999997E+02  0.45594000000E+02  0.51100000000E-03 0.  1.
    9900012    2    1    2    0    0 -0.15088466486E+02 -0.51809512608E+01  0.98070472361E+01  0.72461487982E+02  0.69999892773E+02 0.  0.
         12    1    1    2    0    0  0.15088466486E+02  0.51809512608E+01 -0.98070472361E+01  0.18726512018E+02  0.00000000000E+00 0. -1.
         11    1    3    3    0    0 -0.12729481066E+02  0.57512604357E+01  0.11710690409E+02  0.18227916911E+02  0.51100000000E-03 0. -1.
        -11    1    3    3    0    0 -0.20122214109E+02 -0.22073714111E+02 -0.10373955714E+02  0.31619160532E+02  0.51100000000E-03 0.  1.
        -12    1    3    3    0    0  0.17763228689E+02  0.11141502414E+02  0.84703125415E+01  0.22614410540E+02  0.00000000000E+00 0.  1.
</event>
<event>
 7    1  0.1333056E-013  0.7246158E+02  0.7816164E-02  0.1226708E+00
        -11   -1    0    0    0    0  0.00000000000E+00  0.00000000000E+00  0.45593999997E+02  0.45594000000E+02  0.51100000000E-03 0.  1.
         11   -1    0    0    0    0 -0.00000000000E+00 -0.00000000000E+00 -0.45593999997E+02  0.45594000000E+02  0.51100000000E-03 0. -1.
    9900012    2    1    2    0    0 -0.12807539528E+02  0.65081159593E+01  0.12012085181E+02  0.72461579293E+02  0.70000011722E+02 0.  0.
         12    1    1    2    0    0  0.12807539528E+02 -0.65081159593E+01 -0.12012085181E+02  0.18726420707E+02  0.00000000000E+00 0. -1.
         11    1    3    3    0    0 -0.20060824083E+02 -0.76434704188E+01 -0.12723406472E+02  0.24954846733E+02  0.51100000000E-03 0. -1.
        -11    1    3    3    0    0 -0.29872358315E+01 -0.39540136403E+01  0.26190227339E+02  0.26654939694E+02  0.51100000000E-03 0.  1.
        -12    1    3    3    0    0  0.10240520386E+02  0.18105600018E+02 -0.14547356857E+01  0.20851792866E+02  0.00000000000E+00 0.  1.
</event>
<event>
 7    1  0.1333056E-013  0.7246151E+02  0.7816164E-02  0.1226708E+00
        -11   -1    0    0    0    0  0.00000000000E+00  0.00000000000E+00  0.45593999997E+02  0.45594000000E+02  0.51100000000E-03 0.  1.
         11   -1    0    0    0    0 -0.00000000000E+00 -0.00000000000E+00 -0.45593999997E+02  0.45594000000E+02  0.51100000000E-03 0. -1.
    9900012    2    1    2    0    0 -0.29707827126E+01  0.21841870038E+01  0.18359877252E+02  0.72461512997E+02  0.69999925359E+02 0.  0.
         12    1    1    2    0    0  0.29707827126E+01 -0.21841870038E+01 -0.18359877252E+02  0.18726487003E+02  0.00000000000E+00 0. -1.
         11    1    3    3    0    0 -0.42171376464E+01 -0.20953597186E+02 -0.46119822957E+01  0.21865677806E+02  0.51100000000E-03 0. -1.
        -11    1    3    3    0    0  0.77318201556E+01  0.28666532103E+02  0.27907319954E+02  0.40747633220E+02  0.51100000000E-03 0.  1.
        -12    1    3    3    0    0 -0.64854652218E+01 -0.55287479133E+01 -0.49354604067E+01  0.98482019708E+01  0.00000000000E+00 0.  1.
</event>
<event>
 7    1  0.1333056E-013  0.7246154E+02  0.7816164E-02  0.1226708E+00
        -11   -1    0    0    0    0  0.00000000000E+00  0.00000000000E+00  0.45593999997E+02  0.45594000000E+02  0.51100000000E-03 0. -1.
         11   -1    0    0    0    0 -0.00000000000E+00 -0.00000000000E+00 -0.45593999997E+02  0.45594000000E+02  0.51100000000E-03 0.  1.
    9900012    2    1    2    0    0 -0.28990398030E+01  0.10726097682E+02 -0.15074045859E+02  0.72461535790E+02  0.69999955051E+02 0.  0.
         12    1    1    2    0    0  0.28990398030E+01 -0.10726097682E+02  0.15074045859E+02  0.18726464210E+02  0.00000000000E+00 0. -1.
         11    1    3    3    0    0 -0.25776079548E+02  0.14058989974E+02 -0.37603357561E+00  0.29363291326E+02  0.51100000000E-03 0. -1.
        -11    1    3    3    0    0  0.15990725596E+02  0.90254443351E+01 -0.20752507549E+02  0.27709718879E+02  0.51100000000E-03 0.  1.
         12    1    3    3    0    0  0.68863141499E+01 -0.12358336627E+02  0.60544952661E+01  0.15388525585E+02  0.00000000000E+00 0. -1.
</event>
<event>
 7    1  0.1333056E-013  0.7246157E+02  0.7816164E-02  0.1226708E+00
        -11   -1    0    0    0    0  0.00000000000E+00  0.00000000000E+00  0.45593999997E+02  0.45594000000E+02  0.51100000000E-03 0.  1.
         11   -1    0    0    0    0 -0.00000000000E+00 -0.00000000000E+00 -0.45593999997E+02  0.45594000000E+02  0.51100000000E-03 0. -1.
    9900012    2    1    2    0    0 -0.87786943307E+01 -0.10217204969E+02  0.13008549293E+02  0.72461571984E+02  0.70000002202E+02 0.  0.
         12    1    1    2    0    0  0.87786943307E+01  0.10217204969E+02 -0.13008549293E+02  0.18726428016E+02  0.00000000000E+00 0. -1.
         11    1    3    3    0    0 -0.96676333454E+01 -0.31364486173E+01 -0.96254942260E+00  0.10209159911E+02  0.51100000000E-03 0. -1.
        -11    1    3    3    0    0  0.24447547823E+02 -0.21739887255E+02  0.50272229118E+01  0.33099520584E+02  0.51100000000E-03 0.  1.
        -12    1    3    3    0    0 -0.23558608808E+02  0.14659130904E+02  0.89438758034E+01  0.29152891490E+02  0.00000000000E+00 0.  1.
</event>
<event>
 7    1  0.1333056E-013  0.7246160E+02  0.7816164E-02  0.1226708E+00
        -11   -1    0    0    0    0  0.00000000000E+00  0.00000000000E+00  0.45593999997E+02  0.45594000000E+02  0.51100000000E-03 0.  1.
         11   -1    0    0    0    0 -0.00000000000E+00 -0.00000000000E+00 -0.45593999997E+02  0.45594000000E+02  0.51100000000E-03 0. -1.
    9900012    2    1    2    0    0  0.69402071806E+01  0.16072920467E+02  0.66462756313E+01  0.72461595438E+02  0.70000032754E+02 0.  0.
         12    1    1    2    0    0 -0.69402071806E+01 -0.16072920467E+02 -0.66462756313E+01  0.18726404562E+02  0.00000000000E+00 0. -1.
         11    1    3    3    0    0  0.13973740890E+02  0.26485580606E+02  0.19998234145E+02  0.36009454088E+02  0.51100000000E-03 0. -1.
        -11    1    3    3    0    0 -0.97213203360E+01 -0.11991374992E+02  0.62131148698E+01  0.16640310692E+02  0.51100000000E-03 0.  1.
         12    1    3    3    0    0  0.26877866270E+01  0.15787148523E+01 -0.19565073384E+02  0.19811830659E+02  0.00000000000E+00 0. -1.
</event>
<event>
 7    1  0.1333056E-013  0.7246157E+02  0.7816164E-02  0.1226708E+00
        -11   -1    0    0    0    0  0.00000000000E+00  0.00000000000E+00  0.45593999997E+02  0.45594000000E+02  0.51100000000E-03 0. -1.
         11   -1    0    0    0    0 -0.00000000000E+00 -0.00000000000E+00 -0.45593999997E+02  0.45594000000E+02  0.51100000000E-03 0.  1.
    9900012    2    1    2    0    0  0.12999409513E+02  0.53808144514E+01 -0.12358862738E+02  0.72461566810E+02  0.69999995461E+02 0.  0.
         12    1    1    2    0    0 -0.12999409513E+02 -0.53808144514E+01  0.12358862738E+02  0.18726433190E+02  0.00000000000E+00 0. -1.
         11    1    3    3    0    0 -0.26132058622E+02  0.46818862944E+01 -0.77003320924E+01  0.27642352680E+02  0.51100000000E-03 0. -1.
        -11    1    3    3    0    0  0.15637267012E+02 -0.46232372371E+01  0.73688843914E+01  0.17894102369E+02  0.51100000000E-03 0.  1.
         12    1    3    3    0    0  0.23494201123E+02  0.53221653941E+01 -0.12027415037E+02  0.26925111761E+02  0.00000000000E+00 0. -1.
</event>
<event>
 7    1  0.1333056E-013  0.7246157E+02  0.7816164E-02  0.1226708E+00
        -11   -1    0    0    0    0  0.00000000000E+00  0.00000000000E+00  0.45593999997E+02  0.45594000000E+02  0.51100000000E-03 0.  1.
         11   -1    0    0    0    0 -0.00000000000E+00 -0.00000000000E+00 -0.45593999997E+02  0.45594000000E+02  0.51100000000E-03 0. -1.
    9900012    2    1    2    0    0  0.55286188125E+01 -0.24574088102E+01  0.17722151646E+02  0.72461571002E+02  0.70000000922E+02 0.  0.
         12    1    1    2    0    0 -0.55286188125E+01  0.24574088102E+01 -0.17722151646E+02  0.18726428998E+02  0.00000000000E+00 0. -1.
         11    1    3    3    0    0 -0.12813989472E+02 -0.87047274703E+01 -0.99579589520E+01  0.18415524789E+02  0.51100000000E-03 0. -1.
        -11    1    3    3    0    0  0.21357524544E+02 -0.13267903960E+02  0.22229486041E+02  0.33560857856E+02  0.51100000000E-03 0.  1.
        -12    1    3    3    0    0 -0.30149162602E+01  0.19515222620E+02  0.54506245571E+01  0.20485188357E+02  0.00000000000E+00 0.  1.
</event>
<event>
 7    1  0.1333056E-013  0.7246167E+02  0.7816164E-02  0.1226708E+00
        -11   -1    0    0    0    0  0.00000000000E+00  0.00000000000E+00  0.45593999997E+02  0.45594000000E+02  0.51100000000E-03 0. -1.
         11   -1    0    0    0    0 -0.00000000000E+00 -0.00000000000E+00 -0.45593999997E+02  0.45594000000E+02  0.51100000000E-03 0.  1.
    9900012    2    1    2    0    0 -0.11178633258E+02 -0.49366071091E+01 -0.14189550746E+02  0.72461674102E+02  0.70000135228E+02 0.  0.
         12    1    1    2    0    0  0.11178633258E+02  0.49366071091E+01  0.14189550746E+02  0.18726325898E+02  0.00000000000E+00 0. -1.
         11    1    3    3    0    0 -0.16407218297E+02 -0.26278616381E+02 -0.50330165662E+01  0.31386203134E+02  0.51100000000E-03 0.  1.
        -11    1    3    3    0    0  0.15549443814E+02  0.24649833723E+02 -0.76631542764E+01  0.30135086514E+02  0.51100000000E-03 0. -1.
         12    1    3    3    0    0 -0.10320858775E+02 -0.33078244505E+01 -0.14933799039E+01  0.10940384453E+02  0.00000000000E+00 0. -1.
</event>
<event>
 7    1  0.1333056E-013  0.7246149E+02  0.7816164E-02  0.1226708E+00
        -11   -1    0    0    0    0  0.00000000000E+00  0.00000000000E+00  0.45593999997E+02  0.45594000000E+02  0.51100000000E-03 0.  1.
         11   -1    0    0    0    0 -0.00000000000E+00 -0.00000000000E+00 -0.45593999997E+02  0.45594000000E+02  0.51100000000E-03 0. -1.
    9900012    2    1    2    0    0 -0.86295677983E+01  0.36686096647E+01  0.16209691402E+02  0.72461488510E+02  0.69999893460E+02 0.  0.
         12    1    1    2    0    0  0.86295677983E+01 -0.36686096647E+01 -0.16209691402E+02  0.18726511490E+02  0.00000000000E+00 0. -1.
         11    1    3    3    0    0 -0.20498304607E+02  0.43807939512E+01  0.31177045233E+02  0.37568337694E+02  0.51100000000E-03 0. -1.
        -11    1    3    3    0    0  0.34934602209E+01 -0.14520513714E+02 -0.10086812248E+02  0.18022024426E+02  0.51100000000E-03 0.  1.
         12    1    3    3    0    0  0.83752765876E+01  0.13808329427E+02 -0.48805415835E+01  0.16871126389E+02  0.00000000000E+00 0. -1.
</event>
<event>
 7    1  0.1333056E-013  0.7246200E+02  0.7816164E-02  0.1226707E+00
        -11   -1    0    0    0    0  0.00000000000E+00  0.00000000000E+00  0.45593999997E+02  0.45594000000E+02  0.51100000000E-03 0.  1.
         11   -1    0    0    0    0 -0.00000000000E+00 -0.00000000000E+00 -0.45593999997E+02  0.45594000000E+02  0.51100000000E-03 0. -1.
    9900012    2    1    2    0    0 -0.19528746214E+01  0.18120786047E+02  0.42995987303E+01  0.72461997878E+02  0.70000557004E+02 0.  0.
         12    1    1    2    0    0  0.19528746214E+01 -0.18120786047E+02 -0.42995987303E+01  0.18726002122E+02  0.00000000000E+00 0. -1.
         11    1    3    3    0    0  0.10936887570E+02  0.16240286780E+02 -0.18879187979E+02  0.27199010339E+02  0.51100000000E-03 0. -1.
        -11    1    3    3    0    0  0.29913368535E+01  0.13523677408E+02  0.21399634926E+02  0.25490828194E+02  0.51100000000E-03 0.  1.
         12    1    3    3    0    0 -0.15881099044E+02 -0.11643178141E+02  0.17791517827E+01  0.19772159344E+02  0.00000000000E+00 0. -1.
</event>
<event>
 7    1  0.1333056E-013  0.7246156E+02  0.7816164E-02  0.1226708E+00
        -11   -1    0    0    0    0  0.00000000000E+00  0.00000000000E+00  0.45593999997E+02  0.45594000000E+02  0.51100000000E-03 0.  1.
         11   -1    0    0    0    0 -0.00000000000E+00 -0.00000000000E+00 -0.45593999997E+02  0.45594000000E+02  0.51100000000E-03 0. -1.
    9900012    2    1    2    0    0 -0.15700461056E+02 -0.12817985287E+01  0.10125814768E+02  0.72461558545E+02  0.69999984695E+02 0.  0.
         12    1    1    2    0    0  0.15700461056E+02  0.12817985287E+01 -0.10125814768E+02  0.18726441455E+02  0.00000000000E+00 0. -1.
         11    1    3    3    0    0 -0.15429133701E+02  0.24172407276E+02  0.10512640953E+02  0.30543068941E+02  0.51100000000E-03 0. -1.
        -11    1    3    3    0    0 -0.14643686312E+02 -0.21092627186E+02 -0.50952152137E+01  0.26178191091E+02  0.51100000000E-03 0.  1.
        -12    1    3    3    0    0  0.14372358958E+02 -0.43615786182E+01  0.47083890284E+01  0.15740298513E+02  0.00000000000E+00 0.  1.
</event>
<event>
 7    1  0.1333056E-013  0.7246157E+02  0.7816164E-02  0.1226708E+00
        -11   -1    0    0    0    0  0.00000000000E+00  0.00000000000E+00  0.45593999997E+02  0.45594000000E+02  0.51100000000E-03 0.  1.
         11   -1    0    0    0    0 -0.00000000000E+00 -0.00000000000E+00 -0.45593999997E+02  0.45594000000E+02  0.51100000000E-03 0. -1.
    9900012    2    1    2    0    0 -0.19340946638E+01 -0.39792209533E+01  0.18196273017E+02  0.72461567524E+02  0.69999996391E+02 0.  0.
         12    1    1    2    0    0  0.19340946638E+01  0.39792209533E+01 -0.18196273017E+02  0.18726432476E+02  0.00000000000E+00 0. -1.
         11    1    3    3    0    0  0.58420450500E+01  0.42643428866E+01  0.37216777952E+02  0.37913093675E+02  0.51100000000E-03 0. -1.
        -11    1    3    3    0    0 -0.56610504053E+01 -0.17993485945E+02 -0.12270678167E+02  0.22502945831E+02  0.51100000000E-03 0.  1.
         12    1    3    3    0    0 -0.21150893084E+01  0.97499221052E+01 -0.67498267672E+01  0.12045528018E+02  0.00000000000E+00 0. -1.
</event>
<event>
 7    1  0.1333056E-013  0.7246163E+02  0.7816164E-02  0.1226708E+00
        -11   -1    0    0    0    0  0.00000000000E+00  0.00000000000E+00  0.45593999997E+02  0.45594000000E+02  0.51100000000E-03 0. -1.
         11   -1    0    0    0    0 -0.00000000000E+00 -0.00000000000E+00 -0.45593999997E+02  0.45594000000E+02  0.51100000000E-03 0.  1.
    9900012    2    1    2    0    0  0.50236345305E+01 -0.83286616720E+01 -0.16002298597E+02  0.72461626364E+02  0.70000073042E+02 0.  0.
         12    1    1    2    0    0 -0.50236345305E+01  0.83286616720E+01  0.16002298597E+02  0.18726373636E+02  0.00000000000E+00 0. -1.
         11    1    3    3    0    0 -0.13568501279E+01  0.16561281600E+02 -0.25792757347E+02  0.30681972269E+02  0.51100000000E-03 0. -1.
        -11    1    3    3    0    0  0.14106167902E+02 -0.51988685178E-02  0.64470093703E+01  0.15509607667E+02  0.51100000000E-03 0.  1.
         12    1    3    3    0    0 -0.77256832431E+01 -0.24884744404E+02  0.33434493791E+01  0.26270046429E+02  0.00000000000E+00 0. -1.
</event>
<event>
 7    1  0.1333056E-013  0.7246162E+02  0.7816164E-02  0.1226708E+00
        -11   -1    0    0    0    0  0.00000000000E+00  0.00000000000E+00  0.45593999997E+02  0.45594000000E+02  0.51100000000E-03 0.  1.
         11   -1    0    0    0    0 -0.00000000000E+00 -0.00000000000E+00 -0.45593999997E+02  0.45594000000E+02  0.51100000000E-03 0. -1.
    9900012    2    1    2    0    0 -0.11954201597E+02 -0.75610269509E-02  0.14414379387E+02  0.72461619514E+02  0.70000064118E+02 0.  0.
         12    1    1    2    0    0  0.11954201597E+02  0.75610269509E-02 -0.14414379387E+02  0.18726380486E+02  0.00000000000E+00 0. -1.
         11    1    3    3    0    0  0.16091658966E+02 -0.13386081882E+02  0.27255460478E+02  0.34365517639E+02  0.51100000000E-03 0.  1.
        -11    1    3    3    0    0 -0.21279186280E+02  0.14017378294E+02 -0.23413969995E+01  0.25588528741E+02  0.51100000000E-03 0. -1.
         12    1    3    3    0    0 -0.67666742830E+01 -0.63885743800E+00 -0.10499684092E+02  0.12507573134E+02  0.00000000000E+00 0. -1.
</event>
<event>
 7    1  0.1333056E-013  0.7246155E+02  0.7816164E-02  0.1226708E+00
        -11   -1    0    0    0    0  0.00000000000E+00  0.00000000000E+00  0.45593999997E+02  0.45594000000E+02  0.51100000000E-03 0. -1.
         11   -1    0    0    0    0 -0.00000000000E+00 -0.00000000000E+00 -0.45593999997E+02  0.45594000000E+02  0.51100000000E-03 0.  1.
    9900012    2    1    2    0    0  0.45921041335E+01 -0.91688514810E+01 -0.15669228002E+02  0.72461549081E+02  0.69999972366E+02 0.  0.
         12    1    1    2    0    0 -0.45921041335E+01  0.91688514810E+01  0.15669228002E+02  0.18726450919E+02  0.00000000000E+00 0. -1.
         11    1    3    3    0    0 -0.21347688219E+02  0.34177291719E+01 -0.14551521065E+02  0.26060533966E+02  0.51100000000E-03 0. -1.
        -11    1    3    3    0    0  0.20288560625E+02 -0.17024502419E+02  0.13784050015E+02  0.29857317527E+02  0.51100000000E-03 0.  1.
        -12    1    3    3    0    0  0.56512317274E+01  0.44379217658E+01 -0.14901756952E+02  0.16543697588E+02  0.00000000000E+00 0.  1.
</event>
<event>
 7    1  0.1333056E-013  0.7246157E+02  0.7816164E-02  0.1226708E+00
        -11   -1    0    0    0    0  0.00000000000E+00  0.00000000000E+00  0.45593999997E+02  0.45594000000E+02  0.51100000000E-03 0.  1.
         11   -1    0    0    0    0 -0.00000000000E+00 -0.00000000000E+00 -0.45593999997E+02  0.45594000000E+02  0.51100000000E-03 0. -1.
    9900012    2    1    2    0    0  0.67733507620E+01  0.83717970821E+01  0.15320380827E+02  0.72461565860E+02  0.69999994223E+02 0.  0.
         12    1    1    2    0    0 -0.67733507620E+01 -0.83717970821E+01 -0.15320380827E+02  0.18726434140E+02  0.00000000000E+00 0. -1.
         11    1    3    3    0    0 -0.27526334594E+01  0.15264938953E+02 -0.21243207085E+02  0.26303406618E+02  0.51100000000E-03 0. -1.
        -11    1    3    3    0    0  0.18290526611E+02 -0.64073739880E+01  0.24484955633E+02  0.31226765086E+02  0.51100000000E-03 0.  1.
        -12    1    3    3    0    0 -0.87645423892E+01 -0.48576788260E+00  0.12078632278E+02  0.14931394156E+02  0.00000000000E+00 0.  1.
</event>
<event>
 7    1  0.1333056E-013  0.7246158E+02  0.7816164E-02  0.1226708E+00
        -11   -1    0    0    0    0  0.00000000000E+00  0.00000000000E+00  0.45593999997E+02  0.45594000000E+02  0.51100000000E-03 0.  1.
         11   -1    0    0    0    0 -0.00000000000E+00 -0.00000000000E+00 -0.45593999997E+02  0.45594000000E+02  0.51100000000E-03 0. -1.
    9900012    2    1    2    0    0 -0.13700603517E+02  0.83086770321E+01  0.96921793113E+01  0.72461575072E+02  0.70000006224E+02 0.  0.
         12    1    1    2    0    0  0.13700603517E+02 -0.83086770321E+01 -0.96921793113E+01  0.18726424928E+02  0.00000000000E+00 0. -1.
         11    1    3    3    0    0 -0.12360276357E+02  0.53744685484E+01 -0.16125789001E+02  0.21016717512E+02  0.51100000000E-03 0. -1.
        -11    1    3    3    0    0 -0.61473742564E+01 -0.12276313450E+02  0.31618709007E+02  0.34470869465E+02  0.51100000000E-03 0.  1.
        -12    1    3    3    0    0  0.48070470958E+01  0.15210521933E+02 -0.58007406938E+01  0.16973988096E+02  0.00000000000E+00 0.  1.
</event>
<event>
 7    1  0.1333056E-013  0.7246156E+02  0.7816164E-02  0.1226708E+00
        -11   -1    0    0    0    0  0.00000000000E+00  0.00000000000E+00  0.45593999997E+02  0.45594000000E+02  0.51100000000E-03 0. -1.
         11   -1    0    0    0    0 -0.00000000000E+00 -0.00000000000E+00 -0.45593999997E+02  0.45594000000E+02  0.51100000000E-03 0.  1.
    9900012    2    1    2    0    0 -0.93145627936E+01 -0.37519994861E+01 -0.15806363364E+02  0.72461556051E+02  0.69999981445E+02 0.  0.
         12    1    1    2    0    0  0.93145627936E+01  0.37519994861E+01  0.15806363364E+02  0.18726443949E+02  0.00000000000E+00 0. -1.
         11    1    3    3    0    0  0.56406911141E+01  0.19063283907E+02 -0.48651356128E+01  0.20466942477E+02  0.51100000000E-03 0. -1.
        -11    1    3    3    0    0 -0.28668152375E+02 -0.22401027029E+02 -0.39478379343E+01  0.36595824860E+02  0.51100000000E-03 0.  1.
        -12    1    3    3    0    0  0.13712898468E+02 -0.41425636428E+00 -0.69933898171E+01  0.15398788714E+02  0.00000000000E+00 0.  1.
</event>
<event>
 7    1  0.1333056E-013  0.7246186E+02  0.7816164E-02  0.1226707E+00
        -11   -1    0    0    0    0  0.00000000000E+00  0.00000000000E+00  0.45593999997E+02  0.45594000000E+02  0.51100000000E-03 0.  1.
         11   -1    0    0    0    0 -0.00000000000E+00 -0.00000000000E+00 -0.45593999997E+02  0.45594000000E+02  0.51100000000E-03 0. -1.
    9900012    2    1    2    0    0 -0.15156561666E+02 -0.26203471027E+01 -0.10680850221E+02  0.72461864737E+02  0.70000383565E+02 0.  0.
         12    1    1    2    0    0  0.15156561666E+02  0.26203471027E+01  0.10680850221E+02  0.18726135263E+02  0.00000000000E+00 0. -1.
         11    1    3    3    0    0  0.11587402836E+02  0.19333658827E+02  0.11748411302E+02  0.25418171384E+02  0.51100000000E-03 0. -1.
        -11    1    3    3    0    0 -0.67298862610E+01 -0.18813891366E+02 -0.16560194412E+02  0.25951761340E+02  0.51100000000E-03 0.  1.
         12    1    3    3    0    0 -0.20014078241E+02 -0.31401145632E+01 -0.58690671110E+01  0.21091932013E+02  0.00000000000E+00 0. -1.
</event>
<event>
 7    1  0.1333056E-013  0.7246155E+02  0.7816164E-02  0.1226708E+00
        -11   -1    0    0    0    0  0.00000000000E+00  0.00000000000E+00  0.45593999997E+02  0.45594000000E+02  0.51100000000E-03 0.  1.
         11   -1    0    0    0    0 -0.00000000000E+00 -0.00000000000E+00 -0.45593999997E+02  0.45594000000E+02  0.51100000000E-03 0. -1.
    9900012    2    1    2    0    0 -0.16622905574E+02 -0.85525692983E+00  0.85806394727E+01  0.72461552715E+02  0.69999977100E+02 0.  0.
         12    1    1    2    0    0  0.16622905574E+02  0.85525692983E+00 -0.85806394727E+01  0.18726447285E+02  0.00000000000E+00 0. -1.
         11    1    3    3    0    0 -0.80189101338E+01 -0.11434542889E+02  0.12676542850E+02  0.18861241468E+02  0.51100000000E-03 0. -1.
        -11    1    3    3    0    0 -0.15124133987E+02 -0.41484247592E+01 -0.23581202135E+02  0.28319992077E+02  0.51100000000E-03 0.  1.
        -12    1    3    3    0    0  0.65201385466E+01  0.14727710718E+02  0.19485298758E+02  0.25280319170E+02  0.00000000000E+00 0.  1.
</event>
<event>
 7    1  0.1333056E-013  0.7246164E+02  0.7816164E-02  0.1226708E+00
        -11   -1    0    0    0    0  0.00000000000E+00  0.00000000000E+00  0.45593999997E+02  0.45594000000E+02  0.51100000000E-03 0.  1.
         11   -1    0    0    0    0 -0.00000000000E+00 -0.00000000000E+00 -0.45593999997E+02  0.45594000000E+02  0.51100000000E-03 0. -1.
    9900012    2    1    2    0    0  0.17627542541E+01 -0.30863633381E+01  0.18385962724E+02  0.72461639795E+02  0.70000090538E+02 0.  0.
         12    1    1    2    0    0 -0.17627542541E+01  0.30863633381E+01 -0.18385962724E+02  0.18726360205E+02  0.00000000000E+00 0. -1.
         11    1    3    3    0    0 -0.19611180114E+01  0.23100729997E+02  0.76604061324E+01  0.24416624103E+02  0.51100000000E-03 0. -1.
        -11    1    3    3    0    0 -0.60481806804E+01 -0.30711937827E+02 -0.20106694398E+01  0.31366325996E+02  0.51100000000E-03 0.  1.
        -12    1    3    3    0    0  0.97720529459E+01  0.45248444923E+01  0.12736226032E+02  0.16678689696E+02  0.00000000000E+00 0.  1.
</event>
<event>
 7    1  0.1333056E-013  0.7246158E+02  0.7816164E-02  0.1226708E+00
        -11   -1    0    0    0    0  0.00000000000E+00  0.00000000000E+00  0.45593999997E+02  0.45594000000E+02  0.51100000000E-03 0.  1.
         11   -1    0    0    0    0 -0.00000000000E+00 -0.00000000000E+00 -0.45593999997E+02  0.45594000000E+02  0.51100000000E-03 0. -1.
    9900012    2    1    2    0    0 -0.16936908262E+02  0.60275514184E+01 -0.52429672382E+01  0.72461576342E+02  0.70000007878E+02 0.  0.
         12    1    1    2    0    0  0.16936908262E+02 -0.60275514184E+01  0.52429672382E+01  0.18726423658E+02  0.00000000000E+00 0. -1.
         11    1    3    3    0    0 -0.34921525471E+02 -0.15438796196E+02 -0.95641767529E+01  0.39361692626E+02  0.51100000000E-03 0. -1.
        -11    1    3    3    0    0  0.49452055883E+01  0.75579827558E+01  0.97366229805E+01  0.13280812813E+02  0.51100000000E-03 0.  1.
         12    1    3    3    0    0  0.13039411621E+02  0.13908364858E+02 -0.54154134658E+01  0.19819070903E+02  0.00000000000E+00 0. -1.
</event>
<event>
 7    1  0.1333056E-013  0.7246157E+02  0.7816164E-02  0.1226708E+00
        -11   -1    0    0    0    0  0.00000000000E+00  0.00000000000E+00  0.45593999997E+02  0.45594000000E+02  0.51100000000E-03 0. -1.
         11   -1    0    0    0    0 -0.00000000000E+00 -0.00000000000E+00 -0.45593999997E+02  0.45594000000E+02  0.51100000000E-03 0.  1.
    9900012    2    1    2    0    0  0.16194377905E+02 -0.66562096595E+01  0.66419971993E+01  0.72461571362E+02  0.70000001391E+02 0.  0.
         12    1    1    2    0    0 -0.16194377905E+02  0.66562096595E+01 -0.66419971993E+01  0.18726428638E+02  0.00000000000E+00 0. -1.
         11    1    3    3    0    0 -0.15199484523E+02  0.72600761377E+01 -0.71698651864E+01  0.18306829391E+02  0.51100000000E-03 0. -1.
        -11    1    3    3    0    0  0.39809618310E+02 -0.10835546695E+02  0.49543802733E+01  0.41554309841E+02  0.51100000000E-03 0.  1.
        -12    1    3    3    0    0 -0.84157558829E+01 -0.30807391022E+01  0.88574821124E+01  0.12600432130E+02  0.00000000000E+00 0.  1.
</event>
<event>
 7    1  0.1333056E-013  0.7246160E+02  0.7816164E-02  0.1226708E+00
        -11   -1    0    0    0    0  0.00000000000E+00  0.00000000000E+00  0.45593999997E+02  0.45594000000E+02  0.51100000000E-03 0. -1.
         11   -1    0    0    0    0 -0.00000000000E+00 -0.00000000000E+00 -0.45593999997E+02  0.45594000000E+02  0.51100000000E-03 0.  1.
    9900012    2    1    2    0    0 -0.66903798591E+01  0.11626574714E+02  0.13066735228E+02  0.72461601741E+02  0.70000040965E+02 0.  0.
         12    1    1    2    0    0  0.66903798591E+01 -0.11626574714E+02 -0.13066735228E+02  0.18726398259E+02  0.00000000000E+00 0. -1.
         11    1    3    3    0    0  0.62671852150E+01  0.26531811594E+02  0.26205999370E+02  0.37814931446E+02  0.51100000000E-03 0. -1.
        -11    1    3    3    0    0 -0.19645199491E+02 -0.11333203215E+02 -0.14534614905E+02  0.26937527519E+02  0.51100000000E-03 0.  1.
         12    1    3    3    0    0  0.66876344165E+01 -0.35720336658E+01  0.13953507620E+01  0.77091427764E+01  0.00000000000E+00 0. -1.
</event>
<event>
 7    1  0.1333056E-013  0.7246156E+02  0.7816164E-02  0.1226708E+00
        -11   -1    0    0    0    0  0.00000000000E+00  0.00000000000E+00  0.45593999997E+02  0.45594000000E+02  0.51100000000E-03 0.  1.
         11   -1    0    0    0    0 -0.00000000000E+00 -0.00000000000E+00 -0.45593999997E+02  0.45594000000E+02  0.51100000000E-03 0. -1.
    9900012    2    1    2    0    0 -0.74390331391E+01  0.15064377303E+02 -0.82707307800E+01  0.72461557059E+02  0.69999982759E+02 0.  0.
         12    1    1    2    0    0  0.74390331391E+01 -0.15064377303E+02  0.82707307800E+01  0.18726442941E+02  0.00000000000E+00 0. -1.
         11    1    3    3    0    0  0.17344872902E+02 -0.19141743617E+02 -0.27129676178E+01  0.25973277772E+02  0.51100000000E-03 0.  1.
        -11    1    3    3    0    0 -0.23609828176E+02  0.18135807939E+02 -0.59962461386E+01  0.30369169961E+02  0.51100000000E-03 0. -1.
        -12    1    3    3    0    0 -0.11740778658E+01  0.16070312981E+02  0.43848297646E+00  0.16119109326E+02  0.00000000000E+00 0.  1.
</event>
<event>
 7    1  0.1333056E-013  0.7246157E+02  0.7816164E-02  0.1226708E+00
        -11   -1    0    0    0    0  0.00000000000E+00  0.00000000000E+00  0.45593999997E+02  0.45594000000E+02  0.51100000000E-03 0. -1.
         11   -1    0    0    0    0 -0.00000000000E+00 -0.00000000000E+00 -0.45593999997E+02  0.45594000000E+02  0.51100000000E-03 0.  1.
    9900012    2    1    2    0    0  0.70758252917E+01  0.75411760962E+00 -0.17321750352E+02  0.72461573961E+02  0.70000004777E+02 0.  0.
         12    1    1    2    0    0 -0.70758252917E+01 -0.75411760962E+00  0.17321750352E+02  0.18726426039E+02  0.00000000000E+00 0. -1.
         11    1    3    3    0    0  0.23758560185E+02  0.24526468492E+02 -0.22336692213E+02  0.40803733384E+02  0.51100000000E-03 0. -1.
        -11    1    3    3    0    0 -0.85693444395E+00 -0.10670827986E+02  0.20519953982E+01  0.10900073024E+02  0.51100000000E-03 0.  1.
         12    1    3    3    0    0 -0.15825800450E+02 -0.13101522897E+02  0.29629464621E+01  0.20757767554E+02  0.00000000000E+00 0. -1.
</event>
<event>
 7    1  0.1333056E-013  0.7246154E+02  0.7816164E-02  0.1226708E+00
        -11   -1    0    0    0    0  0.00000000000E+00  0.00000000000E+00  0.45593999997E+02  0.45594000000E+02  0.51100000000E-03 0. -1.
         11   -1    0    0    0    0 -0.00000000000E+00 -0.00000000000E+00 -0.45593999997E+02  0.45594000000E+02  0.51100000000E-03 0.  1.
    9900012    2    1    2    0    0  0.13816882435E+02  0.87294621164E+01 -0.91416945252E+01  0.72461539366E+02  0.69999959710E+02 0.  0.
         12    1    1    2    0    0 -0.13816882435E+02 -0.87294621164E+01  0.91416945252E+01  0.18726460634E+02  0.00000000000E+00 0. -1.
         11    1    3    3    0    0 -0.64220516822E+01  0.17787088485E+01  0.53697830383E+01  0.85581027755E+01  0.51100000000E-03 0. -1.
        -11    1    3    3    0    0 -0.19517188283E+01 -0.20050677119E+00 -0.33669957223E+02  0.33727072642E+02  0.51100000000E-03 0.  1.
        -12    1    3    3    0    0  0.22190652946E+02  0.71512600391E+01  0.19158479659E+02  0.30176363949E+02  0.00000000000E+00 0.  1.
</event>
<event>
 7    1  0.1333056E-013  0.7246155E+02  0.7816164E-02  0.1226708E+00
        -11   -1    0    0    0    0  0.00000000000E+00  0.00000000000E+00  0.45593999997E+02  0.45594000000E+02  0.51100000000E-03 0.  1.
         11   -1    0    0    0    0 -0.00000000000E+00 -0.00000000000E+00 -0.45593999997E+02  0.45594000000E+02  0.51100000000E-03 0. -1.
    9900012    2    1    2    0    0  0.68945692622E+00 -0.18658264097E+02 -0.14401094454E+01  0.72461545846E+02  0.69999968152E+02 0.  0.
         12    1    1    2    0    0 -0.68945692622E+00  0.18658264097E+02  0.14401094454E+01  0.18726454154E+02  0.00000000000E+00 0. -1.
         11    1    3    3    0    0  0.18124318173E+02 -0.22590966702E+02  0.10000946886E+02  0.30640848955E+02  0.51100000000E-03 0.  1.
        -11    1    3    3    0    0 -0.68879853171E+01  0.13113815103E+02  0.87923159532E+01  0.17225600377E+02  0.51100000000E-03 0. -1.
        -12    1    3    3    0    0 -0.10546875930E+02 -0.91811124971E+01 -0.20233372284E+02  0.24595096514E+02  0.00000000000E+00 0.  1.
</event>
<event>
 7    1  0.1333056E-013  0.7246159E+02  0.7816164E-02  0.1226708E+00
        -11   -1    0    0    0    0  0.00000000000E+00  0.00000000000E+00  0.45593999997E+02  0.45594000000E+02  0.51100000000E-03 0.  1.
         11   -1    0    0    0    0 -0.00000000000E+00 -0.00000000000E+00 -0.45593999997E+02  0.45594000000E+02  0.51100000000E-03 0. -1.
    9900012    2    1    2    0    0 -0.12206759794E+01 -0.15262873905E+02  0.10781140715E+02  0.72461591781E+02  0.70000027990E+02 0.  0.
         12    1    1    2    0    0  0.12206759794E+01  0.15262873905E+02 -0.10781140715E+02  0.18726408219E+02  0.00000000000E+00 0. -1.
         11    1    3    3    0    0  0.30452207268E+00 -0.17202692353E+02 -0.18862810844E+02  0.25530981005E+02  0.51100000000E-03 0. -1.
        -11    1    3    3    0    0 -0.83059887765E+01 -0.74600411037E+01  0.33021844558E+02  0.34858053318E+02  0.51100000000E-03 0.  1.
        -12    1    3    3    0    0  0.67807907244E+01  0.93998595522E+01 -0.33778929996E+01  0.12072557458E+02  0.00000000000E+00 0.  1.
</event>
<event>
 7    1  0.1333056E-013  0.7246172E+02  0.7816164E-02  0.1226708E+00
        -11   -1    0    0    0    0  0.00000000000E+00  0.00000000000E+00  0.45593999997E+02  0.45594000000E+02  0.51100000000E-03 0.  1.
         11   -1    0    0    0    0 -0.00000000000E+00 -0.00000000000E+00 -0.45593999997E+02  0.45594000000E+02  0.51100000000E-03 0. -1.
    9900012    2    1    2    0    0 -0.10481111294E+02  0.13174365121E+02  0.82009731063E+01  0.72461720332E+02  0.70000195452E+02 0.  0.
         12    1    1    2    0    0  0.10481111294E+02 -0.13174365121E+02 -0.82009731063E+01  0.18726279668E+02  0.00000000000E+00 0. -1.
         11    1    3    3    0    0 -0.72249478578E+01  0.24080096835E+01 -0.96782754250E+01  0.12315331812E+02  0.51100000000E-03 0. -1.
        -11    1    3    3    0    0  0.17771418389E+02  0.67262834998E+01  0.30022527933E+02  0.35530527509E+02  0.51100000000E-03 0.  1.
        -12    1    3    3    0    0 -0.21027581826E+02  0.40400719380E+01 -0.12143279402E+02  0.24615861011E+02  0.00000000000E+00 0.  1.
</event>
<event>
 7    1  0.1333056E-013  0.7246158E+02  0.7816164E-02  0.1226708E+00
        -11   -1    0    0    0    0  0.00000000000E+00  0.00000000000E+00  0.45593999997E+02  0.45594000000E+02  0.51100000000E-03 0.  1.
         11   -1    0    0    0    0 -0.00000000000E+00 -0.00000000000E+00 -0.45593999997E+02  0.45594000000E+02  0.51100000000E-03 0. -1.
    9900012    2    1    2    0    0  0.84425725440E+01  0.14482057098E+02  0.83469730125E+01  0.72461575691E+02  0.70000007030E+02 0.  0.
         12    1    1    2    0    0 -0.84425725440E+01 -0.14482057098E+02 -0.83469730125E+01  0.18726424309E+02  0.00000000000E+00 0. -1.
         11    1    3    3    0    0  0.26445380651E+02  0.31780569750E+02 -0.45109249806E+01  0.41589797017E+02  0.51100000000E-03 0. -1.
        -11    1    3    3    0    0 -0.19146367735E+02 -0.15029400664E+02  0.84161312004E+01  0.25754563603E+02  0.51100000000E-03 0.  1.
        -12    1    3    3    0    0  0.11435596276E+01 -0.22691119881E+01  0.44417667927E+01  0.51172150705E+01  0.00000000000E+00 0.  1.
</event>
<event>
 7    1  0.1333056E-013  0.7246156E+02  0.7816164E-02  0.1226708E+00
        -11   -1    0    0    0    0  0.00000000000E+00  0.00000000000E+00  0.45593999997E+02  0.45594000000E+02  0.51100000000E-03 0. -1.
         11   -1    0    0    0    0 -0.00000000000E+00 -0.00000000000E+00 -0.45593999997E+02  0.45594000000E+02  0.51100000000E-03 0.  1.
    9900012    2    1    2    0    0 -0.12447002030E+02  0.12097742726E+02  0.70282504595E+01  0.72461560319E+02  0.69999987005E+02 0.  0.
         12    1    1    2    0    0  0.12447002030E+02 -0.12097742726E+02 -0.70282504595E+01  0.18726439681E+02  0.00000000000E+00 0. -1.
         11    1    3    3    0    0 -0.22197811061E+02 -0.17516600124E+02  0.23463383724E+02  0.36743767796E+02  0.51100000000E-03 0. -1.
        -11    1    3    3    0    0  0.81540886197E+01  0.17670764449E+02 -0.81753365000E+01  0.21108794484E+02  0.51100000000E-03 0.  1.
         12    1    3    3    0    0  0.15967204108E+01  0.11943578401E+02 -0.82597967642E+01  0.14608998038E+02  0.00000000000E+00 0. -1.
</event>
<event>
 7    1  0.1333056E-013  0.7246155E+02  0.7816164E-02  0.1226708E+00
        -11   -1    0    0    0    0  0.00000000000E+00  0.00000000000E+00  0.45593999997E+02  0.45594000000E+02  0.51100000000E-03 0. -1.
         11   -1    0    0    0    0 -0.00000000000E+00 -0.00000000000E+00 -0.45593999997E+02  0.45594000000E+02  0.51100000000E-03 0.  1.
    9900012    2    1    2    0    0 -0.49441799619E+01  0.86636814004E+01 -0.15848520452E+02  0.72461551020E+02  0.69999974891E+02 0.  0.
         12    1    1    2    0    0  0.49441799619E+01 -0.86636814004E+01  0.15848520452E+02  0.18726448980E+02  0.00000000000E+00 0. -1.
         11    1    3    3    0    0 -0.29806245999E+02  0.21862830631E+02 -0.60537854481E+01  0.37457228706E+02  0.51100000000E-03 0.  1.
        -11    1    3    3    0    0  0.15007721072E+02 -0.16428528167E+02 -0.26442613165E+01  0.22408042032E+02  0.51100000000E-03 0. -1.
         12    1    3    3    0    0  0.98543449654E+01  0.32293789363E+01 -0.71504736870E+01  0.12596280283E+02  0.00000000000E+00 0. -1.
</event>
<event>
 7    1  0.1333056E-013  0.7246153E+02  0.7816164E-02  0.1226708E+00
        -11   -1    0    0    0    0  0.00000000000E+00  0.00000000000E+00  0.45593999997E+02  0.45594000000E+02  0.51100000000E-03 0.  1.
         11   -1    0    0    0    0 -0.00000000000E+00 -0.00000000000E+00 -0.45593999997E+02  0.45594000000E+02  0.51100000000E-03 0. -1.
    9900012    2    1    2    0    0  0.34540206250E+01  0.13461742022E+02  0.12551174175E+02  0.72461528631E+02  0.69999945726E+02 0.  0.
         12    1    1    2    0    0 -0.34540206250E+01 -0.13461742022E+02 -0.12551174175E+02  0.18726471369E+02  0.00000000000E+00 0. -1.
         11    1    3    3    0    0  0.14804137835E+02 -0.17561759529E+02  0.58252895790E+01  0.23696242186E+02  0.51100000000E-03 0. -1.
        -11    1    3    3    0    0 -0.21889860809E+02  0.24876666057E+02 -0.28448990603E+01  0.33258201564E+02  0.51100000000E-03 0.  1.
         12    1    3    3    0    0  0.10539743599E+02  0.61468354935E+01  0.95707836565E+01  0.15507084881E+02  0.00000000000E+00 0. -1.
</event>
<event>
 7    1  0.1333056E-013  0.7246159E+02  0.7816164E-02  0.1226708E+00
        -11   -1    0    0    0    0  0.00000000000E+00  0.00000000000E+00  0.45593999997E+02  0.45594000000E+02  0.51100000000E-03 0. -1.
         11   -1    0    0    0    0 -0.00000000000E+00 -0.00000000000E+00 -0.45593999997E+02  0.45594000000E+02  0.51100000000E-03 0.  1.
    9900012    2    1    2    0    0 -0.86034376387E+01  0.15807158862E+02  0.51761813160E+01  0.72461594485E+02  0.70000031513E+02 0.  0.
         12    1    1    2    0    0  0.86034376387E+01 -0.15807158862E+02 -0.51761813160E+01  0.18726405515E+02  0.00000000000E+00 0. -1.
         11    1    3    3    0    0  0.29930843466E+01  0.16150189037E-01  0.27215134884E+02  0.27379232673E+02  0.51100000000E-03 0. -1.
        -11    1    3    3    0    0  0.86719801257E+01 -0.76902240550E+00 -0.16009307963E+02  0.18223407379E+02  0.51100000000E-03 0.  1.
         12    1    3    3    0    0 -0.20268502111E+02  0.16560031079E+02 -0.60296456045E+01  0.26858954434E+02  0.00000000000E+00 0. -1.
</event>
<event>
 7    1  0.1559693E-013  0.7246156E+02  0.7816164E-02  0.1226708E+00
        -11   -1    0    0    0    0  0.00000000000E+00  0.00000000000E+00  0.45593999997E+02  0.45594000000E+02  0.51100000000E-03 0. -1.
         11   -1    0    0    0    0 -0.00000000000E+00 -0.00000000000E+00 -0.45593999997E+02  0.45594000000E+02  0.51100000000E-03 0.  1.
    9900012    2    1    2    0    0 -0.38773748641E+01 -0.59827232530E+00 -0.18310861819E+02  0.72461558101E+02  0.69999984116E+02 0.  0.
         12    1    1    2    0    0  0.38773748641E+01  0.59827232530E+00  0.18310861819E+02  0.18726441899E+02  0.00000000000E+00 0. -1.
         11    1    3    3    0    0 -0.43418552572E+01  0.48270796008E+01  0.48776814553E+01  0.81206022675E+01  0.51100000000E-03 0. -1.
        -11    1    3    3    0    0  0.13144237842E+02  0.12892222823E+02 -0.34687087433E+02  0.39270528805E+02  0.51100000000E-03 0.  1.
        -12    1    3    3    0    0 -0.12679757449E+02 -0.18317574749E+02  0.11498544158E+02  0.25070427029E+02  0.00000000000E+00 0.  1.
</event>
<event>
 7    1  0.1333056E-013  0.7246158E+02  0.7816164E-02  0.1226708E+00
        -11   -1    0    0    0    0  0.00000000000E+00  0.00000000000E+00  0.45593999997E+02  0.45594000000E+02  0.51100000000E-03 0.  1.
         11   -1    0    0    0    0 -0.00000000000E+00 -0.00000000000E+00 -0.45593999997E+02  0.45594000000E+02  0.51100000000E-03 0. -1.
    9900012    2    1    2    0    0  0.11780290580E+02  0.86969103250E+01  0.11673355100E+02  0.72461582439E+02  0.70000015821E+02 0.  0.
         12    1    1    2    0    0 -0.11780290580E+02 -0.86969103250E+01 -0.11673355100E+02  0.18726417561E+02  0.00000000000E+00 0. -1.
         11    1    3    3    0    0  0.13508047402E+02 -0.14547992741E+02  0.13859734737E+02  0.24211643576E+02  0.51100000000E-03 0. -1.
        -11    1    3    3    0    0  0.14495130671E+02  0.16212930725E+02 -0.14995371996E+02  0.26416455429E+02  0.51100000000E-03 0.  1.
         12    1    3    3    0    0 -0.16222887493E+02  0.70319723409E+01  0.12808992359E+02  0.21833483434E+02  0.00000000000E+00 0. -1.
</event>
<event>
 7    1  0.1333056E-013  0.7246157E+02  0.7816164E-02  0.1226708E+00
        -11   -1    0    0    0    0  0.00000000000E+00  0.00000000000E+00  0.45593999997E+02  0.45594000000E+02  0.51100000000E-03 0.  1.
         11   -1    0    0    0    0 -0.00000000000E+00 -0.00000000000E+00 -0.45593999997E+02  0.45594000000E+02  0.51100000000E-03 0. -1.
    9900012    2    1    2    0    0  0.12196630729E+02 -0.11813028806E+02  0.78977128727E+01  0.72461566294E+02  0.69999994789E+02 0.  0.
         12    1    1    2    0    0 -0.12196630729E+02  0.11813028806E+02 -0.78977128727E+01  0.18726433706E+02  0.00000000000E+00 0. -1.
         11    1    3    3    0    0  0.33415538921E+01  0.92011483088E+01 -0.53572751132E+01  0.11159189465E+02  0.51100000000E-03 0. -1.
        -11    1    3    3    0    0 -0.12845841016E+02 -0.19045096971E+02  0.27068618583E+02  0.35502696549E+02  0.51100000000E-03 0.  1.
        -12    1    3    3    0    0  0.21700917853E+02 -0.19690801440E+01 -0.13813630597E+02  0.25799680280E+02  0.00000000000E+00 0.  1.
</event>
<event>
 7    1  0.1333056E-013  0.7246157E+02  0.7816164E-02  0.1226708E+00
        -11   -1    0    0    0    0  0.00000000000E+00  0.00000000000E+00  0.45593999997E+02  0.45594000000E+02  0.51100000000E-03 0.  1.
         11   -1    0    0    0    0 -0.00000000000E+00 -0.00000000000E+00 -0.45593999997E+02  0.45594000000E+02  0.51100000000E-03 0. -1.
    9900012    2    1    2    0    0  0.64204359928E+01 -0.10374611430E+02  0.14206500292E+02  0.72461569181E+02  0.69999998550E+02 0.  0.
         12    1    1    2    0    0 -0.64204359928E+01  0.10374611430E+02 -0.14206500292E+02  0.18726430819E+02  0.00000000000E+00 0. -1.
         11    1    3    3    0    0  0.24218742018E+02  0.42349263777E+01 -0.14688295446E+02  0.28639624469E+02  0.51100000000E-03 0. -1.
        -11    1    3    3    0    0 -0.16596103498E+02 -0.32265280932E+01  0.55031692933E+01  0.17779932716E+02  0.51100000000E-03 0.  1.
        -12    1    3    3    0    0 -0.12022025277E+01 -0.11383009714E+02  0.23391626445E+02  0.26042011996E+02  0.00000000000E+00 0.  1.
</event>
<event>
 7    1  0.1333056E-013  0.7246157E+02  0.7816164E-02  0.1226708E+00
        -11   -1    0    0    0    0  0.00000000000E+00  0.00000000000E+00  0.45593999997E+02  0.45594000000E+02  0.51100000000E-03 0.  1.
         11   -1    0    0    0    0 -0.00000000000E+00 -0.00000000000E+00 -0.45593999997E+02  0.45594000000E+02  0.51100000000E-03 0. -1.
    9900012    2    1    2    0    0 -0.13407054389E+02 -0.39067793862E+01  0.12476662442E+02  0.72461571129E+02  0.70000001087E+02 0.  0.
         12    1    1    2    0    0  0.13407054389E+02  0.39067793862E+01 -0.12476662442E+02  0.18726428871E+02  0.00000000000E+00 0. -1.
         11    1    3    3    0    0 -0.32001264132E+02  0.14300143667E+02  0.14175280380E+02  0.37808908859E+02  0.51100000000E-03 0. -1.
        -11    1    3    3    0    0  0.15259670957E+02 -0.25720934027E+01 -0.80586760392E+01  0.17447506468E+02  0.51100000000E-03 0.  1.
        -12    1    3    3    0    0  0.33345387858E+01 -0.15634829650E+02  0.63600581014E+01  0.17205155802E+02  0.00000000000E+00 0.  1.
</event>
<event>
 7    1  0.1333056E-013  0.7246158E+02  0.7816164E-02  0.1226708E+00
        -11   -1    0    0    0    0  0.00000000000E+00  0.00000000000E+00  0.45593999997E+02  0.45594000000E+02  0.51100000000E-03 0. -1.
         11   -1    0    0    0    0 -0.00000000000E+00 -0.00000000000E+00 -0.45593999997E+02  0.45594000000E+02  0.51100000000E-03 0.  1.
    9900012    2    1    2    0    0 -0.18573359688E+02  0.18529346014E+01  0.15085572068E+01  0.72461580118E+02  0.70000012797E+02 0.  0.
         12    1    1    2    0    0  0.18573359688E+02 -0.18529346014E+01 -0.15085572068E+01  0.18726419882E+02  0.00000000000E+00 0. -1.
         11    1    3    3    0    0  0.20066613678E+02  0.12250061928E+02 -0.72254265550E+01  0.24595523798E+02  0.51100000000E-03 0. -1.
        -11    1    3    3    0    0 -0.28182251904E+02 -0.56282832752E+01 -0.58186752856E+01  0.29321900985E+02  0.51100000000E-03 0.  1.
         12    1    3    3    0    0 -0.10457721462E+02 -0.47688440510E+01  0.14552659047E+02  0.18544155335E+02  0.00000000000E+00 0. -1.
</event>
<event>
 7    1  0.1333056E-013  0.7246158E+02  0.7816164E-02  0.1226708E+00
        -11   -1    0    0    0    0  0.00000000000E+00  0.00000000000E+00  0.45593999997E+02  0.45594000000E+02  0.51100000000E-03 0.  1.
         11   -1    0    0    0    0 -0.00000000000E+00 -0.00000000000E+00 -0.45593999997E+02  0.45594000000E+02  0.51100000000E-03 0. -1.
    9900012    2    1    2    0    0 -0.72193100530E+01 -0.81455390582E+01  0.15238462485E+02  0.72461575272E+02  0.70000006484E+02 0.  0.
         12    1    1    2    0    0  0.72193100530E+01  0.81455390582E+01 -0.15238462485E+02  0.18726424728E+02  0.00000000000E+00 0. -1.
         11    1    3    3    0    0 -0.37897585936E+00  0.49644698013E+00 -0.34388702201E+01  0.34951267442E+01  0.51100000000E-03 0. -1.
        -11    1    3    3    0    0 -0.33842822657E+02 -0.14193737199E+02  0.20133230119E+01  0.36753942522E+02  0.51100000000E-03 0.  1.
        -12    1    3    3    0    0  0.27002488463E+02  0.55517511605E+01  0.16664009693E+02  0.32212506006E+02  0.00000000000E+00 0.  1.
</event>
<event>
 7    1  0.1333056E-013  0.7246162E+02  0.7816164E-02  0.1226708E+00
        -11   -1    0    0    0    0  0.00000000000E+00  0.00000000000E+00  0.45593999997E+02  0.45594000000E+02  0.51100000000E-03 0.  1.
         11   -1    0    0    0    0 -0.00000000000E+00 -0.00000000000E+00 -0.45593999997E+02  0.45594000000E+02  0.51100000000E-03 0. -1.
    9900012    2    1    2    0    0  0.15788492480E+02  0.22635215326E+01  0.98121067349E+01  0.72461615856E+02  0.70000059353E+02 0.  0.
         12    1    1    2    0    0 -0.15788492480E+02 -0.22635215326E+01 -0.98121067349E+01  0.18726384144E+02  0.00000000000E+00 0. -1.
         11    1    3    3    0    0  0.22649511272E+01  0.29192149437E+01  0.25038314534E+02  0.25309464918E+02  0.51100000000E-03 0.  1.
        -11    1    3    3    0    0 -0.54285151527E+01  0.17171028553E+02 -0.24785589217E+01  0.18178455736E+02  0.51100000000E-03 0. -1.
         12    1    3    3    0    0  0.18952056505E+02 -0.17826721965E+02 -0.12747648877E+02  0.28973695202E+02  0.00000000000E+00 0. -1.
</event>
<event>
 7    1  0.1333056E-013  0.7246159E+02  0.7816164E-02  0.1226708E+00
        -11   -1    0    0    0    0  0.00000000000E+00  0.00000000000E+00  0.45593999997E+02  0.45594000000E+02  0.51100000000E-03 0.  1.
         11   -1    0    0    0    0 -0.00000000000E+00 -0.00000000000E+00 -0.45593999997E+02  0.45594000000E+02  0.51100000000E-03 0. -1.
    9900012    2    1    2    0    0 -0.42071950663E+00  0.17877859698E+02 -0.55572887619E+01  0.72461592692E+02  0.70000029177E+02 0.  0.
         12    1    1    2    0    0  0.42071950663E+00 -0.17877859698E+02  0.55572887619E+01  0.18726407308E+02  0.00000000000E+00 0. -1.
         11    1    3    3    0    0  0.81820284261E+01  0.83545279070E+01 -0.10964151601E+02  0.16029857963E+02  0.51100000000E-03 0. -1.
        -11    1    3    3    0    0 -0.58371375084E+01 -0.22174451481E+02  0.85200398385E+01  0.24461593404E+02  0.51100000000E-03 0.  1.
        -12    1    3    3    0    0 -0.27656104243E+01  0.31697783271E+02 -0.31131769995E+01  0.31970141325E+02  0.00000000000E+00 0.  1.
</event>
<event>
 7    1  0.1333056E-013  0.7246159E+02  0.7816164E-02  0.1226708E+00
        -11   -1    0    0    0    0  0.00000000000E+00  0.00000000000E+00  0.45593999997E+02  0.45594000000E+02  0.51100000000E-03 0. -1.
         11   -1    0    0    0    0 -0.00000000000E+00 -0.00000000000E+00 -0.45593999997E+02  0.45594000000E+02  0.51100000000E-03 0.  1.
    9900012    2    1    2    0    0  0.18583462813E+01 -0.14554280394E+02 -0.11636061318E+02  0.72461589461E+02  0.70000024968E+02 0.  0.
         12    1    1    2    0    0 -0.18583462813E+01  0.14554280394E+02  0.11636061318E+02  0.18726410539E+02  0.00000000000E+00 0. -1.
         11    1    3    3    0    0  0.28142777349E+02 -0.15559838928E+02 -0.85542307810E+01  0.33276108079E+02  0.51100000000E-03 0. -1.
        -11    1    3    3    0    0 -0.81907357324E+01  0.13950675074E+02  0.21810910710E+01  0.16323806093E+02  0.51100000000E-03 0.  1.
         12    1    3    3    0    0 -0.18093695335E+02 -0.12945116540E+02 -0.52629216082E+01  0.22861675288E+02  0.00000000000E+00 0. -1.
</event>
<event>
 7    1  0.1333056E-013  0.7246159E+02  0.7816164E-02  0.1226708E+00
        -11   -1    0    0    0    0  0.00000000000E+00  0.00000000000E+00  0.45593999997E+02  0.45594000000E+02  0.51100000000E-03 0.  1.
         11   -1    0    0    0    0 -0.00000000000E+00 -0.00000000000E+00 -0.45593999997E+02  0.45594000000E+02  0.51100000000E-03 0. -1.
    9900012    2    1    2    0    0 -0.70575892553E+01 -0.75380206834E+01  0.15622001469E+02  0.72461594797E+02  0.70000031920E+02 0.  0.
         12    1    1    2    0    0  0.70575892553E+01  0.75380206834E+01 -0.15622001469E+02  0.18726405203E+02  0.00000000000E+00 0. -1.
         11    1    3    3    0    0 -0.19004440608E+02 -0.85644705589E+01 -0.70968081973E+01  0.22020072789E+02  0.51100000000E-03 0. -1.
        -11    1    3    3    0    0 -0.14601316294E+01  0.20031617153E+02  0.17421464822E+02  0.26587687131E+02  0.51100000000E-03 0.  1.
        -12    1    3    3    0    0  0.13406982983E+02 -0.19005167278E+02  0.52973448441E+01  0.23853834877E+02  0.00000000000E+00 0.  1.
</event>
<event>
 7    1  0.1333056E-013  0.7246157E+02  0.7816164E-02  0.1226708E+00
        -11   -1    0    0    0    0  0.00000000000E+00  0.00000000000E+00  0.45593999997E+02  0.45594000000E+02  0.51100000000E-03 0.  1.
         11   -1    0    0    0    0 -0.00000000000E+00 -0.00000000000E+00 -0.45593999997E+02  0.45594000000E+02  0.51100000000E-03 0. -1.
    9900012    2    1    2    0    0 -0.83592541953E+01  0.16145971312E+02  0.44843791878E+01  0.72461570094E+02  0.69999999739E+02 0.  0.
         12    1    1    2    0    0  0.83592541953E+01 -0.16145971312E+02 -0.44843791878E+01  0.18726429906E+02  0.00000000000E+00 0. -1.
         11    1    3    3    0    0 -0.67775001475E+01 -0.53314096237E+01 -0.11016776847E+02  0.13990275522E+02  0.51100000000E-03 0. -1.
        -11    1    3    3    0    0  0.24271900635E+02  0.39850182996E+01  0.10957074618E+02  0.26926994183E+02  0.51100000000E-03 0.  1.
        -12    1    3    3    0    0 -0.25853654683E+02  0.17492362637E+02  0.45440814171E+01  0.31544300389E+02  0.00000000000E+00 0.  1.
</event>
<event>
 7    1  0.1333056E-013  0.7246162E+02  0.7816164E-02  0.1226708E+00
        -11   -1    0    0    0    0  0.00000000000E+00  0.00000000000E+00  0.45593999997E+02  0.45594000000E+02  0.51100000000E-03 0. -1.
         11   -1    0    0    0    0 -0.00000000000E+00 -0.00000000000E+00 -0.45593999997E+02  0.45594000000E+02  0.51100000000E-03 0.  1.
    9900012    2    1    2    0    0  0.12895464831E+02  0.40020064361E+01 -0.12975677041E+02  0.72461621189E+02  0.70000066299E+02 0.  0.
         12    1    1    2    0    0 -0.12895464831E+02 -0.40020064361E+01  0.12975677041E+02  0.18726378811E+02  0.00000000000E+00 0. -1.
         11    1    3    3    0    0 -0.19801549575E+01 -0.12443382898E+02 -0.31156941441E+02  0.33608239939E+02  0.51100000000E-03 0.  1.
        -11    1    3    3    0    0  0.13781500074E+02  0.19819632580E+02  0.42925482391E+01  0.24518840726E+02  0.51100000000E-03 0. -1.
        -12    1    3    3    0    0  0.10941197145E+01 -0.33742432458E+01  0.13888716161E+02  0.14334540524E+02  0.00000000000E+00 0.  1.
</event>
<event>
 7    1  0.1333056E-013  0.7246171E+02  0.7816164E-02  0.1226708E+00
        -11   -1    0    0    0    0  0.00000000000E+00  0.00000000000E+00  0.45593999997E+02  0.45594000000E+02  0.51100000000E-03 0.  1.
         11   -1    0    0    0    0 -0.00000000000E+00 -0.00000000000E+00 -0.45593999997E+02  0.45594000000E+02  0.51100000000E-03 0. -1.
    9900012    2    1    2    0    0 -0.11340996662E+02 -0.38927160752E+01  0.14384102373E+02  0.72461712466E+02  0.70000185205E+02 0.  0.
         12    1    1    2    0    0  0.11340996662E+02  0.38927160752E+01 -0.14384102373E+02  0.18726287534E+02  0.00000000000E+00 0. -1.
         11    1    3    3    0    0  0.12413308750E+02 -0.19821536861E+02 -0.71602934477E+01  0.24459218307E+02  0.51100000000E-03 0. -1.
        -11    1    3    3    0    0 -0.43894640805E+01  0.22084225277E+02  0.12593672596E+02  0.25798856384E+02  0.51100000000E-03 0.  1.
        -12    1    3    3    0    0 -0.19364841331E+02 -0.61554044911E+01  0.89507232252E+01  0.22203637776E+02  0.00000000000E+00 0.  1.
</event>
<event>
 7    1  0.1333056E-013  0.7246150E+02  0.7816164E-02  0.1226708E+00
        -11   -1    0    0    0    0  0.00000000000E+00  0.00000000000E+00  0.45593999997E+02  0.45594000000E+02  0.51100000000E-03 0. -1.
         11   -1    0    0    0    0 -0.00000000000E+00 -0.00000000000E+00 -0.45593999997E+02  0.45594000000E+02  0.51100000000E-03 0.  1.
    9900012    2    1    2    0    0  0.13934829095E+00  0.94670056635E+01 -0.16156680813E+02  0.72461496080E+02  0.69999903322E+02 0.  0.
         12    1    1    2    0    0 -0.13934829095E+00 -0.94670056635E+01  0.16156680813E+02  0.18726503920E+02  0.00000000000E+00 0. -1.
         11    1    3    3    0    0  0.60467421253E+01  0.13358214352E+02  0.14285641536E+02  0.20471554298E+02  0.51100000000E-03 0. -1.
        -11    1    3    3    0    0 -0.11675067026E+02 -0.20569429436E+02 -0.22475782489E+02  0.32627739979E+02  0.51100000000E-03 0.  1.
        -12    1    3    3    0    0  0.57676731918E+01  0.16678220748E+02 -0.79665398602E+01  0.19362201804E+02  0.00000000000E+00 0.  1.
</event>
<event>
 7    1  0.1333056E-013  0.7246150E+02  0.7816164E-02  0.1226708E+00
        -11   -1    0    0    0    0  0.00000000000E+00  0.00000000000E+00  0.45593999997E+02  0.45594000000E+02  0.51100000000E-03 0. -1.
         11   -1    0    0    0    0 -0.00000000000E+00 -0.00000000000E+00 -0.45593999997E+02  0.45594000000E+02  0.51100000000E-03 0.  1.
    9900012    2    1    2    0    0 -0.13116158006E+02  0.84786721230E+01 -0.10332484683E+02  0.72461502155E+02  0.69999911236E+02 0.  0.
         12    1    1    2    0    0  0.13116158006E+02 -0.84786721230E+01  0.10332484683E+02  0.18726497845E+02  0.00000000000E+00 0. -1.
         11    1    3    3    0    0 -0.10534221505E+02  0.68328889588E+01  0.23009869580E+02  0.26212826872E+02  0.51100000000E-03 0.  1.
        -11    1    3    3    0    0  0.96149477104E+01 -0.10399868664E+02 -0.20091456197E+02  0.24581926289E+02  0.51100000000E-03 0. -1.
        -12    1    3    3    0    0 -0.12196884211E+02  0.12045651828E+02 -0.13250898066E+02  0.21666748994E+02  0.00000000000E+00 0.  1.
</event>
<event>
 7    1  0.1333056E-013  0.7246133E+02  0.7816164E-02  0.1226709E+00
        -11   -1    0    0    0    0  0.00000000000E+00  0.00000000000E+00  0.45593999997E+02  0.45594000000E+02  0.51100000000E-03 0.  1.
         11   -1    0    0    0    0 -0.00000000000E+00 -0.00000000000E+00 -0.45593999997E+02  0.45594000000E+02  0.51100000000E-03 0. -1.
    9900012    2    1    2    0    0 -0.84631454499E+01 -0.79714604560E+01  0.14680574191E+02  0.72461327276E+02  0.69999683423E+02 0.  0.
         12    1    1    2    0    0  0.84631454499E+01  0.79714604560E+01 -0.14680574191E+02  0.18726672724E+02  0.00000000000E+00 0. -1.
         11    1    3    3    0    0  0.19551315431E+02 -0.20548954307E+02 -0.25096469034E+00  0.28365056703E+02  0.51100000000E-03 0. -1.
        -11    1    3    3    0    0 -0.27006865139E+01  0.13444797172E+02  0.12663966207E+02  0.18666341875E+02  0.51100000000E-03 0.  1.
         12    1    3    3    0    0 -0.25313774367E+02 -0.86730332064E+00  0.22675726746E+01  0.25429928698E+02  0.00000000000E+00 0. -1.
</event>
<event>
 7    1  0.1333056E-013  0.7246158E+02  0.7816164E-02  0.1226708E+00
        -11   -1    0    0    0    0  0.00000000000E+00  0.00000000000E+00  0.45593999997E+02  0.45594000000E+02  0.51100000000E-03 0.  1.
         11   -1    0    0    0    0 -0.00000000000E+00 -0.00000000000E+00 -0.45593999997E+02  0.45594000000E+02  0.51100000000E-03 0. -1.
    9900012    2    1    2    0    0 -0.12067072710E+02 -0.71340074515E+01  0.12416545936E+02  0.72461576981E+02  0.70000008711E+02 0.  0.
         12    1    1    2    0    0  0.12067072710E+02  0.71340074515E+01 -0.12416545936E+02  0.18726423019E+02  0.00000000000E+00 0. -1.
         11    1    3    3    0    0  0.13966986149E+02 -0.22084276594E+01 -0.12277154904E+02  0.18726515629E+02  0.51100000000E-03 0. -1.
        -11    1    3    3    0    0 -0.25840067298E+02 -0.19738586950E+02  0.20089305371E+02  0.38221735744E+02  0.51100000000E-03 0.  1.
        -12    1    3    3    0    0 -0.19399156100E+00  0.14813007158E+02  0.46043954692E+01  0.15513325608E+02  0.00000000000E+00 0.  1.
</event>
<event>
 7    1  0.1333056E-013  0.7246129E+02  0.7816164E-02  0.1226709E+00
        -11   -1    0    0    0    0  0.00000000000E+00  0.00000000000E+00  0.45593999997E+02  0.45594000000E+02  0.51100000000E-03 0. -1.
         11   -1    0    0    0    0 -0.00000000000E+00 -0.00000000000E+00 -0.45593999997E+02  0.45594000000E+02  0.51100000000E-03 0.  1.
    9900012    2    1    2    0    0  0.60670124114E+00  0.18467390115E+02 -0.30458593397E+01  0.72461285308E+02  0.69999628751E+02 0.  0.
         12    1    1    2    0    0 -0.60670124114E+00 -0.18467390115E+02  0.30458593397E+01  0.18726714692E+02  0.00000000000E+00 0. -1.
         11    1    3    3    0    0  0.18555864988E+02  0.23995591265E+02  0.15737564156E+02  0.34172788172E+02  0.51100000000E-03 0. -1.
        -11    1    3    3    0    0 -0.18760635662E+02 -0.91337334920E+00  0.15044528172E+00  0.18783459089E+02  0.51100000000E-03 0.  1.
         12    1    3    3    0    0  0.81147191517E+00 -0.46148278012E+01 -0.18933868778E+02  0.19505038046E+02  0.00000000000E+00 0. -1.
</event>
