<event>
 7    1  0.2110035E-010  0.4778727E+02  0.7816164E-02  0.1312668E+00
        -11   -1    0    0    0    0  0.00000000000E+00  0.00000000000E+00  0.45593999997E+02  0.45594000000E+02  0.51100000000E-03 0. -1.
         11   -1    0    0    0    0 -0.00000000000E+00 -0.00000000000E+00 -0.45593999997E+02  0.45594000000E+02  0.51100000000E-03 0.  1.
    9900012    2    1    2    0    0  0.19535629362E+02 -0.36070904996E+02 -0.14172945869E+02  0.47787269632E+02  0.19999993562E+02 0.  0.
        -12    1    1    2    0    0 -0.19535629362E+02  0.36070904996E+02  0.14172945869E+02  0.43400730368E+02  0.00000000000E+00 0.  1.
         11    1    3    3    0    0  0.39225975602E+01 -0.13524543874E+02  0.32393530011E+01  0.14449687427E+02  0.51100000000E-03 0. -1.
        -11    1    3    3    0    0  0.87565480306E+01 -0.68442181206E+01 -0.50382445303E+01  0.12202637555E+02  0.51100000000E-03 0.  1.
         12    1    3    3    0    0  0.68564837710E+01 -0.15702143002E+02 -0.12374054340E+02  0.21134944650E+02  0.00000000000E+00 0. -1.
</event>
<event>
 7    1  0.2110035E-010  0.4778727E+02  0.7816164E-02  0.1312668E+00
        -11   -1    0    0    0    0  0.00000000000E+00  0.00000000000E+00  0.45593999997E+02  0.45594000000E+02  0.51100000000E-03 0.  1.
         11   -1    0    0    0    0 -0.00000000000E+00 -0.00000000000E+00 -0.45593999997E+02  0.45594000000E+02  0.51100000000E-03 0. -1.
    9900012    2    1    2    0    0  0.22212248040E+02 -0.38815888483E+01 -0.37083317335E+02  0.47787272822E+02  0.20000008107E+02 0.  0.
        -12    1    1    2    0    0 -0.22212248040E+02  0.38815888483E+01  0.37083317335E+02  0.43400727178E+02  0.00000000000E+00 0.  1.
         11    1    3    3    0    0  0.12160756838E+02 -0.84340250841E+00 -0.18317044804E+02  0.22002487707E+02  0.51100000000E-03 0. -1.
        -11    1    3    3    0    0  0.37764787077E+01 -0.17338103017E+01  0.15855176238E+01  0.44476686015E+01  0.51100000000E-03 0.  1.
         12    1    3    3    0    0  0.62750124943E+01 -0.13043760382E+01 -0.20351790154E+02  0.21337116514E+02  0.00000000000E+00 0. -1.
</event>
<event>
 7    1  0.2110035E-010  0.4778727E+02  0.7816164E-02  0.1312668E+00
        -11   -1    0    0    0    0  0.00000000000E+00  0.00000000000E+00  0.45593999997E+02  0.45594000000E+02  0.51100000000E-03 0. -1.
         11   -1    0    0    0    0 -0.00000000000E+00 -0.00000000000E+00 -0.45593999997E+02  0.45594000000E+02  0.51100000000E-03 0.  1.
    9900012    2    1    2    0    0 -0.37373715280E+02  0.22060050114E+02  0.42780994122E+00  0.47787269290E+02  0.19999992001E+02 0.  0.
        -12    1    1    2    0    0  0.37373715280E+02 -0.22060050114E+02 -0.42780994122E+00  0.43400730710E+02  0.00000000000E+00 0.  1.
         11    1    3    3    0    0 -0.25673112082E+01 -0.15393356057E+01  0.43660384895E-01  0.29937513987E+01  0.51100000000E-03 0.  1.
        -11    1    3    3    0    0 -0.33729373287E+02  0.25690078372E+02  0.79463526842E+00  0.42406157508E+02  0.51100000000E-03 0. -1.
         12    1    3    3    0    0 -0.10770307838E+01 -0.20906926529E+01 -0.41048571210E+00  0.23873603830E+01  0.00000000000E+00 0. -1.
</event>
<event>
 7    1  0.2110035E-010  0.4778727E+02  0.7816164E-02  0.1312668E+00
        -11   -1    0    0    0    0  0.00000000000E+00  0.00000000000E+00  0.45593999997E+02  0.45594000000E+02  0.51100000000E-03 0.  1.
         11   -1    0    0    0    0 -0.00000000000E+00 -0.00000000000E+00 -0.45593999997E+02  0.45594000000E+02  0.51100000000E-03 0. -1.
    9900012    2    1    2    0    0 -0.15735113302E+02 -0.28058255183E+01 -0.40350427229E+02  0.47787269303E+02  0.19999992059E+02 0.  0.
        -12    1    1    2    0    0  0.15735113302E+02  0.28058255183E+01  0.40350427229E+02  0.43400730697E+02  0.00000000000E+00 0.  1.
         11    1    3    3    0    0 -0.13375863269E+01  0.34319303011E+01 -0.67337590771E+00  0.37444249422E+01  0.51100000000E-03 0. -1.
        -11    1    3    3    0    0 -0.72143401623E+00 -0.53483521480E+01 -0.10403851040E+02  0.11720300955E+02  0.51100000000E-03 0.  1.
         12    1    3    3    0    0 -0.13676092959E+02 -0.88940367142E+00 -0.29273200281E+02  0.32322543406E+02  0.00000000000E+00 0. -1.
</event>
<event>
 7    1  0.2110035E-010  0.4778726E+02  0.7816164E-02  0.1312668E+00
        -11   -1    0    0    0    0  0.00000000000E+00  0.00000000000E+00  0.45593999997E+02  0.45594000000E+02  0.51100000000E-03 0. -1.
         11   -1    0    0    0    0 -0.00000000000E+00 -0.00000000000E+00 -0.45593999997E+02  0.45594000000E+02  0.51100000000E-03 0.  1.
    9900012    2    1    2    0    0  0.19286515625E+02 -0.36135629305E+02  0.14348192927E+02  0.47787262328E+02  0.19999960259E+02 0.  0.
        -12    1    1    2    0    0 -0.19286515625E+02  0.36135629305E+02 -0.14348192927E+02  0.43400737672E+02  0.00000000000E+00 0.  1.
         11    1    3    3    0    0  0.97122973274E+01 -0.94913408371E+01  0.10272313401E+02  0.17027468782E+02  0.51100000000E-03 0.  1.
        -11    1    3    3    0    0  0.56942359588E+01 -0.58953432826E+01  0.50527767348E+01  0.96286005508E+01  0.51100000000E-03 0. -1.
        -12    1    3    3    0    0  0.38799823385E+01 -0.20748945185E+02 -0.97689720919E+00  0.21131192995E+02  0.00000000000E+00 0.  1.
</event>
<event>
 7    1  0.2110035E-010  0.4778727E+02  0.7816164E-02  0.1312668E+00
        -11   -1    0    0    0    0  0.00000000000E+00  0.00000000000E+00  0.45593999997E+02  0.45594000000E+02  0.51100000000E-03 0. -1.
         11   -1    0    0    0    0 -0.00000000000E+00 -0.00000000000E+00 -0.45593999997E+02  0.45594000000E+02  0.51100000000E-03 0.  1.
    9900012    2    1    2    0    0 -0.13267129302E+02 -0.40093595028E+02  0.10005511523E+02  0.47787270248E+02  0.19999996369E+02 0.  0.
        -12    1    1    2    0    0  0.13267129302E+02  0.40093595028E+02 -0.10005511523E+02  0.43400729752E+02  0.00000000000E+00 0.  1.
         11    1    3    3    0    0 -0.60193421235E+01 -0.67597809200E+01 -0.24818305610E+01  0.93854462270E+01  0.51100000000E-03 0. -1.
        -11    1    3    3    0    0 -0.83262018239E+01 -0.18853701114E+02  0.12051173090E+02  0.23875059280E+02  0.51100000000E-03 0.  1.
         12    1    3    3    0    0  0.10784146456E+01 -0.14480112993E+02  0.43616899423E+00  0.14526764741E+02  0.00000000000E+00 0. -1.
</event>
<event>
 7    1  0.2110035E-010  0.4778729E+02  0.7816164E-02  0.1312668E+00
        -11   -1    0    0    0    0  0.00000000000E+00  0.00000000000E+00  0.45593999997E+02  0.45594000000E+02  0.51100000000E-03 0. -1.
         11   -1    0    0    0    0 -0.00000000000E+00 -0.00000000000E+00 -0.45593999997E+02  0.45594000000E+02  0.51100000000E-03 0.  1.
    9900012    2    1    2    0    0  0.13948399660E+02  0.83922190844E+01  0.40232260996E+02  0.47787285500E+02  0.20000065909E+02 0.  0.
        -12    1    1    2    0    0 -0.13948399660E+02 -0.83922190844E+01 -0.40232260996E+02  0.43400714500E+02  0.00000000000E+00 0.  1.
         11    1    3    3    0    0  0.13871460748E+02  0.96274233422E+00  0.22290885309E+02  0.26272188036E+02  0.51100000000E-03 0. -1.
        -11    1    3    3    0    0  0.53182675508E+00 -0.15858694451E+01  0.76282377825E+01  0.78094707581E+01  0.51100000000E-03 0.  1.
        -12    1    3    3    0    0 -0.45488784256E+00  0.90153461953E+01  0.10313137905E+02  0.13705626706E+02  0.00000000000E+00 0.  1.
</event>
<event>
 7    1  0.2110035E-010  0.4778729E+02  0.7816164E-02  0.1312668E+00
        -11   -1    0    0    0    0  0.00000000000E+00  0.00000000000E+00  0.45593999997E+02  0.45594000000E+02  0.51100000000E-03 0.  1.
         11   -1    0    0    0    0 -0.00000000000E+00 -0.00000000000E+00 -0.45593999997E+02  0.45594000000E+02  0.51100000000E-03 0. -1.
    9900012    2    1    2    0    0 -0.16206395686E+00  0.35724695726E+02 -0.24644301160E+02  0.47787288840E+02  0.20000081139E+02 0.  0.
        -12    1    1    2    0    0  0.16206395686E+00 -0.35724695726E+02  0.24644301160E+02  0.43400711160E+02  0.00000000000E+00 0.  1.
         11    1    3    3    0    0  0.83373671902E+00  0.15657001532E+02 -0.17710631341E+02  0.23653821608E+02  0.51100000000E-03 0. -1.
        -11    1    3    3    0    0  0.17142491610E+01 -0.10937167711E+00  0.13193858142E+01  0.21659620351E+01  0.51100000000E-03 0.  1.
        -12    1    3    3    0    0 -0.27100498369E+01  0.20177065872E+02 -0.82530556334E+01  0.21967505197E+02  0.00000000000E+00 0.  1.
</event>
<event>
 7    1  0.2110035E-010  0.4778727E+02  0.7816164E-02  0.1312668E+00
        -11   -1    0    0    0    0  0.00000000000E+00  0.00000000000E+00  0.45593999997E+02  0.45594000000E+02  0.51100000000E-03 0.  1.
         11   -1    0    0    0    0 -0.00000000000E+00 -0.00000000000E+00 -0.45593999997E+02  0.45594000000E+02  0.51100000000E-03 0. -1.
    9900012    2    1    2    0    0 -0.42373127568E+01  0.35807687618E+02 -0.24155284876E+02  0.47787273055E+02  0.20000009166E+02 0.  0.
        -12    1    1    2    0    0  0.42373127568E+01 -0.35807687618E+02  0.24155284876E+02  0.43400726945E+02  0.00000000000E+00 0.  1.
         11    1    3    3    0    0 -0.12019170696E+01  0.24059053981E+01 -0.96261166399E+01  0.99947539866E+01  0.51100000000E-03 0. -1.
        -11    1    3    3    0    0 -0.48158025496E+01  0.11001683125E+02 -0.23635940377E+01  0.12239916781E+02  0.51100000000E-03 0.  1.
        -12    1    3    3    0    0  0.17804068624E+01  0.22400099095E+02 -0.12165574198E+02  0.25552602287E+02  0.00000000000E+00 0.  1.
</event>
<event>
 7    1  0.2110035E-010  0.4778727E+02  0.7816164E-02  0.1312668E+00
        -11   -1    0    0    0    0  0.00000000000E+00  0.00000000000E+00  0.45593999997E+02  0.45594000000E+02  0.51100000000E-03 0. -1.
         11   -1    0    0    0    0 -0.00000000000E+00 -0.00000000000E+00 -0.45593999997E+02  0.45594000000E+02  0.51100000000E-03 0.  1.
    9900012    2    1    2    0    0  0.14466538732E+02  0.38614527778E+02  0.13537385852E+02  0.47787270581E+02  0.19999997885E+02 0.  0.
        -12    1    1    2    0    0 -0.14466538732E+02 -0.38614527778E+02 -0.13537385852E+02  0.43400729419E+02  0.00000000000E+00 0.  1.
         11    1    3    3    0    0  0.49272015623E+01  0.10467094738E+02  0.64664685790E+01  0.13253399701E+02  0.51100000000E-03 0. -1.
        -11    1    3    3    0    0  0.72001703834E+01  0.88281329592E+01 -0.40853718208E+01  0.12102423240E+02  0.51100000000E-03 0.  1.
        -12    1    3    3    0    0  0.23391667860E+01  0.19319300081E+02  0.11156289094E+02  0.22431447640E+02  0.00000000000E+00 0.  1.
</event>
<event>
 7    1  0.2110035E-010  0.4778727E+02  0.7816164E-02  0.1312668E+00
        -11   -1    0    0    0    0  0.00000000000E+00  0.00000000000E+00  0.45593999997E+02  0.45594000000E+02  0.51100000000E-03 0.  1.
         11   -1    0    0    0    0 -0.00000000000E+00 -0.00000000000E+00 -0.45593999997E+02  0.45594000000E+02  0.51100000000E-03 0. -1.
    9900012    2    1    2    0    0  0.21019236816E+02 -0.37914053282E+02  0.20831441342E+01  0.47787271411E+02  0.20000001669E+02 0.  0.
        -12    1    1    2    0    0 -0.21019236816E+02  0.37914053282E+02 -0.20831441342E+01  0.43400728589E+02  0.00000000000E+00 0.  1.
         11    1    3    3    0    0  0.16073098001E+02 -0.29836704942E+02  0.13813023706E+01  0.33918747584E+02  0.51100000000E-03 0. -1.
        -11    1    3    3    0    0  0.62118656310E+01 -0.40085239929E+01  0.40679491978E+01  0.84382314591E+01  0.51100000000E-03 0.  1.
         12    1    3    3    0    0 -0.12657268160E+01 -0.40688243474E+01 -0.33661074342E+01  0.54302923679E+01  0.00000000000E+00 0. -1.
</event>
<event>
 7    1  0.2110035E-010  0.4778727E+02  0.7816164E-02  0.1312668E+00
        -11   -1    0    0    0    0  0.00000000000E+00  0.00000000000E+00  0.45593999997E+02  0.45594000000E+02  0.51100000000E-03 0. -1.
         11   -1    0    0    0    0 -0.00000000000E+00 -0.00000000000E+00 -0.45593999997E+02  0.45594000000E+02  0.51100000000E-03 0.  1.
    9900012    2    1    2    0    0  0.78360712274E+01 -0.24883309881E+02  0.34684868355E+02  0.47787271714E+02  0.20000003053E+02 0.  0.
        -12    1    1    2    0    0 -0.78360712274E+01  0.24883309881E+02 -0.34684868355E+02  0.43400728286E+02  0.00000000000E+00 0.  1.
         11    1    3    3    0    0  0.48748269525E+01 -0.14446532804E+02  0.24876565888E+02  0.29177213344E+02  0.51100000000E-03 0. -1.
        -11    1    3    3    0    0  0.29578446141E+01  0.16733782649E+01  0.37779571914E+01  0.50815352385E+01  0.51100000000E-03 0.  1.
         12    1    3    3    0    0  0.33996607508E-02 -0.12110155342E+02  0.60303452755E+01  0.13528523131E+02  0.00000000000E+00 0. -1.
</event>
<event>
 7    1  0.2110035E-010  0.4778728E+02  0.7816164E-02  0.1312668E+00
        -11   -1    0    0    0    0  0.00000000000E+00  0.00000000000E+00  0.45593999997E+02  0.45594000000E+02  0.51100000000E-03 0. -1.
         11   -1    0    0    0    0 -0.00000000000E+00 -0.00000000000E+00 -0.45593999997E+02  0.45594000000E+02  0.51100000000E-03 0.  1.
    9900012    2    1    2    0    0  0.15274680476E+02  0.21735312944E+02  0.34320293824E+02  0.47787282718E+02  0.20000053225E+02 0.  0.
        -12    1    1    2    0    0 -0.15274680476E+02 -0.21735312944E+02 -0.34320293824E+02  0.43400717282E+02  0.00000000000E+00 0.  1.
         11    1    3    3    0    0  0.59064579663E+01  0.39107147920E+01  0.10631386082E+00  0.70845775309E+01  0.51100000000E-03 0. -1.
        -11    1    3    3    0    0  0.76308492688E+01  0.14777185325E+02  0.19751371031E+02  0.25820761502E+02  0.51100000000E-03 0.  1.
        -12    1    3    3    0    0  0.17373732412E+01  0.30474128266E+01  0.14462608933E+02  0.14881943685E+02  0.00000000000E+00 0.  1.
</event>
<event>
 7    1  0.2110035E-010  0.4778727E+02  0.7816164E-02  0.1312668E+00
        -11   -1    0    0    0    0  0.00000000000E+00  0.00000000000E+00  0.45593999997E+02  0.45594000000E+02  0.51100000000E-03 0.  1.
         11   -1    0    0    0    0 -0.00000000000E+00 -0.00000000000E+00 -0.45593999997E+02  0.45594000000E+02  0.51100000000E-03 0. -1.
    9900012    2    1    2    0    0  0.23920758053E+02 -0.74086567123E+00 -0.36205960502E+02  0.47787272775E+02  0.20000007892E+02 0.  0.
        -12    1    1    2    0    0 -0.23920758053E+02  0.74086567123E+00  0.36205960502E+02  0.43400727225E+02  0.00000000000E+00 0.  1.
         11    1    3    3    0    0  0.15573743133E+02 -0.26344255355E+01 -0.23228530799E+02  0.28089968252E+02  0.51100000000E-03 0. -1.
        -11    1    3    3    0    0  0.61798991514E+01 -0.26314328763E+01 -0.11034246036E+01  0.68068449829E+01  0.51100000000E-03 0.  1.
        -12    1    3    3    0    0  0.21671157682E+01  0.45249927405E+01 -0.11874005100E+02  0.12890459540E+02  0.00000000000E+00 0.  1.
</event>
<event>
 7    1  0.2110035E-010  0.4778728E+02  0.7816164E-02  0.1312668E+00
        -11   -1    0    0    0    0  0.00000000000E+00  0.00000000000E+00  0.45593999997E+02  0.45594000000E+02  0.51100000000E-03 0.  1.
         11   -1    0    0    0    0 -0.00000000000E+00 -0.00000000000E+00 -0.45593999997E+02  0.45594000000E+02  0.51100000000E-03 0. -1.
    9900012    2    1    2    0    0 -0.40479892741E+02 -0.74229460255E+01 -0.13780450967E+02  0.47787277969E+02  0.20000031571E+02 0.  0.
        -12    1    1    2    0    0  0.40479892741E+02  0.74229460255E+01  0.13780450967E+02  0.43400722031E+02  0.00000000000E+00 0.  1.
         11    1    3    3    0    0 -0.31570815957E+02 -0.10293826184E+02 -0.30090296203E+01  0.33342668418E+02  0.51100000000E-03 0. -1.
        -11    1    3    3    0    0 -0.88877904047E+00  0.12814518693E+00 -0.22626484308E+01  0.24343228123E+01  0.51100000000E-03 0.  1.
         12    1    3    3    0    0 -0.80202977428E+01  0.27427349717E+01 -0.85087729155E+01  0.12010286738E+02  0.00000000000E+00 0. -1.
</event>
<event>
 7    1  0.2110035E-010  0.4778727E+02  0.7816164E-02  0.1312668E+00
        -11   -1    0    0    0    0  0.00000000000E+00  0.00000000000E+00  0.45593999997E+02  0.45594000000E+02  0.51100000000E-03 0. -1.
         11   -1    0    0    0    0 -0.00000000000E+00 -0.00000000000E+00 -0.45593999997E+02  0.45594000000E+02  0.51100000000E-03 0.  1.
    9900012    2    1    2    0    0 -0.19474083684E+02  0.21568287602E+02  0.32236508383E+02  0.47787269152E+02  0.19999991373E+02 0.  0.
        -12    1    1    2    0    0  0.19474083684E+02 -0.21568287602E+02 -0.32236508383E+02  0.43400730848E+02  0.00000000000E+00 0.  1.
         11    1    3    3    0    0 -0.20618851981E+02  0.18601164336E+02  0.25191715560E+02  0.37493504835E+02  0.51100000000E-03 0. -1.
        -11    1    3    3    0    0  0.27112144742E+00  0.42965575004E+01  0.74924086341E+01  0.86411862955E+01  0.51100000000E-03 0.  1.
        -12    1    3    3    0    0  0.87364685009E+00 -0.13294342349E+01 -0.44761581129E+00  0.16525780218E+01  0.00000000000E+00 0.  1.
</event>
<event>
 7    1  0.2110035E-010  0.4778724E+02  0.7816164E-02  0.1312668E+00
        -11   -1    0    0    0    0  0.00000000000E+00  0.00000000000E+00  0.45593999997E+02  0.45594000000E+02  0.51100000000E-03 0.  1.
         11   -1    0    0    0    0 -0.00000000000E+00 -0.00000000000E+00 -0.45593999997E+02  0.45594000000E+02  0.51100000000E-03 0. -1.
    9900012    2    1    2    0    0  0.37061179350E+02  0.21397832078E+02 -0.72268583199E+01  0.47787242937E+02  0.19999871847E+02 0.  0.
        -12    1    1    2    0    0 -0.37061179350E+02 -0.21397832078E+02  0.72268583199E+01  0.43400757063E+02  0.00000000000E+00 0.  1.
         11    1    3    3    0    0  0.11889222387E+02  0.20591086208E+01  0.15095516564E+01  0.12160274822E+02  0.51100000000E-03 0. -1.
        -11    1    3    3    0    0  0.38788135286E+01  0.45962948761E+00  0.29180848103E+01  0.48756202556E+01  0.51100000000E-03 0.  1.
        -12    1    3    3    0    0  0.21293143434E+02  0.18879093969E+02 -0.11654494787E+02  0.30751347859E+02  0.00000000000E+00 0.  1.
</event>
<event>
 7    1  0.2110035E-010  0.4778727E+02  0.7816164E-02  0.1312668E+00
        -11   -1    0    0    0    0  0.00000000000E+00  0.00000000000E+00  0.45593999997E+02  0.45594000000E+02  0.51100000000E-03 0.  1.
         11   -1    0    0    0    0 -0.00000000000E+00 -0.00000000000E+00 -0.45593999997E+02  0.45594000000E+02  0.51100000000E-03 0. -1.
    9900012    2    1    2    0    0  0.12004191153E+02  0.25410143462E+02 -0.33073358732E+02  0.47787273580E+02  0.20000011562E+02 0.  0.
        -12    1    1    2    0    0 -0.12004191153E+02 -0.25410143462E+02  0.33073358732E+02  0.43400726420E+02  0.00000000000E+00 0.  1.
         11    1    3    3    0    0  0.68105914879E+01  0.59572753120E+01 -0.83352319168E+01  0.12302413459E+02  0.51100000000E-03 0. -1.
        -11    1    3    3    0    0  0.10526272668E+02  0.14133776281E+02 -0.14787903774E+02  0.23005393857E+02  0.51100000000E-03 0.  1.
        -12    1    3    3    0    0 -0.53326730031E+01  0.53190918691E+01 -0.99502230411E+01  0.12479466264E+02  0.00000000000E+00 0.  1.
</event>
<event>
 7    1  0.2110035E-010  0.4778727E+02  0.7816164E-02  0.1312668E+00
        -11   -1    0    0    0    0  0.00000000000E+00  0.00000000000E+00  0.45593999997E+02  0.45594000000E+02  0.51100000000E-03 0.  1.
         11   -1    0    0    0    0 -0.00000000000E+00 -0.00000000000E+00 -0.45593999997E+02  0.45594000000E+02  0.51100000000E-03 0. -1.
    9900012    2    1    2    0    0 -0.11314951411E+02  0.30620204539E+02 -0.28600674563E+02  0.47787266862E+02  0.19999980929E+02 0.  0.
        -12    1    1    2    0    0  0.11314951411E+02 -0.30620204539E+02  0.28600674563E+02  0.43400733138E+02  0.00000000000E+00 0.  1.
         11    1    3    3    0    0  0.48045332848E+00  0.19481957213E+01 -0.83661882170E+01  0.86034532319E+01  0.51100000000E-03 0. -1.
        -11    1    3    3    0    0 -0.12186515494E+02  0.19207152128E+02 -0.18985381819E+02  0.29628880772E+02  0.51100000000E-03 0.  1.
         12    1    3    3    0    0  0.39111075501E+00  0.94648566902E+01 -0.12491045275E+01  0.95549328574E+01  0.00000000000E+00 0. -1.
</event>
<event>
 7    1  0.2110035E-010  0.4778727E+02  0.7816164E-02  0.1312668E+00
        -11   -1    0    0    0    0  0.00000000000E+00  0.00000000000E+00  0.45593999997E+02  0.45594000000E+02  0.51100000000E-03 0. -1.
         11   -1    0    0    0    0 -0.00000000000E+00 -0.00000000000E+00 -0.45593999997E+02  0.45594000000E+02  0.51100000000E-03 0.  1.
    9900012    2    1    2    0    0  0.25659591102E+02 -0.18255423366E+02  0.29865503337E+02  0.47787269737E+02  0.19999994040E+02 0.  0.
        -12    1    1    2    0    0 -0.25659591102E+02  0.18255423366E+02 -0.29865503337E+02  0.43400730263E+02  0.00000000000E+00 0.  1.
         11    1    3    3    0    0  0.36041689638E+01 -0.11704121178E+02  0.11994894700E+02  0.17142169804E+02  0.51100000000E-03 0. -1.
        -11    1    3    3    0    0  0.15717950396E+02 -0.76387960636E+01  0.89101166577E+01  0.19616201188E+02  0.51100000000E-03 0.  1.
        -12    1    3    3    0    0  0.63374717422E+01  0.10874938756E+01  0.89604919788E+01  0.11028898744E+02  0.00000000000E+00 0.  1.
</event>
<event>
 7    1  0.2110035E-010  0.4778727E+02  0.7816164E-02  0.1312668E+00
        -11   -1    0    0    0    0  0.00000000000E+00  0.00000000000E+00  0.45593999997E+02  0.45594000000E+02  0.51100000000E-03 0.  1.
         11   -1    0    0    0    0 -0.00000000000E+00 -0.00000000000E+00 -0.45593999997E+02  0.45594000000E+02  0.51100000000E-03 0. -1.
    9900012    2    1    2    0    0 -0.23706121567E+02  0.22630240913E+02 -0.28451986983E+02  0.47787267670E+02  0.19999984615E+02 0.  0.
        -12    1    1    2    0    0  0.23706121567E+02 -0.22630240913E+02  0.28451986983E+02  0.43400732330E+02  0.00000000000E+00 0.  1.
         11    1    3    3    0    0 -0.24388892821E+02  0.15869689570E+02 -0.19225659052E+02  0.34875365321E+02  0.51100000000E-03 0. -1.
        -11    1    3    3    0    0 -0.58129133404E+00  0.50645384213E+01 -0.21613174331E+01  0.55370337134E+01  0.51100000000E-03 0.  1.
         12    1    3    3    0    0  0.12640625873E+01  0.16960129210E+01 -0.70650104977E+01  0.73748686351E+01  0.00000000000E+00 0. -1.
</event>
<event>
 7    1  0.2110035E-010  0.4778728E+02  0.7816164E-02  0.1312668E+00
        -11   -1    0    0    0    0  0.00000000000E+00  0.00000000000E+00  0.45593999997E+02  0.45594000000E+02  0.51100000000E-03 0.  1.
         11   -1    0    0    0    0 -0.00000000000E+00 -0.00000000000E+00 -0.45593999997E+02  0.45594000000E+02  0.51100000000E-03 0. -1.
    9900012    2    1    2    0    0 -0.47641783004E+01 -0.34974117325E+02 -0.25253439928E+02  0.47787279894E+02  0.20000040348E+02 0.  0.
        -12    1    1    2    0    0  0.47641783004E+01  0.34974117325E+02  0.25253439928E+02  0.43400720106E+02  0.00000000000E+00 0.  1.
         11    1    3    3    0    0  0.44705617403E+01 -0.14150884516E+02 -0.84272863111E+01  0.17066124625E+02  0.51100000000E-03 0. -1.
        -11    1    3    3    0    0 -0.26854654463E+01 -0.30652250422E+01 -0.96570430531E+01  0.10481689273E+02  0.51100000000E-03 0.  1.
         12    1    3    3    0    0 -0.65492745944E+01 -0.17758007767E+02 -0.71691105633E+01  0.20239465996E+02  0.00000000000E+00 0. -1.
</event>
<event>
 7    1  0.2110035E-010  0.4778727E+02  0.7816164E-02  0.1312668E+00
        -11   -1    0    0    0    0  0.00000000000E+00  0.00000000000E+00  0.45593999997E+02  0.45594000000E+02  0.51100000000E-03 0.  1.
         11   -1    0    0    0    0 -0.00000000000E+00 -0.00000000000E+00 -0.45593999997E+02  0.45594000000E+02  0.51100000000E-03 0. -1.
    9900012    2    1    2    0    0 -0.11674599099E+02 -0.41412701988E+02 -0.56846411357E+01  0.47787270802E+02  0.19999998896E+02 0.  0.
        -12    1    1    2    0    0  0.11674599099E+02  0.41412701988E+02  0.56846411357E+01  0.43400729198E+02  0.00000000000E+00 0.  1.
         11    1    3    3    0    0  0.14208632144E+01 -0.88618899707E+01 -0.39869863271E+01  0.98207945891E+01  0.51100000000E-03 0. -1.
        -11    1    3    3    0    0 -0.44068615837E+01 -0.19767588614E+02 -0.72966243272E+01  0.21527162271E+02  0.51100000000E-03 0.  1.
        -12    1    3    3    0    0 -0.86886007292E+01 -0.12783223403E+02  0.55989695186E+01  0.16439313942E+02  0.00000000000E+00 0.  1.
</event>
<event>
 7    1  0.2110035E-010  0.4778727E+02  0.7816164E-02  0.1312668E+00
        -11   -1    0    0    0    0  0.00000000000E+00  0.00000000000E+00  0.45593999997E+02  0.45594000000E+02  0.51100000000E-03 0.  1.
         11   -1    0    0    0    0 -0.00000000000E+00 -0.00000000000E+00 -0.45593999997E+02  0.45594000000E+02  0.51100000000E-03 0. -1.
    9900012    2    1    2    0    0 -0.19845819115E+02 -0.38259034859E+02 -0.51002820660E+01  0.47787272335E+02  0.20000005884E+02 0.  0.
        -12    1    1    2    0    0  0.19845819115E+02  0.38259034859E+02  0.51002820660E+01  0.43400727665E+02  0.00000000000E+00 0.  1.
         11    1    3    3    0    0 -0.40780882315E+01 -0.85876664954E+01  0.53373631538E+01  0.10902580665E+02  0.51100000000E-03 0. -1.
        -11    1    3    3    0    0 -0.12806298678E+01 -0.12418060087E+02 -0.12213691595E+01  0.12543523112E+02  0.51100000000E-03 0.  1.
         12    1    3    3    0    0 -0.14487101016E+02 -0.17253308277E+02 -0.92162760603E+01  0.24341168558E+02  0.00000000000E+00 0. -1.
</event>
<event>
 7    1  0.2110035E-010  0.4778727E+02  0.7816164E-02  0.1312668E+00
        -11   -1    0    0    0    0  0.00000000000E+00  0.00000000000E+00  0.45593999997E+02  0.45594000000E+02  0.51100000000E-03 0. -1.
         11   -1    0    0    0    0 -0.00000000000E+00 -0.00000000000E+00 -0.45593999997E+02  0.45594000000E+02  0.51100000000E-03 0.  1.
    9900012    2    1    2    0    0 -0.35677796564E+02  0.81971458688E+01  0.23313630444E+02  0.47787265760E+02  0.19999975908E+02 0.  0.
        -12    1    1    2    0    0  0.35677796564E+02 -0.81971458688E+01 -0.23313630444E+02  0.43400734240E+02  0.00000000000E+00 0.  1.
         11    1    3    3    0    0 -0.11125910492E+02  0.42279113433E+01  0.80955300675E+00  0.11929647729E+02  0.51100000000E-03 0. -1.
        -11    1    3    3    0    0 -0.95146262038E+01 -0.29502736872E+01  0.14180697504E+02  0.17329870414E+02  0.51100000000E-03 0.  1.
         12    1    3    3    0    0 -0.15037259868E+02  0.69195082127E+01  0.83233799338E+01  0.18527747617E+02  0.00000000000E+00 0. -1.
</event>
<event>
 7    1  0.2110035E-010  0.4778727E+02  0.7816164E-02  0.1312668E+00
        -11   -1    0    0    0    0  0.00000000000E+00  0.00000000000E+00  0.45593999997E+02  0.45594000000E+02  0.51100000000E-03 0. -1.
         11   -1    0    0    0    0 -0.00000000000E+00 -0.00000000000E+00 -0.45593999997E+02  0.45594000000E+02  0.51100000000E-03 0.  1.
    9900012    2    1    2    0    0  0.41341042970E+02 -0.16870097704E+01  0.13103269720E+02  0.47787268287E+02  0.19999987430E+02 0.  0.
        -12    1    1    2    0    0 -0.41341042970E+02  0.16870097704E+01 -0.13103269720E+02  0.43400731713E+02  0.00000000000E+00 0.  1.
         11    1    3    3    0    0  0.73473965340E+01 -0.18983727966E+01 -0.37926217486E+01  0.84836333662E+01  0.51100000000E-03 0. -1.
        -11    1    3    3    0    0  0.48503995648E+01 -0.72608522236E+00  0.69286615670E+01  0.84888118756E+01  0.51100000000E-03 0.  1.
         12    1    3    3    0    0  0.29143246871E+02  0.93744824854E+00  0.99672299012E+01  0.30814823046E+02  0.00000000000E+00 0. -1.
</event>
<event>
 7    1  0.2855604E-010  0.4778727E+02  0.7816164E-02  0.1312668E+00
        -11   -1    0    0    0    0  0.00000000000E+00  0.00000000000E+00  0.45593999997E+02  0.45594000000E+02  0.51100000000E-03 0.  1.
         11   -1    0    0    0    0 -0.00000000000E+00 -0.00000000000E+00 -0.45593999997E+02  0.45594000000E+02  0.51100000000E-03 0. -1.
    9900012    2    1    2    0    0 -0.42194553220E+02 -0.15407925133E+00 -0.10159680721E+02  0.47787272193E+02  0.20000005236E+02 0.  0.
        -12    1    1    2    0    0  0.42194553220E+02  0.15407925133E+00  0.10159680721E+02  0.43400727807E+02  0.00000000000E+00 0.  1.
         11    1    3    3    0    0 -0.12484670460E+02 -0.26023979291E+01 -0.11318526465E+01  0.12803146572E+02  0.51100000000E-03 0. -1.
        -11    1    3    3    0    0 -0.14970326727E+02  0.48695290654E+01 -0.11949538802E+02  0.19763969072E+02  0.51100000000E-03 0.  1.
        -12    1    3    3    0    0 -0.14739556033E+02 -0.24212103875E+01  0.29217107275E+01  0.15220156549E+02  0.00000000000E+00 0.  1.
</event>
<event>
 7    1  0.2110035E-010  0.4778727E+02  0.7816164E-02  0.1312668E+00
        -11   -1    0    0    0    0  0.00000000000E+00  0.00000000000E+00  0.45593999997E+02  0.45594000000E+02  0.51100000000E-03 0.  1.
         11   -1    0    0    0    0 -0.00000000000E+00 -0.00000000000E+00 -0.45593999997E+02  0.45594000000E+02  0.51100000000E-03 0. -1.
    9900012    2    1    2    0    0  0.58000766153E+01  0.45975928938E+01 -0.42764994413E+02  0.47787268482E+02  0.19999988318E+02 0.  0.
        -12    1    1    2    0    0 -0.58000766153E+01 -0.45975928938E+01  0.42764994413E+02  0.43400731518E+02  0.00000000000E+00 0.  1.
         11    1    3    3    0    0  0.41815885067E+00 -0.22432869814E+01 -0.34426909557E+00  0.23077510214E+01  0.51100000000E-03 0.  1.
        -11    1    3    3    0    0  0.65999710793E+01  0.38264784621E+00 -0.34772965004E+02  0.35395834968E+02  0.51100000000E-03 0. -1.
         12    1    3    3    0    0 -0.12180533146E+01  0.64582320290E+01 -0.76477603128E+01  0.10083682493E+02  0.00000000000E+00 0. -1.
</event>
<event>
 7    1  0.2110035E-010  0.4778727E+02  0.7816164E-02  0.1312668E+00
        -11   -1    0    0    0    0  0.00000000000E+00  0.00000000000E+00  0.45593999997E+02  0.45594000000E+02  0.51100000000E-03 0.  1.
         11   -1    0    0    0    0 -0.00000000000E+00 -0.00000000000E+00 -0.45593999997E+02  0.45594000000E+02  0.51100000000E-03 0. -1.
    9900012    2    1    2    0    0 -0.31804964974E+02 -0.35134747882E+01 -0.29321032445E+02  0.47787271369E+02  0.20000001480E+02 0.  0.
        -12    1    1    2    0    0  0.31804964974E+02  0.35134747882E+01  0.29321032445E+02  0.43400728631E+02  0.00000000000E+00 0.  1.
         11    1    3    3    0    0 -0.11419030455E+02  0.22241861767E+01 -0.10420008354E+02  0.15617869094E+02  0.51100000000E-03 0. -1.
        -11    1    3    3    0    0 -0.62123275666E+01  0.47386357450E+01 -0.28082068479E+01  0.83026326234E+01  0.51100000000E-03 0.  1.
        -12    1    3    3    0    0 -0.14173606952E+02 -0.10476296710E+02 -0.16092817244E+02  0.23866769652E+02  0.00000000000E+00 0.  1.
</event>
<event>
 7    1  0.2110035E-010  0.4778727E+02  0.7816164E-02  0.1312668E+00
        -11   -1    0    0    0    0  0.00000000000E+00  0.00000000000E+00  0.45593999997E+02  0.45594000000E+02  0.51100000000E-03 0. -1.
         11   -1    0    0    0    0 -0.00000000000E+00 -0.00000000000E+00 -0.45593999997E+02  0.45594000000E+02  0.51100000000E-03 0.  1.
    9900012    2    1    2    0    0 -0.24523672405E+02 -0.14548789311E+02  0.32719189002E+02  0.47787272960E+02  0.20000008733E+02 0.  0.
        -12    1    1    2    0    0  0.24523672405E+02  0.14548789311E+02 -0.32719189002E+02  0.43400727040E+02  0.00000000000E+00 0.  1.
         11    1    3    3    0    0 -0.72533984299E+01 -0.65812916693E+01  0.58473108794E+01  0.11406850293E+02  0.51100000000E-03 0. -1.
        -11    1    3    3    0    0 -0.18484745476E+02 -0.31839647986E+01  0.16870821004E+02  0.25227922007E+02  0.51100000000E-03 0.  1.
        -12    1    3    3    0    0  0.12144715010E+01 -0.47835328435E+01  0.10001057119E+02  0.11152500661E+02  0.00000000000E+00 0.  1.
</event>
<event>
 7    1  0.2110035E-010  0.4778727E+02  0.7816164E-02  0.1312668E+00
        -11   -1    0    0    0    0  0.00000000000E+00  0.00000000000E+00  0.45593999997E+02  0.45594000000E+02  0.51100000000E-03 0.  1.
         11   -1    0    0    0    0 -0.00000000000E+00 -0.00000000000E+00 -0.45593999997E+02  0.45594000000E+02  0.51100000000E-03 0. -1.
    9900012    2    1    2    0    0  0.28495610165E+02 -0.27051346877E+02 -0.18434979962E+02  0.47787266680E+02  0.19999980101E+02 0.  0.
        -12    1    1    2    0    0 -0.28495610165E+02  0.27051346877E+02  0.18434979962E+02  0.43400733320E+02  0.00000000000E+00 0.  1.
         11    1    3    3    0    0  0.11282809559E+02 -0.15007936086E+01 -0.73659582425E+01  0.13557710503E+02  0.51100000000E-03 0. -1.
        -11    1    3    3    0    0  0.71601069305E+01 -0.94228412332E+01  0.73575454270E+00  0.11857419752E+02  0.51100000000E-03 0.  1.
         12    1    3    3    0    0  0.10052693675E+02 -0.16127712035E+02 -0.11804776262E+02  0.22372136425E+02  0.00000000000E+00 0. -1.
</event>
<event>
 7    1  0.2110035E-010  0.4778727E+02  0.7816164E-02  0.1312668E+00
        -11   -1    0    0    0    0  0.00000000000E+00  0.00000000000E+00  0.45593999997E+02  0.45594000000E+02  0.51100000000E-03 0.  1.
         11   -1    0    0    0    0 -0.00000000000E+00 -0.00000000000E+00 -0.45593999997E+02  0.45594000000E+02  0.51100000000E-03 0. -1.
    9900012    2    1    2    0    0 -0.10806768456E+01 -0.40468095731E+02 -0.15645725174E+02  0.47787270159E+02  0.19999995962E+02 0.  0.
        -12    1    1    2    0    0  0.10806768456E+01  0.40468095731E+02  0.15645725174E+02  0.43400729841E+02  0.00000000000E+00 0.  1.
         11    1    3    3    0    0  0.53112559385E+01 -0.11995834674E+02 -0.80151473004E+01  0.15373746313E+02  0.51100000000E-03 0. -1.
        -11    1    3    3    0    0 -0.64637136944E+01 -0.80040974042E+01 -0.59298672446E+01  0.11874699818E+02  0.51100000000E-03 0.  1.
         12    1    3    3    0    0  0.71780910221E-01 -0.20468163652E+02 -0.17007106295E+01  0.20538824028E+02  0.00000000000E+00 0. -1.
</event>
<event>
 7    1  0.2110035E-010  0.4778727E+02  0.7816164E-02  0.1312668E+00
        -11   -1    0    0    0    0  0.00000000000E+00  0.00000000000E+00  0.45593999997E+02  0.45594000000E+02  0.51100000000E-03 0.  1.
         11   -1    0    0    0    0 -0.00000000000E+00 -0.00000000000E+00 -0.45593999997E+02  0.45594000000E+02  0.51100000000E-03 0. -1.
    9900012    2    1    2    0    0  0.23079813296E+02 -0.16318689891E+02 -0.32933961649E+02  0.47787271304E+02  0.20000001182E+02 0.  0.
        -12    1    1    2    0    0 -0.23079813296E+02  0.16318689891E+02  0.32933961649E+02  0.43400728696E+02  0.00000000000E+00 0.  1.
         11    1    3    3    0    0  0.60648081560E+01  0.19179466124E+01 -0.14725425660E+02  0.16040529241E+02  0.51100000000E-03 0.  1.
        -11    1    3    3    0    0  0.27876102374E+01 -0.80000186510E+01 -0.55957162528E+01  0.10152985270E+02  0.51100000000E-03 0. -1.
        -12    1    3    3    0    0  0.14227394902E+02 -0.10236617852E+02 -0.12612819735E+02  0.21593756793E+02  0.00000000000E+00 0.  1.
</event>
<event>
 7    1  0.2110035E-010  0.4778727E+02  0.7816164E-02  0.1312668E+00
        -11   -1    0    0    0    0  0.00000000000E+00  0.00000000000E+00  0.45593999997E+02  0.45594000000E+02  0.51100000000E-03 0. -1.
         11   -1    0    0    0    0 -0.00000000000E+00 -0.00000000000E+00 -0.45593999997E+02  0.45594000000E+02  0.51100000000E-03 0.  1.
    9900012    2    1    2    0    0 -0.28620112421E+02  0.16810515001E+02  0.27962814931E+02  0.47787271106E+02  0.20000000283E+02 0.  0.
        -12    1    1    2    0    0  0.28620112421E+02 -0.16810515001E+02 -0.27962814931E+02  0.43400728894E+02  0.00000000000E+00 0.  1.
         11    1    3    3    0    0 -0.79712756644E+01  0.70509119699E+01  0.12230823442E+02  0.16212638208E+02  0.51100000000E-03 0. -1.
        -11    1    3    3    0    0 -0.16950119825E+02  0.35119092672E+01  0.39816349967E+01  0.17762136310E+02  0.51100000000E-03 0.  1.
         12    1    3    3    0    0 -0.36987169319E+01  0.62476937640E+01  0.11750356492E+02  0.13812496589E+02  0.00000000000E+00 0. -1.
</event>
<event>
 7    1  0.2110035E-010  0.4778728E+02  0.7816164E-02  0.1312668E+00
        -11   -1    0    0    0    0  0.00000000000E+00  0.00000000000E+00  0.45593999997E+02  0.45594000000E+02  0.51100000000E-03 0. -1.
         11   -1    0    0    0    0 -0.00000000000E+00 -0.00000000000E+00 -0.45593999997E+02  0.45594000000E+02  0.51100000000E-03 0.  1.
    9900012    2    1    2    0    0 -0.15139205103E+02  0.84152371745E+01  0.39794606016E+02  0.47787280929E+02  0.20000045069E+02 0.  0.
        -12    1    1    2    0    0  0.15139205103E+02 -0.84152371745E+01 -0.39794606016E+02  0.43400719071E+02  0.00000000000E+00 0.  1.
         11    1    3    3    0    0 -0.17566412382E+02  0.49027489385E+01  0.39454081910E+02  0.43465392794E+02  0.51100000000E-03 0. -1.
        -11    1    3    3    0    0  0.10538275492E+01  0.10889833224E+01  0.24157763794E+00  0.15345348468E+01  0.51100000000E-03 0.  1.
         12    1    3    3    0    0  0.13733797299E+01  0.24235049137E+01  0.98946468228E-01  0.27873532881E+01  0.00000000000E+00 0. -1.
</event>
<event>
 7    1  0.2110035E-010  0.4778727E+02  0.7816164E-02  0.1312668E+00
        -11   -1    0    0    0    0  0.00000000000E+00  0.00000000000E+00  0.45593999997E+02  0.45594000000E+02  0.51100000000E-03 0.  1.
         11   -1    0    0    0    0 -0.00000000000E+00 -0.00000000000E+00 -0.45593999997E+02  0.45594000000E+02  0.51100000000E-03 0. -1.
    9900012    2    1    2    0    0 -0.20748621510E+02  0.16146348804E+01 -0.38085570204E+02  0.47787274221E+02  0.20000014485E+02 0.  0.
        -12    1    1    2    0    0  0.20748621510E+02 -0.16146348804E+01  0.38085570204E+02  0.43400725779E+02  0.00000000000E+00 0.  1.
         11    1    3    3    0    0 -0.36849591836E+01 -0.66557780854E+01 -0.19643758003E+02  0.21065505805E+02  0.51100000000E-03 0. -1.
        -11    1    3    3    0    0 -0.93418920385E+01  0.28296553380E+01 -0.10921112226E+02  0.14647477213E+02  0.51100000000E-03 0.  1.
        -12    1    3    3    0    0 -0.77217702879E+01  0.54407576278E+01 -0.75206999751E+01  0.12074291203E+02  0.00000000000E+00 0.  1.
</event>
<event>
 7    1  0.2110035E-010  0.4778727E+02  0.7816164E-02  0.1312668E+00
        -11   -1    0    0    0    0  0.00000000000E+00  0.00000000000E+00  0.45593999997E+02  0.45594000000E+02  0.51100000000E-03 0. -1.
         11   -1    0    0    0    0 -0.00000000000E+00 -0.00000000000E+00 -0.45593999997E+02  0.45594000000E+02  0.51100000000E-03 0.  1.
    9900012    2    1    2    0    0 -0.66390675387E+00  0.11616490591E+02  0.41811954355E+02  0.47787272439E+02  0.20000006358E+02 0.  0.
        -12    1    1    2    0    0  0.66390675387E+00 -0.11616490591E+02 -0.41811954355E+02  0.43400727561E+02  0.00000000000E+00 0.  1.
         11    1    3    3    0    0 -0.24586152673E+01  0.56789737908E+01  0.35445173642E+02  0.35981326644E+02  0.51100000000E-03 0. -1.
        -11    1    3    3    0    0 -0.18243084038E+01 -0.81928086640E+00  0.25576582026E+01  0.32466810796E+01  0.51100000000E-03 0.  1.
        -12    1    3    3    0    0  0.36190169173E+01  0.67567976666E+01  0.38091225112E+01  0.85592647149E+01  0.00000000000E+00 0.  1.
</event>
<event>
 7    1  0.2110035E-010  0.4778727E+02  0.7816164E-02  0.1312668E+00
        -11   -1    0    0    0    0  0.00000000000E+00  0.00000000000E+00  0.45593999997E+02  0.45594000000E+02  0.51100000000E-03 0.  1.
         11   -1    0    0    0    0 -0.00000000000E+00 -0.00000000000E+00 -0.45593999997E+02  0.45594000000E+02  0.51100000000E-03 0. -1.
    9900012    2    1    2    0    0  0.40884462228E+02  0.11769306564E+02 -0.85771589916E+01  0.47787268612E+02  0.19999988908E+02 0.  0.
        -12    1    1    2    0    0 -0.40884462228E+02 -0.11769306564E+02  0.85771589916E+01  0.43400731388E+02  0.00000000000E+00 0.  1.
         11    1    3    3    0    0  0.29147723989E+02  0.13485741085E+02 -0.16386098056E+01  0.32158048272E+02  0.51100000000E-03 0. -1.
        -11    1    3    3    0    0  0.10738979069E+02 -0.26876992098E+01 -0.30260699360E+01  0.11476345150E+02  0.51100000000E-03 0.  1.
        -12    1    3    3    0    0  0.99775917059E+00  0.97126468865E+00 -0.39124792499E+01  0.41528751895E+01  0.00000000000E+00 0.  1.
</event>
<event>
 7    1  0.2110035E-010  0.4778727E+02  0.7816164E-02  0.1312668E+00
        -11   -1    0    0    0    0  0.00000000000E+00  0.00000000000E+00  0.45593999997E+02  0.45594000000E+02  0.51100000000E-03 0. -1.
         11   -1    0    0    0    0 -0.00000000000E+00 -0.00000000000E+00 -0.45593999997E+02  0.45594000000E+02  0.51100000000E-03 0.  1.
    9900012    2    1    2    0    0  0.12516945892E+02 -0.27644980551E+02  0.31027481447E+02  0.47787268565E+02  0.19999988697E+02 0.  0.
        -12    1    1    2    0    0 -0.12516945892E+02  0.27644980551E+02 -0.31027481447E+02  0.43400731435E+02  0.00000000000E+00 0.  1.
         11    1    3    3    0    0  0.10185516124E+01 -0.80057101169E+01  0.13765733675E+02  0.15956950389E+02  0.51100000000E-03 0. -1.
        -11    1    3    3    0    0  0.41092168833E+01 -0.78322924914E+01 -0.95787416719E+00  0.88965157363E+01  0.51100000000E-03 0.  1.
        -12    1    3    3    0    0  0.73891773960E+01 -0.11806977943E+02  0.18219621940E+02  0.22933802440E+02  0.00000000000E+00 0.  1.
</event>
<event>
 7    1  0.2110035E-010  0.4778728E+02  0.7816164E-02  0.1312668E+00
        -11   -1    0    0    0    0  0.00000000000E+00  0.00000000000E+00  0.45593999997E+02  0.45594000000E+02  0.51100000000E-03 0.  1.
         11   -1    0    0    0    0 -0.00000000000E+00 -0.00000000000E+00 -0.45593999997E+02  0.45594000000E+02  0.51100000000E-03 0. -1.
    9900012    2    1    2    0    0 -0.18372800256E+02 -0.27433640716E+02 -0.28168394196E+02  0.47787275770E+02  0.20000021544E+02 0.  0.
        -12    1    1    2    0    0  0.18372800256E+02  0.27433640716E+02  0.28168394196E+02  0.43400724230E+02  0.00000000000E+00 0.  1.
         11    1    3    3    0    0  0.62326436239E+00 -0.53184091214E+01 -0.10694663759E+02  0.11960341434E+02  0.51100000000E-03 0. -1.
        -11    1    3    3    0    0 -0.31053385629E+00  0.11966708527E+01 -0.41903347986E-01  0.12370159891E+01  0.51100000000E-03 0.  1.
         12    1    3    3    0    0 -0.18685530762E+02 -0.23311902447E+02 -0.17431827089E+02  0.34589918346E+02  0.00000000000E+00 0. -1.
</event>
<event>
 7    1  0.2110035E-010  0.4778727E+02  0.7816164E-02  0.1312668E+00
        -11   -1    0    0    0    0  0.00000000000E+00  0.00000000000E+00  0.45593999997E+02  0.45594000000E+02  0.51100000000E-03 0.  1.
         11   -1    0    0    0    0 -0.00000000000E+00 -0.00000000000E+00 -0.45593999997E+02  0.45594000000E+02  0.51100000000E-03 0. -1.
    9900012    2    1    2    0    0  0.39481936260E+02 -0.47152398783E+01  0.17394436395E+02  0.47787271948E+02  0.20000004120E+02 0.  0.
        -12    1    1    2    0    0 -0.39481936260E+02  0.47152398783E+01 -0.17394436395E+02  0.43400728052E+02  0.00000000000E+00 0.  1.
         11    1    3    3    0    0  0.23304439026E+02  0.30289978313E+01  0.58935628188E+01  0.24228202351E+02  0.51100000000E-03 0. -1.
        -11    1    3    3    0    0 -0.11125525420E+01  0.37920795452E+00 -0.14733112437E+00  0.11846005879E+01  0.51100000000E-03 0.  1.
        -12    1    3    3    0    0  0.17290049775E+02 -0.81234456642E+01  0.11648204701E+02  0.22374469009E+02  0.00000000000E+00 0.  1.
</event>
<event>
 7    1  0.2110035E-010  0.4778727E+02  0.7816164E-02  0.1312668E+00
        -11   -1    0    0    0    0  0.00000000000E+00  0.00000000000E+00  0.45593999997E+02  0.45594000000E+02  0.51100000000E-03 0. -1.
         11   -1    0    0    0    0 -0.00000000000E+00 -0.00000000000E+00 -0.45593999997E+02  0.45594000000E+02  0.51100000000E-03 0.  1.
    9900012    2    1    2    0    0 -0.30916049657E+02  0.21212858032E+02  0.21859457782E+02  0.47787269974E+02  0.19999995120E+02 0.  0.
        -12    1    1    2    0    0  0.30916049657E+02 -0.21212858032E+02 -0.21859457782E+02  0.43400730026E+02  0.00000000000E+00 0.  1.
         11    1    3    3    0    0 -0.17364469049E+02  0.16155098584E+02  0.12770872303E+02  0.26937096638E+02  0.51100000000E-03 0. -1.
        -11    1    3    3    0    0 -0.45433644333E-01  0.28508653007E+01  0.62556296384E+01  0.68747654223E+01  0.51100000000E-03 0.  1.
         12    1    3    3    0    0 -0.13506146963E+02  0.22068941471E+01  0.28329558403E+01  0.13975407914E+02  0.00000000000E+00 0. -1.
</event>
<event>
 7    1  0.2110035E-010  0.4778727E+02  0.7816164E-02  0.1312668E+00
        -11   -1    0    0    0    0  0.00000000000E+00  0.00000000000E+00  0.45593999997E+02  0.45594000000E+02  0.51100000000E-03 0.  1.
         11   -1    0    0    0    0 -0.00000000000E+00 -0.00000000000E+00 -0.45593999997E+02  0.45594000000E+02  0.51100000000E-03 0. -1.
    9900012    2    1    2    0    0  0.45761414903E+01  0.25743359828E+02 -0.34640460860E+02  0.47787272187E+02  0.20000005208E+02 0.  0.
        -12    1    1    2    0    0 -0.45761414903E+01 -0.25743359828E+02  0.34640460860E+02  0.43400727813E+02  0.00000000000E+00 0.  1.
         11    1    3    3    0    0  0.48550131327E+01  0.13865520187E+02 -0.19971040683E+02  0.24792463951E+02  0.51100000000E-03 0. -1.
        -11    1    3    3    0    0 -0.73490096623E+00  0.63675828205E-01 -0.10397663081E+02  0.10423796422E+02  0.51100000000E-03 0.  1.
        -12    1    3    3    0    0  0.45602932384E+00  0.11814163813E+02 -0.42717570966E+01  0.12571011814E+02  0.00000000000E+00 0.  1.
</event>
<event>
 7    1  0.2110035E-010  0.4778727E+02  0.7816164E-02  0.1312668E+00
        -11   -1    0    0    0    0  0.00000000000E+00  0.00000000000E+00  0.45593999997E+02  0.45594000000E+02  0.51100000000E-03 0.  1.
         11   -1    0    0    0    0 -0.00000000000E+00 -0.00000000000E+00 -0.45593999997E+02  0.45594000000E+02  0.51100000000E-03 0. -1.
    9900012    2    1    2    0    0 -0.41199437068E+02 -0.46114981973E+01  0.12843821220E+02  0.47787271044E+02  0.19999999999E+02 0.  0.
        -12    1    1    2    0    0  0.41199437068E+02  0.46114981973E+01 -0.12843821220E+02  0.43400728956E+02  0.00000000000E+00 0.  1.
         11    1    3    3    0    0 -0.24929485450E+01 -0.15375138864E+01 -0.32754228775E+01  0.43939886989E+01  0.51100000000E-03 0. -1.
        -11    1    3    3    0    0 -0.19328775734E+02  0.34167660371E+01  0.56148970748E+01  0.20415752030E+02  0.51100000000E-03 0.  1.
        -12    1    3    3    0    0 -0.19377712789E+02 -0.64907503481E+01  0.10504347023E+02  0.22977530315E+02  0.00000000000E+00 0.  1.
</event>
<event>
 7    1  0.2110035E-010  0.4778727E+02  0.7816164E-02  0.1312668E+00
        -11   -1    0    0    0    0  0.00000000000E+00  0.00000000000E+00  0.45593999997E+02  0.45594000000E+02  0.51100000000E-03 0. -1.
         11   -1    0    0    0    0 -0.00000000000E+00 -0.00000000000E+00 -0.45593999997E+02  0.45594000000E+02  0.51100000000E-03 0.  1.
    9900012    2    1    2    0    0 -0.29595128115E+01  0.36002826971E+02  0.24055373269E+02  0.47787271329E+02  0.20000001299E+02 0.  0.
        -12    1    1    2    0    0  0.29595128115E+01 -0.36002826971E+02 -0.24055373269E+02  0.43400728671E+02  0.00000000000E+00 0.  1.
         11    1    3    3    0    0 -0.61505331850E+01  0.16552635720E+02  0.10143314011E+02  0.20364322407E+02  0.51100000000E-03 0. -1.
        -11    1    3    3    0    0  0.64151084555E+01  0.92502128194E+01  0.12181615347E+02  0.16586494700E+02  0.51100000000E-03 0.  1.
        -12    1    3    3    0    0 -0.32240880820E+01  0.10199978432E+02  0.17304439115E+01  0.10836454222E+02  0.00000000000E+00 0.  1.
</event>
<event>
 7    1  0.2110035E-010  0.4778727E+02  0.7816164E-02  0.1312668E+00
        -11   -1    0    0    0    0  0.00000000000E+00  0.00000000000E+00  0.45593999997E+02  0.45594000000E+02  0.51100000000E-03 0. -1.
         11   -1    0    0    0    0 -0.00000000000E+00 -0.00000000000E+00 -0.45593999997E+02  0.45594000000E+02  0.51100000000E-03 0.  1.
    9900012    2    1    2    0    0 -0.34082667758E+02 -0.13752041562E+02  0.23084108503E+02  0.47787274730E+02  0.20000016804E+02 0.  0.
        -12    1    1    2    0    0  0.34082667758E+02  0.13752041562E+02 -0.23084108503E+02  0.43400725270E+02  0.00000000000E+00 0.  1.
         11    1    3    3    0    0 -0.13365377018E+02 -0.25723464948E+01  0.10782459849E+00  0.13611094582E+02  0.51100000000E-03 0. -1.
        -11    1    3    3    0    0 -0.37193906960E+01 -0.56104701795E+01  0.30224442156E+01  0.73787812058E+01  0.51100000000E-03 0.  1.
        -12    1    3    3    0    0 -0.16997900044E+02 -0.55692248875E+01  0.19953839689E+02  0.26797398942E+02  0.00000000000E+00 0.  1.
</event>
<event>
 7    1  0.2110035E-010  0.4778727E+02  0.7816164E-02  0.1312668E+00
        -11   -1    0    0    0    0  0.00000000000E+00  0.00000000000E+00  0.45593999997E+02  0.45594000000E+02  0.51100000000E-03 0.  1.
         11   -1    0    0    0    0 -0.00000000000E+00 -0.00000000000E+00 -0.45593999997E+02  0.45594000000E+02  0.51100000000E-03 0. -1.
    9900012    2    1    2    0    0 -0.18022008167E+02  0.18735059534E+02 -0.34753818601E+02  0.47787272570E+02  0.20000006956E+02 0.  0.
        -12    1    1    2    0    0  0.18022008167E+02 -0.18735059534E+02  0.34753818601E+02  0.43400727430E+02  0.00000000000E+00 0.  1.
         11    1    3    3    0    0 -0.13950405252E+02  0.16588532709E+02 -0.24327859745E+02  0.32582786624E+02  0.51100000000E-03 0.  1.
        -11    1    3    3    0    0 -0.38103487845E+01  0.23647829248E+00 -0.12077150298E+02  0.12666184881E+02  0.51100000000E-03 0. -1.
         12    1    3    3    0    0 -0.26125413011E+00  0.19100485328E+01  0.16511914428E+01  0.25383010655E+01  0.00000000000E+00 0. -1.
</event>
<event>
 7    1  0.2110035E-010  0.4778727E+02  0.7816164E-02  0.1312668E+00
        -11   -1    0    0    0    0  0.00000000000E+00  0.00000000000E+00  0.45593999997E+02  0.45594000000E+02  0.51100000000E-03 0.  1.
         11   -1    0    0    0    0 -0.00000000000E+00 -0.00000000000E+00 -0.45593999997E+02  0.45594000000E+02  0.51100000000E-03 0. -1.
    9900012    2    1    2    0    0 -0.14860010395E+02  0.26337217850E+02 -0.31131239707E+02  0.47787273754E+02  0.20000012353E+02 0.  0.
        -12    1    1    2    0    0  0.14860010395E+02 -0.26337217850E+02  0.31131239707E+02  0.43400726246E+02  0.00000000000E+00 0.  1.
         11    1    3    3    0    0 -0.10879634724E+02  0.17977915363E+02 -0.22424850499E+02  0.30731837119E+02  0.51100000000E-03 0. -1.
        -11    1    3    3    0    0  0.20151278454E+01  0.21061725814E+01 -0.78219109920E+01  0.83473945039E+01  0.51100000000E-03 0.  1.
         12    1    3    3    0    0 -0.59955035171E+01  0.62531299054E+01 -0.88447821514E+00  0.87080421308E+01  0.00000000000E+00 0. -1.
</event>
<event>
 7    1  0.2110035E-010  0.4778727E+02  0.7816164E-02  0.1312668E+00
        -11   -1    0    0    0    0  0.00000000000E+00  0.00000000000E+00  0.45593999997E+02  0.45594000000E+02  0.51100000000E-03 0.  1.
         11   -1    0    0    0    0 -0.00000000000E+00 -0.00000000000E+00 -0.45593999997E+02  0.45594000000E+02  0.51100000000E-03 0. -1.
    9900012    2    1    2    0    0 -0.32182524273E+02 -0.22616884578E+02 -0.18340796674E+02  0.47787272365E+02  0.20000006022E+02 0.  0.
        -12    1    1    2    0    0  0.32182524273E+02  0.22616884578E+02  0.18340796674E+02  0.43400727635E+02  0.00000000000E+00 0.  1.
         11    1    3    3    0    0 -0.22302073714E+02 -0.21579893838E+02 -0.70326992722E+01  0.31820326355E+02  0.51100000000E-03 0. -1.
        -11    1    3    3    0    0 -0.43562589405E+01  0.79763962705E+00 -0.17214326290E+01  0.47514788738E+01  0.51100000000E-03 0.  1.
         12    1    3    3    0    0 -0.55241916183E+01 -0.18346303668E+01 -0.95866647730E+01  0.11215467136E+02  0.00000000000E+00 0. -1.
</event>
<event>
 7    1  0.2110035E-010  0.4778726E+02  0.7816164E-02  0.1312668E+00
        -11   -1    0    0    0    0  0.00000000000E+00  0.00000000000E+00  0.45593999997E+02  0.45594000000E+02  0.51100000000E-03 0.  1.
         11   -1    0    0    0    0 -0.00000000000E+00 -0.00000000000E+00 -0.45593999997E+02  0.45594000000E+02  0.51100000000E-03 0. -1.
    9900012    2    1    2    0    0  0.24683094281E+02  0.25814998918E+02 -0.24656733587E+02  0.47787264711E+02  0.19999971125E+02 0.  0.
        -12    1    1    2    0    0 -0.24683094281E+02 -0.25814998918E+02  0.24656733587E+02  0.43400735289E+02  0.00000000000E+00 0.  1.
         11    1    3    3    0    0  0.12840345470E+00  0.61806727510E+01 -0.28134804825E+01  0.67921186525E+01  0.51100000000E-03 0. -1.
        -11    1    3    3    0    0  0.78339868955E+01  0.15449461014E+02 -0.91585735454E+01  0.19594301875E+02  0.51100000000E-03 0.  1.
         12    1    3    3    0    0  0.16720703930E+02  0.41848651529E+01 -0.12684679559E+02  0.21400844184E+02  0.00000000000E+00 0. -1.
</event>
<event>
 7    1  0.2110035E-010  0.4778727E+02  0.7816164E-02  0.1312668E+00
        -11   -1    0    0    0    0  0.00000000000E+00  0.00000000000E+00  0.45593999997E+02  0.45594000000E+02  0.51100000000E-03 0.  1.
         11   -1    0    0    0    0 -0.00000000000E+00 -0.00000000000E+00 -0.45593999997E+02  0.45594000000E+02  0.51100000000E-03 0. -1.
    9900012    2    1    2    0    0 -0.41466928726E+02 -0.11308610736E+02 -0.60193191949E+01  0.47787273528E+02  0.20000011324E+02 0.  0.
        -12    1    1    2    0    0  0.41466928726E+02  0.11308610736E+02  0.60193191949E+01  0.43400726472E+02  0.00000000000E+00 0.  1.
         11    1    3    3    0    0 -0.21482887134E+02 -0.47702931638E+01  0.26409126420E+01  0.22164037455E+02  0.51100000000E-03 0. -1.
        -11    1    3    3    0    0 -0.13571481062E+02 -0.99010126103E+01 -0.51120463547E+01  0.17559845305E+02  0.51100000000E-03 0.  1.
         12    1    3    3    0    0 -0.64125605295E+01  0.33626950376E+01 -0.35481854823E+01  0.80633907679E+01  0.00000000000E+00 0. -1.
</event>
<event>
 7    1  0.2221936E-010  0.4778729E+02  0.7816164E-02  0.1312668E+00
        -11   -1    0    0    0    0  0.00000000000E+00  0.00000000000E+00  0.45593999997E+02  0.45594000000E+02  0.51100000000E-03 0.  1.
         11   -1    0    0    0    0 -0.00000000000E+00 -0.00000000000E+00 -0.45593999997E+02  0.45594000000E+02  0.51100000000E-03 0. -1.
    9900012    2    1    2    0    0  0.29733184564E+02  0.21504426169E+02 -0.23175837525E+02  0.47787285096E+02  0.20000064067E+02 0.  0.
        -12    1    1    2    0    0 -0.29733184564E+02 -0.21504426169E+02  0.23175837525E+02  0.43400714904E+02  0.00000000000E+00 0.  1.
         11    1    3    3    0    0  0.18536503760E+02  0.11700032307E+02 -0.87965526583E+01  0.23619315540E+02  0.51100000000E-03 0. -1.
        -11    1    3    3    0    0  0.69175460056E+01 -0.17205999000E+01 -0.54768911662E+01  0.89893961901E+01  0.51100000000E-03 0.  1.
        -12    1    3    3    0    0  0.42791347984E+01  0.11524993762E+02 -0.89023937004E+01  0.15178573366E+02  0.00000000000E+00 0.  1.
</event>
<event>
 7    1  0.2110035E-010  0.4778727E+02  0.7816164E-02  0.1312668E+00
        -11   -1    0    0    0    0  0.00000000000E+00  0.00000000000E+00  0.45593999997E+02  0.45594000000E+02  0.51100000000E-03 0.  1.
         11   -1    0    0    0    0 -0.00000000000E+00 -0.00000000000E+00 -0.45593999997E+02  0.45594000000E+02  0.51100000000E-03 0. -1.
    9900012    2    1    2    0    0 -0.11039208143E+02  0.14789223997E+02 -0.39281526009E+02  0.47787267881E+02  0.19999985578E+02 0.  0.
        -12    1    1    2    0    0  0.11039208143E+02 -0.14789223997E+02  0.39281526009E+02  0.43400732119E+02  0.00000000000E+00 0.  1.
         11    1    3    3    0    0 -0.74185674326E+01  0.52193583954E+01 -0.21239245395E+02  0.23095072852E+02  0.51100000000E-03 0. -1.
        -11    1    3    3    0    0 -0.38824737903E+01  0.10052293769E+02 -0.54278176878E+01  0.12065795368E+02  0.51100000000E-03 0.  1.
         12    1    3    3    0    0  0.26183307997E+00 -0.48242816748E+00 -0.12614462926E+02  0.12626399661E+02  0.00000000000E+00 0. -1.
</event>
<event>
 7    1  0.2110035E-010  0.4778726E+02  0.7816164E-02  0.1312668E+00
        -11   -1    0    0    0    0  0.00000000000E+00  0.00000000000E+00  0.45593999997E+02  0.45594000000E+02  0.51100000000E-03 0. -1.
         11   -1    0    0    0    0 -0.00000000000E+00 -0.00000000000E+00 -0.45593999997E+02  0.45594000000E+02  0.51100000000E-03 0.  1.
    9900012    2    1    2    0    0  0.12925854529E+02  0.55296784854E+01  0.41060553715E+02  0.47787261171E+02  0.19999954985E+02 0.  0.
        -12    1    1    2    0    0 -0.12925854529E+02 -0.55296784854E+01 -0.41060553715E+02  0.43400738829E+02  0.00000000000E+00 0.  1.
         11    1    3    3    0    0  0.50614001225E+01  0.30923122856E+01  0.74561094321E+01  0.95275251034E+01  0.51100000000E-03 0. -1.
        -11    1    3    3    0    0  0.74177851852E+01 -0.61824347022E+01  0.18084287766E+02  0.20500914618E+02  0.51100000000E-03 0.  1.
         12    1    3    3    0    0  0.44666922182E+00  0.86198009020E+01  0.15520156517E+02  0.17758821450E+02  0.00000000000E+00 0. -1.
</event>
<event>
 7    1  0.2110035E-010  0.4778730E+02  0.7816164E-02  0.1312668E+00
        -11   -1    0    0    0    0  0.00000000000E+00  0.00000000000E+00  0.45593999997E+02  0.45594000000E+02  0.51100000000E-03 0.  1.
         11   -1    0    0    0    0 -0.00000000000E+00 -0.00000000000E+00 -0.45593999997E+02  0.45594000000E+02  0.51100000000E-03 0. -1.
    9900012    2    1    2    0    0  0.37441852471E+02  0.23478230693E+01 -0.21822373725E+02  0.47787302026E+02  0.20000141257E+02 0.  0.
        -12    1    1    2    0    0 -0.37441852471E+02 -0.23478230693E+01  0.21822373725E+02  0.43400697974E+02  0.00000000000E+00 0.  1.
         11    1    3    3    0    0  0.51359563897E+01 -0.10825293345E+01 -0.91459827488E+00  0.53278896443E+01  0.51100000000E-03 0. -1.
        -11    1    3    3    0    0  0.10628456959E+02  0.79829372150E+01 -0.22153005969E+01  0.13475865126E+02  0.51100000000E-03 0.  1.
         12    1    3    3    0    0  0.21677439122E+02 -0.45525848112E+01 -0.18692474853E+02  0.28983547255E+02  0.00000000000E+00 0. -1.
</event>
<event>
 7    1  0.2110035E-010  0.4778728E+02  0.7816164E-02  0.1312668E+00
        -11   -1    0    0    0    0  0.00000000000E+00  0.00000000000E+00  0.45593999997E+02  0.45594000000E+02  0.51100000000E-03 0. -1.
         11   -1    0    0    0    0 -0.00000000000E+00 -0.00000000000E+00 -0.45593999997E+02  0.45594000000E+02  0.51100000000E-03 0.  1.
    9900012    2    1    2    0    0 -0.17054847797E+02 -0.20079879243E+02  0.34489904606E+02  0.47787275311E+02  0.20000019454E+02 0.  0.
        -12    1    1    2    0    0  0.17054847797E+02  0.20079879243E+02 -0.34489904606E+02  0.43400724689E+02  0.00000000000E+00 0.  1.
         11    1    3    3    0    0 -0.96883592232E+01 -0.15490990560E+02  0.26839565425E+02  0.32468405649E+02  0.51100000000E-03 0. -1.
        -11    1    3    3    0    0 -0.96414445430E+00 -0.39898979331E+01  0.78794195293E+01  0.88844871785E+01  0.51100000000E-03 0.  1.
        -12    1    3    3    0    0 -0.64023441190E+01 -0.59899075003E+00 -0.22908034761E+00  0.64343824834E+01  0.00000000000E+00 0.  1.
</event>
<event>
 7    1  0.2110035E-010  0.4778727E+02  0.7816164E-02  0.1312668E+00
        -11   -1    0    0    0    0  0.00000000000E+00  0.00000000000E+00  0.45593999997E+02  0.45594000000E+02  0.51100000000E-03 0. -1.
         11   -1    0    0    0    0 -0.00000000000E+00 -0.00000000000E+00 -0.45593999997E+02  0.45594000000E+02  0.51100000000E-03 0.  1.
    9900012    2    1    2    0    0  0.28632235969E+02  0.42902106183E+01  0.32332839458E+02  0.47787270154E+02  0.19999995942E+02 0.  0.
        -12    1    1    2    0    0 -0.28632235969E+02 -0.42902106183E+01 -0.32332839458E+02  0.43400729846E+02  0.00000000000E+00 0.  1.
         11    1    3    3    0    0  0.30119754750E+01  0.51050269547E+01  0.16509115248E+01  0.61529509663E+01  0.51100000000E-03 0.  1.
        -11    1    3    3    0    0  0.11108320432E+02  0.23640825116E+01  0.21081905855E+02  0.23946407323E+02  0.51100000000E-03 0. -1.
        -12    1    3    3    0    0  0.14511940062E+02 -0.31788988481E+01  0.96000220782E+01  0.17687911865E+02  0.00000000000E+00 0.  1.
</event>
<event>
 7    1  0.2110035E-010  0.4778727E+02  0.7816164E-02  0.1312668E+00
        -11   -1    0    0    0    0  0.00000000000E+00  0.00000000000E+00  0.45593999997E+02  0.45594000000E+02  0.51100000000E-03 0.  1.
         11   -1    0    0    0    0 -0.00000000000E+00 -0.00000000000E+00 -0.45593999997E+02  0.45594000000E+02  0.51100000000E-03 0. -1.
    9900012    2    1    2    0    0  0.15646209412E+02  0.35804043449E+02 -0.18891529404E+02  0.47787270979E+02  0.19999999704E+02 0.  0.
        -12    1    1    2    0    0 -0.15646209412E+02 -0.35804043449E+02  0.18891529404E+02  0.43400729021E+02  0.00000000000E+00 0.  1.
         11    1    3    3    0    0 -0.10114179821E+01 -0.26154225833E+00 -0.98678945033E+00  0.14370540588E+01  0.51100000000E-03 0. -1.
        -11    1    3    3    0    0 -0.18898498530E+00  0.11409378410E+02  0.22960650403E+00  0.11413253280E+02  0.51100000000E-03 0.  1.
         12    1    3    3    0    0  0.16846612380E+02  0.24656207297E+02 -0.18134346458E+02  0.34936963641E+02  0.00000000000E+00 0. -1.
</event>
<event>
 7    1  0.2110035E-010  0.4778728E+02  0.7816164E-02  0.1312668E+00
        -11   -1    0    0    0    0  0.00000000000E+00  0.00000000000E+00  0.45593999997E+02  0.45594000000E+02  0.51100000000E-03 0.  1.
         11   -1    0    0    0    0 -0.00000000000E+00 -0.00000000000E+00 -0.45593999997E+02  0.45594000000E+02  0.51100000000E-03 0. -1.
    9900012    2    1    2    0    0 -0.32217767397E+02  0.27954755789E+02  0.80106193886E+01  0.47787275003E+02  0.20000018050E+02 0.  0.
        -12    1    1    2    0    0  0.32217767397E+02 -0.27954755789E+02 -0.80106193886E+01  0.43400724997E+02  0.00000000000E+00 0.  1.
         11    1    3    3    0    0 -0.11295699905E+02  0.18552602204E+01 -0.22776615913E+00  0.11449310220E+02  0.51100000000E-03 0. -1.
        -11    1    3    3    0    0 -0.29089411546E+00  0.63170516172E+01 -0.76645019923E+00  0.63700240729E+01  0.51100000000E-03 0.  1.
         12    1    3    3    0    0 -0.20631173376E+02  0.19782443951E+02  0.90048357470E+01  0.29967940710E+02  0.00000000000E+00 0. -1.
</event>
<event>
 7    1  0.2123604E-010  0.4778727E+02  0.7816164E-02  0.1312668E+00
        -11   -1    0    0    0    0  0.00000000000E+00  0.00000000000E+00  0.45593999997E+02  0.45594000000E+02  0.51100000000E-03 0. -1.
         11   -1    0    0    0    0 -0.00000000000E+00 -0.00000000000E+00 -0.45593999997E+02  0.45594000000E+02  0.51100000000E-03 0.  1.
    9900012    2    1    2    0    0  0.13749245534E+02  0.19902619990E+01  0.41117156511E+02  0.47787268956E+02  0.19999990479E+02 0.  0.
        -12    1    1    2    0    0 -0.13749245534E+02 -0.19902619990E+01 -0.41117156511E+02  0.43400731044E+02  0.00000000000E+00 0.  1.
         11    1    3    3    0    0  0.45593016148E+01 -0.20441329669E+00  0.16633797060E+02  0.17248542574E+02  0.51100000000E-03 0. -1.
        -11    1    3    3    0    0  0.32417765491E+00  0.77106354772E+01  0.88928773203E+01  0.11774644704E+02  0.51100000000E-03 0.  1.
        -12    1    3    3    0    0  0.88657662639E+01 -0.55159601816E+01  0.15590482131E+02  0.18764081678E+02  0.00000000000E+00 0.  1.
</event>
<event>
 7    1  0.2110035E-010  0.4778727E+02  0.7816164E-02  0.1312668E+00
        -11   -1    0    0    0    0  0.00000000000E+00  0.00000000000E+00  0.45593999997E+02  0.45594000000E+02  0.51100000000E-03 0.  1.
         11   -1    0    0    0    0 -0.00000000000E+00 -0.00000000000E+00 -0.45593999997E+02  0.45594000000E+02  0.51100000000E-03 0. -1.
    9900012    2    1    2    0    0  0.12201540281E+02  0.29399663832E+02  0.29502634879E+02  0.47787270934E+02  0.19999999497E+02 0.  0.
        -12    1    1    2    0    0 -0.12201540281E+02 -0.29399663832E+02 -0.29502634879E+02  0.43400729066E+02  0.00000000000E+00 0.  1.
         11    1    3    3    0    0  0.87737942406E+00  0.18570506661E+01 -0.13878885592E+01  0.24788438321E+01  0.51100000000E-03 0. -1.
        -11    1    3    3    0    0 -0.68158393868E+00  0.14931872976E+02  0.19216125721E+02  0.24345120152E+02  0.51100000000E-03 0.  1.
        -12    1    3    3    0    0  0.12005744795E+02  0.12610740190E+02  0.11674397717E+02  0.20963306950E+02  0.00000000000E+00 0.  1.
</event>
<event>
 7    1  0.2110035E-010  0.4778727E+02  0.7816164E-02  0.1312668E+00
        -11   -1    0    0    0    0  0.00000000000E+00  0.00000000000E+00  0.45593999997E+02  0.45594000000E+02  0.51100000000E-03 0.  1.
         11   -1    0    0    0    0 -0.00000000000E+00 -0.00000000000E+00 -0.45593999997E+02  0.45594000000E+02  0.51100000000E-03 0. -1.
    9900012    2    1    2    0    0 -0.42039973524E+02  0.10613118841E+02 -0.19041078381E+01  0.47787270835E+02  0.19999999043E+02 0.  0.
        -12    1    1    2    0    0  0.42039973524E+02 -0.10613118841E+02  0.19041078381E+01  0.43400729165E+02  0.00000000000E+00 0.  1.
         11    1    3    3    0    0 -0.20702959637E+02  0.12320216852E+02  0.13277318592E+01  0.24128057385E+02  0.51100000000E-03 0. -1.
        -11    1    3    3    0    0 -0.20468953224E+02  0.10394511522E+01 -0.22615827299E+01  0.20619729908E+02  0.51100000000E-03 0.  1.
        -12    1    3    3    0    0 -0.86806066297E+00 -0.27465491627E+01 -0.97025696745E+00  0.30394835417E+01  0.00000000000E+00 0.  1.
</event>
<event>
 7    1  0.2110035E-010  0.4778727E+02  0.7816164E-02  0.1312668E+00
        -11   -1    0    0    0    0  0.00000000000E+00  0.00000000000E+00  0.45593999997E+02  0.45594000000E+02  0.51100000000E-03 0.  1.
         11   -1    0    0    0    0 -0.00000000000E+00 -0.00000000000E+00 -0.45593999997E+02  0.45594000000E+02  0.51100000000E-03 0. -1.
    9900012    2    1    2    0    0 -0.12054457927E+01 -0.57907537091E+01 -0.42995782756E+02  0.47787271171E+02  0.20000000576E+02 0.  0.
        -12    1    1    2    0    0  0.12054457927E+01  0.57907537091E+01  0.42995782756E+02  0.43400728829E+02  0.00000000000E+00 0.  1.
         11    1    3    3    0    0 -0.25727027114E+01 -0.77141759212E+01 -0.17023885547E+02  0.18866371903E+02  0.51100000000E-03 0. -1.
        -11    1    3    3    0    0 -0.46453820445E+01 -0.24500982447E+01 -0.11838535057E+02  0.12951195632E+02  0.51100000000E-03 0.  1.
        -12    1    3    3    0    0  0.60126389633E+01  0.43735204568E+01 -0.14133362152E+02  0.15969703636E+02  0.00000000000E+00 0.  1.
</event>
<event>
 7    1  0.2110035E-010  0.4778727E+02  0.7816164E-02  0.1312668E+00
        -11   -1    0    0    0    0  0.00000000000E+00  0.00000000000E+00  0.45593999997E+02  0.45594000000E+02  0.51100000000E-03 0. -1.
         11   -1    0    0    0    0 -0.00000000000E+00 -0.00000000000E+00 -0.45593999997E+02  0.45594000000E+02  0.51100000000E-03 0.  1.
    9900012    2    1    2    0    0  0.90372441971E+01  0.29693824781E+02  0.30335262757E+02  0.47787272134E+02  0.20000004966E+02 0.  0.
        -12    1    1    2    0    0 -0.90372441971E+01 -0.29693824781E+02 -0.30335262757E+02  0.43400727866E+02  0.00000000000E+00 0.  1.
         11    1    3    3    0    0  0.87756951195E+00  0.22198906524E+00  0.68491086555E+01  0.69086682530E+01  0.51100000000E-03 0.  1.
        -11    1    3    3    0    0  0.10867920982E+02  0.16511370898E+02  0.10722992262E+02  0.22488211105E+02  0.51100000000E-03 0. -1.
         12    1    3    3    0    0 -0.27082462967E+01  0.12960464818E+02  0.12763161839E+02  0.18390392776E+02  0.00000000000E+00 0. -1.
</event>
<event>
 7    1  0.2110035E-010  0.4778728E+02  0.7816164E-02  0.1312668E+00
        -11   -1    0    0    0    0  0.00000000000E+00  0.00000000000E+00  0.45593999997E+02  0.45594000000E+02  0.51100000000E-03 0. -1.
         11   -1    0    0    0    0 -0.00000000000E+00 -0.00000000000E+00 -0.45593999997E+02  0.45594000000E+02  0.51100000000E-03 0.  1.
    9900012    2    1    2    0    0  0.27584290204E+02  0.31343604453E+02  0.11845176659E+02  0.47787276317E+02  0.20000024041E+02 0.  0.
        -12    1    1    2    0    0 -0.27584290204E+02 -0.31343604453E+02 -0.11845176659E+02  0.43400723683E+02  0.00000000000E+00 0.  1.
         11    1    3    3    0    0  0.36986582122E+01 -0.83877255921E+00  0.23404114700E+00  0.37997878225E+01  0.51100000000E-03 0. -1.
        -11    1    3    3    0    0  0.58360667923E+01  0.18885892991E+02  0.31040370464E+01  0.20009289741E+02  0.51100000000E-03 0.  1.
         12    1    3    3    0    0  0.18049565199E+02  0.13296484021E+02  0.85070984652E+01  0.23978198754E+02  0.00000000000E+00 0. -1.
</event>
<event>
 7    1  0.2110035E-010  0.4778727E+02  0.7816164E-02  0.1312668E+00
        -11   -1    0    0    0    0  0.00000000000E+00  0.00000000000E+00  0.45593999997E+02  0.45594000000E+02  0.51100000000E-03 0.  1.
         11   -1    0    0    0    0 -0.00000000000E+00 -0.00000000000E+00 -0.45593999997E+02  0.45594000000E+02  0.51100000000E-03 0. -1.
    9900012    2    1    2    0    0 -0.25220957208E+02  0.34893608689E+02  0.54737997812E+01  0.47787273118E+02  0.20000009455E+02 0.  0.
        -12    1    1    2    0    0  0.25220957208E+02 -0.34893608689E+02 -0.54737997812E+01  0.43400726882E+02  0.00000000000E+00 0.  1.
         11    1    3    3    0    0 -0.26096045306E+00  0.48522178927E+01 -0.50135785209E+01  0.69819831483E+01  0.51100000000E-03 0.  1.
        -11    1    3    3    0    0 -0.11506119573E+02  0.11953660670E+02  0.19740137749E+01  0.16708606216E+02  0.51100000000E-03 0. -1.
        -12    1    3    3    0    0 -0.13453877182E+02  0.18087730126E+02  0.85133645272E+01  0.24096683753E+02  0.00000000000E+00 0.  1.
</event>
<event>
 7    1  0.2110035E-010  0.4778727E+02  0.7816164E-02  0.1312668E+00
        -11   -1    0    0    0    0  0.00000000000E+00  0.00000000000E+00  0.45593999997E+02  0.45594000000E+02  0.51100000000E-03 0. -1.
         11   -1    0    0    0    0 -0.00000000000E+00 -0.00000000000E+00 -0.45593999997E+02  0.45594000000E+02  0.51100000000E-03 0.  1.
    9900012    2    1    2    0    0 -0.37172753371E+02 -0.83713079180E+01 -0.20778127852E+02  0.47787274356E+02  0.20000015098E+02 0.  0.
        -12    1    1    2    0    0  0.37172753371E+02  0.83713079180E+01  0.20778127852E+02  0.43400725644E+02  0.00000000000E+00 0.  1.
         11    1    3    3    0    0 -0.16096856143E+02  0.60293226198E+01 -0.85345120192E+01  0.19191128279E+02  0.51100000000E-03 0. -1.
        -11    1    3    3    0    0 -0.10829460778E+02 -0.49653796764E+01 -0.56105574535E+01  0.13168544767E+02  0.51100000000E-03 0.  1.
         12    1    3    3    0    0 -0.10246436450E+02 -0.94352508615E+01 -0.66330583791E+01  0.15427601310E+02  0.00000000000E+00 0. -1.
</event>
<event>
 7    1  0.2110035E-010  0.4778727E+02  0.7816164E-02  0.1312668E+00
        -11   -1    0    0    0    0  0.00000000000E+00  0.00000000000E+00  0.45593999997E+02  0.45594000000E+02  0.51100000000E-03 0. -1.
         11   -1    0    0    0    0 -0.00000000000E+00 -0.00000000000E+00 -0.45593999997E+02  0.45594000000E+02  0.51100000000E-03 0.  1.
    9900012    2    1    2    0    0 -0.11854724239E+02 -0.40443469610E+02  0.10364115827E+02  0.47787267083E+02  0.19999981937E+02 0.  0.
        -12    1    1    2    0    0  0.11854724239E+02  0.40443469610E+02 -0.10364115827E+02  0.43400732917E+02  0.00000000000E+00 0.  1.
         11    1    3    3    0    0 -0.13854219880E+02 -0.30060281511E+02  0.31817312310E+01  0.33251817197E+02  0.51100000000E-03 0. -1.
        -11    1    3    3    0    0 -0.21918540819E+00 -0.65446481992E+01  0.56841381938E+00  0.65729412614E+01  0.51100000000E-03 0.  1.
        -12    1    3    3    0    0  0.22186810495E+01 -0.38385398994E+01  0.66139707765E+01  0.79625086242E+01  0.00000000000E+00 0.  1.
</event>
<event>
 7    1  0.2110035E-010  0.4778727E+02  0.7816164E-02  0.1312668E+00
        -11   -1    0    0    0    0  0.00000000000E+00  0.00000000000E+00  0.45593999997E+02  0.45594000000E+02  0.51100000000E-03 0.  1.
         11   -1    0    0    0    0 -0.00000000000E+00 -0.00000000000E+00 -0.45593999997E+02  0.45594000000E+02  0.51100000000E-03 0. -1.
    9900012    2    1    2    0    0  0.42363096371E+02 -0.74219103983E+01  0.58229482298E+01  0.47787269428E+02  0.19999992631E+02 0.  0.
        -12    1    1    2    0    0 -0.42363096371E+02  0.74219103983E+01 -0.58229482298E+01  0.43400730572E+02  0.00000000000E+00 0.  1.
         11    1    3    3    0    0  0.15151845142E+01 -0.31823320920E+01 -0.68480421261E+00  0.35905401720E+01  0.51100000000E-03 0. -1.
        -11    1    3    3    0    0  0.37184180864E+02 -0.84514041319E+01  0.56405952218E+01  0.38547449372E+02  0.51100000000E-03 0.  1.
        -12    1    3    3    0    0  0.36637309923E+01  0.42118258256E+01  0.86715722058E+00  0.56492798846E+01  0.00000000000E+00 0.  1.
</event>
<event>
 7    1  0.2110035E-010  0.4778727E+02  0.7816164E-02  0.1312668E+00
        -11   -1    0    0    0    0  0.00000000000E+00  0.00000000000E+00  0.45593999997E+02  0.45594000000E+02  0.51100000000E-03 0.  1.
         11   -1    0    0    0    0 -0.00000000000E+00 -0.00000000000E+00 -0.45593999997E+02  0.45594000000E+02  0.51100000000E-03 0. -1.
    9900012    2    1    2    0    0  0.31910314109E+02 -0.15431369465E+02 -0.25044517357E+02  0.47787272360E+02  0.20000005996E+02 0.  0.
        -12    1    1    2    0    0 -0.31910314109E+02  0.15431369465E+02  0.25044517357E+02  0.43400727640E+02  0.00000000000E+00 0.  1.
         11    1    3    3    0    0 -0.73560036798E+00 -0.15088214843E+00  0.27495554798E+00  0.79967126907E+00  0.51100000000E-03 0. -1.
        -11    1    3    3    0    0  0.44833584274E+01 -0.25249552245E+01  0.22011989198E+01  0.55965327319E+01  0.51100000000E-03 0.  1.
         12    1    3    3    0    0  0.28162556049E+02 -0.12755532092E+02 -0.27520671825E+02  0.41391068359E+02  0.00000000000E+00 0. -1.
</event>
<event>
 7    1  0.2163739E-010  0.4778727E+02  0.7816164E-02  0.1312668E+00
        -11   -1    0    0    0    0  0.00000000000E+00  0.00000000000E+00  0.45593999997E+02  0.45594000000E+02  0.51100000000E-03 0.  1.
         11   -1    0    0    0    0 -0.00000000000E+00 -0.00000000000E+00 -0.45593999997E+02  0.45594000000E+02  0.51100000000E-03 0. -1.
    9900012    2    1    2    0    0  0.79800539531E+00  0.35304803375E+02 -0.25230083787E+02  0.47787273257E+02  0.20000010087E+02 0.  0.
        -12    1    1    2    0    0 -0.79800539531E+00 -0.35304803375E+02  0.25230083787E+02  0.43400726743E+02  0.00000000000E+00 0.  1.
         11    1    3    3    0    0 -0.61233680017E-01  0.21834250625E+02 -0.18246630032E+02  0.28454837159E+02  0.51100000000E-03 0. -1.
        -11    1    3    3    0    0  0.55642438937E+01  0.43450051873E+01 -0.55199846702E+01  0.89615908860E+01  0.51100000000E-03 0.  1.
        -12    1    3    3    0    0 -0.47050048184E+01  0.91255475624E+01 -0.14634690843E+01  0.10370845212E+02  0.00000000000E+00 0.  1.
</event>
<event>
 7    1  0.2110035E-010  0.4778728E+02  0.7816164E-02  0.1312668E+00
        -11   -1    0    0    0    0  0.00000000000E+00  0.00000000000E+00  0.45593999997E+02  0.45594000000E+02  0.51100000000E-03 0. -1.
         11   -1    0    0    0    0 -0.00000000000E+00 -0.00000000000E+00 -0.45593999997E+02  0.45594000000E+02  0.51100000000E-03 0.  1.
    9900012    2    1    2    0    0 -0.36163058981E+02  0.82354623840E+01  0.22539592204E+02  0.47787275441E+02  0.20000020045E+02 0.  0.
        -12    1    1    2    0    0  0.36163058981E+02 -0.82354623840E+01 -0.22539592204E+02  0.43400724559E+02  0.00000000000E+00 0.  1.
         11    1    3    3    0    0 -0.16166284375E+02 -0.19571033859E+01  0.44836489964E+01  0.16890296408E+02  0.51100000000E-03 0. -1.
        -11    1    3    3    0    0 -0.20576091187E+02  0.72054518524E+01  0.17100327601E+02  0.27707675277E+02  0.51100000000E-03 0.  1.
        -12    1    3    3    0    0  0.57931658171E+00  0.29871139175E+01  0.95561560651E+00  0.31893037556E+01  0.00000000000E+00 0.  1.
</event>
<event>
 7    1  0.2110035E-010  0.4778727E+02  0.7816164E-02  0.1312668E+00
        -11   -1    0    0    0    0  0.00000000000E+00  0.00000000000E+00  0.45593999997E+02  0.45594000000E+02  0.51100000000E-03 0.  1.
         11   -1    0    0    0    0 -0.00000000000E+00 -0.00000000000E+00 -0.45593999997E+02  0.45594000000E+02  0.51100000000E-03 0. -1.
    9900012    2    1    2    0    0 -0.39669855378E+02  0.14323872633E+02 -0.10234864183E+02  0.47787271922E+02  0.20000003999E+02 0.  0.
        -12    1    1    2    0    0  0.39669855378E+02 -0.14323872633E+02  0.10234864183E+02  0.43400728078E+02  0.00000000000E+00 0.  1.
         11    1    3    3    0    0 -0.11629444822E+02  0.97421197247E+01 -0.63705845441E+00  0.15184160409E+02  0.51100000000E-03 0. -1.
        -11    1    3    3    0    0 -0.17492364114E+02  0.64962377915E+01 -0.11201154159E+02  0.21763496100E+02  0.51100000000E-03 0.  1.
        -12    1    3    3    0    0 -0.10548046441E+02 -0.19144848835E+01  0.16033484300E+01  0.10839615412E+02  0.00000000000E+00 0.  1.
</event>
<event>
 7    1  0.2110035E-010  0.4778727E+02  0.7816164E-02  0.1312668E+00
        -11   -1    0    0    0    0  0.00000000000E+00  0.00000000000E+00  0.45593999997E+02  0.45594000000E+02  0.51100000000E-03 0. -1.
         11   -1    0    0    0    0 -0.00000000000E+00 -0.00000000000E+00 -0.45593999997E+02  0.45594000000E+02  0.51100000000E-03 0.  1.
    9900012    2    1    2    0    0  0.17883549628E+02  0.39030640518E+02 -0.63569573062E+01  0.47787272440E+02  0.20000006361E+02 0.  0.
        -12    1    1    2    0    0 -0.17883549628E+02 -0.39030640518E+02  0.63569573062E+01  0.43400727560E+02  0.00000000000E+00 0.  1.
         11    1    3    3    0    0  0.14780611813E+02  0.23971281980E+02  0.31815027135E+01  0.28340973962E+02  0.51100000000E-03 0. -1.
        -11    1    3    3    0    0  0.36647385266E+01  0.42017762879E+01 -0.55467103114E+01  0.78645551674E+01  0.51100000000E-03 0.  1.
        -12    1    3    3    0    0 -0.56180071167E+00  0.10857582251E+02 -0.39917497083E+01  0.11581743311E+02  0.00000000000E+00 0.  1.
</event>
<event>
 7    1  0.2110035E-010  0.4778727E+02  0.7816164E-02  0.1312668E+00
        -11   -1    0    0    0    0  0.00000000000E+00  0.00000000000E+00  0.45593999997E+02  0.45594000000E+02  0.51100000000E-03 0.  1.
         11   -1    0    0    0    0 -0.00000000000E+00 -0.00000000000E+00 -0.45593999997E+02  0.45594000000E+02  0.51100000000E-03 0. -1.
    9900012    2    1    2    0    0 -0.30766709486E+02 -0.26522526119E+02 -0.15283611081E+02  0.47787267610E+02  0.19999984343E+02 0.  0.
        -12    1    1    2    0    0  0.30766709486E+02  0.26522526119E+02  0.15283611081E+02  0.43400732390E+02  0.00000000000E+00 0.  1.
         11    1    3    3    0    0 -0.88385154964E+01 -0.67393736634E+01 -0.83385940990E+01  0.13894987059E+02  0.51100000000E-03 0. -1.
        -11    1    3    3    0    0  0.25536658896E+00 -0.19692920508E+01 -0.49944764028E+01  0.53747667927E+01  0.51100000000E-03 0.  1.
         12    1    3    3    0    0 -0.22183560578E+02 -0.17813860405E+02 -0.19505405789E+01  0.28517513759E+02  0.00000000000E+00 0. -1.
</event>
<event>
 7    1  0.2110035E-010  0.4778727E+02  0.7816164E-02  0.1312668E+00
        -11   -1    0    0    0    0  0.00000000000E+00  0.00000000000E+00  0.45593999997E+02  0.45594000000E+02  0.51100000000E-03 0.  1.
         11   -1    0    0    0    0 -0.00000000000E+00 -0.00000000000E+00 -0.45593999997E+02  0.45594000000E+02  0.51100000000E-03 0. -1.
    9900012    2    1    2    0    0  0.29737452874E+02 -0.31583410534E+02  0.13400021416E+01  0.47787268092E+02  0.19999986537E+02 0.  0.
        -12    1    1    2    0    0 -0.29737452874E+02  0.31583410534E+02 -0.13400021416E+01  0.43400731908E+02  0.00000000000E+00 0.  1.
         11    1    3    3    0    0  0.11964690353E+02 -0.19467433189E+02  0.25537074018E+01  0.22992524698E+02  0.51100000000E-03 0. -1.
        -11    1    3    3    0    0  0.14256431038E+02 -0.12420261309E+02 -0.50612296293E+01  0.19573573065E+02  0.51100000000E-03 0.  1.
         12    1    3    3    0    0  0.35163314830E+01  0.30428396334E+00  0.38475243691E+01  0.52211703285E+01  0.00000000000E+00 0. -1.
</event>
<event>
 7    1  0.2219972E-010  0.4778727E+02  0.7816164E-02  0.1312668E+00
        -11   -1    0    0    0    0  0.00000000000E+00  0.00000000000E+00  0.45593999997E+02  0.45594000000E+02  0.51100000000E-03 0.  1.
         11   -1    0    0    0    0 -0.00000000000E+00 -0.00000000000E+00 -0.45593999997E+02  0.45594000000E+02  0.51100000000E-03 0. -1.
    9900012    2    1    2    0    0  0.86395281913E+01 -0.38809884936E+02 -0.17400419957E+02  0.47787271541E+02  0.20000002264E+02 0.  0.
        -12    1    1    2    0    0 -0.86395281913E+01  0.38809884936E+02  0.17400419957E+02  0.43400728459E+02  0.00000000000E+00 0.  1.
         11    1    3    3    0    0  0.58464254780E+01 -0.66058354874E+01 -0.34501725734E+01  0.94721404341E+01  0.51100000000E-03 0. -1.
        -11    1    3    3    0    0  0.20430260919E+01 -0.32682969961E+02 -0.99615976726E+01  0.34228407931E+02  0.51100000000E-03 0.  1.
        -12    1    3    3    0    0  0.75007662149E+00  0.47892051257E+00 -0.39886497111E+01  0.40867231755E+01  0.00000000000E+00 0.  1.
</event>
<event>
 7    1  0.2110035E-010  0.4778727E+02  0.7816164E-02  0.1312668E+00
        -11   -1    0    0    0    0  0.00000000000E+00  0.00000000000E+00  0.45593999997E+02  0.45594000000E+02  0.51100000000E-03 0. -1.
         11   -1    0    0    0    0 -0.00000000000E+00 -0.00000000000E+00 -0.45593999997E+02  0.45594000000E+02  0.51100000000E-03 0.  1.
    9900012    2    1    2    0    0  0.41021351655E+02 -0.43938477293E+01 -0.13474642262E+02  0.47787272201E+02  0.20000005271E+02 0.  0.
        -12    1    1    2    0    0 -0.41021351655E+02  0.43938477293E+01  0.13474642262E+02  0.43400727799E+02  0.00000000000E+00 0.  1.
         11    1    3    3    0    0  0.19034089370E+02 -0.79528528743E+01 -0.30854107662E+00  0.20631035477E+02  0.51100000000E-03 0. -1.
        -11    1    3    3    0    0  0.20182561127E+02  0.12432362690E+01 -0.91837275292E+01  0.22208607828E+02  0.51100000000E-03 0.  1.
        -12    1    3    3    0    0  0.18047011579E+01  0.23157688760E+01 -0.39823736562E+01  0.49476288962E+01  0.00000000000E+00 0.  1.
</event>
<event>
 7    1  0.2110035E-010  0.4778727E+02  0.7816164E-02  0.1312668E+00
        -11   -1    0    0    0    0  0.00000000000E+00  0.00000000000E+00  0.45593999997E+02  0.45594000000E+02  0.51100000000E-03 0.  1.
         11   -1    0    0    0    0 -0.00000000000E+00 -0.00000000000E+00 -0.45593999997E+02  0.45594000000E+02  0.51100000000E-03 0. -1.
    9900012    2    1    2    0    0 -0.24239171929E+02 -0.66473764979E+01 -0.35382175197E+02  0.47787269686E+02  0.19999993808E+02 0.  0.
        -12    1    1    2    0    0  0.24239171929E+02  0.66473764979E+01  0.35382175197E+02  0.43400730314E+02  0.00000000000E+00 0.  1.
         11    1    3    3    0    0 -0.87980172517E+01 -0.76642632471E+00 -0.58797405791E+01  0.10609611982E+02  0.51100000000E-03 0. -1.
        -11    1    3    3    0    0 -0.64515645495E+00 -0.75801832553E+01 -0.82023159856E+01  0.11187197720E+02  0.51100000000E-03 0.  1.
         12    1    3    3    0    0 -0.14795998222E+02  0.16992330821E+01 -0.21300118632E+02  0.25990459984E+02  0.00000000000E+00 0. -1.
</event>
<event>
 7    1  0.2110035E-010  0.4778727E+02  0.7816164E-02  0.1312668E+00
        -11   -1    0    0    0    0  0.00000000000E+00  0.00000000000E+00  0.45593999997E+02  0.45594000000E+02  0.51100000000E-03 0.  1.
         11   -1    0    0    0    0 -0.00000000000E+00 -0.00000000000E+00 -0.45593999997E+02  0.45594000000E+02  0.51100000000E-03 0. -1.
    9900012    2    1    2    0    0 -0.16600217263E+02  0.33818010616E+02  0.21549900833E+02  0.47787270961E+02  0.19999999621E+02 0.  0.
        -12    1    1    2    0    0  0.16600217263E+02 -0.33818010616E+02 -0.21549900833E+02  0.43400729039E+02  0.00000000000E+00 0.  1.
         11    1    3    3    0    0 -0.52742864275E+01  0.17617989588E+02  0.19970418559E+01  0.18498644028E+02  0.51100000000E-03 0. -1.
        -11    1    3    3    0    0  0.72368583110E+00  0.19275407127E+00 -0.53239346236E+00  0.91886798508E+00  0.51100000000E-03 0.  1.
        -12    1    3    3    0    0 -0.12049616666E+02  0.16007266957E+02  0.20085252439E+02  0.28369758948E+02  0.00000000000E+00 0.  1.
</event>
<event>
 7    1  0.2110035E-010  0.4778727E+02  0.7816164E-02  0.1312668E+00
        -11   -1    0    0    0    0  0.00000000000E+00  0.00000000000E+00  0.45593999997E+02  0.45594000000E+02  0.51100000000E-03 0.  1.
         11   -1    0    0    0    0 -0.00000000000E+00 -0.00000000000E+00 -0.45593999997E+02  0.45594000000E+02  0.51100000000E-03 0. -1.
    9900012    2    1    2    0    0  0.14762415444E+02 -0.15349161146E+01 -0.40784047297E+02  0.47787269693E+02  0.19999993840E+02 0.  0.
        -12    1    1    2    0    0 -0.14762415444E+02  0.15349161146E+01  0.40784047297E+02  0.43400730307E+02  0.00000000000E+00 0.  1.
         11    1    3    3    0    0 -0.35578785082E+01  0.27086521428E+01 -0.11399661507E+02  0.12245308434E+02  0.51100000000E-03 0. -1.
        -11    1    3    3    0    0  0.53615963129E+01 -0.10733421262E+01 -0.37081952219E+01  0.66067760979E+01  0.51100000000E-03 0.  1.
         12    1    3    3    0    0  0.12958697640E+02 -0.31702261311E+01 -0.25676190569E+02  0.28935185162E+02  0.00000000000E+00 0. -1.
</event>
<event>
 7    1  0.2110035E-010  0.4778727E+02  0.7816164E-02  0.1312668E+00
        -11   -1    0    0    0    0  0.00000000000E+00  0.00000000000E+00  0.45593999997E+02  0.45594000000E+02  0.51100000000E-03 0.  1.
         11   -1    0    0    0    0 -0.00000000000E+00 -0.00000000000E+00 -0.45593999997E+02  0.45594000000E+02  0.51100000000E-03 0. -1.
    9900012    2    1    2    0    0 -0.74679593829E+01 -0.30016106186E+02 -0.30444810585E+02  0.47787267985E+02  0.19999986049E+02 0.  0.
        -12    1    1    2    0    0  0.74679593829E+01  0.30016106186E+02  0.30444810585E+02  0.43400732015E+02  0.00000000000E+00 0.  1.
         11    1    3    3    0    0 -0.10990029826E+01 -0.20593310943E+02 -0.24277611725E+02  0.31854272783E+02  0.51100000000E-03 0. -1.
        -11    1    3    3    0    0 -0.17380158197E+01 -0.95112447238E+01 -0.23987668832E+01  0.99618551488E+01  0.51100000000E-03 0.  1.
        -12    1    3    3    0    0 -0.46309405806E+01  0.88449481483E-01 -0.37684319769E+01  0.59711400533E+01  0.00000000000E+00 0.  1.
</event>
<event>
 7    1  0.2110035E-010  0.4778727E+02  0.7816164E-02  0.1312668E+00
        -11   -1    0    0    0    0  0.00000000000E+00  0.00000000000E+00  0.45593999997E+02  0.45594000000E+02  0.51100000000E-03 0.  1.
         11   -1    0    0    0    0 -0.00000000000E+00 -0.00000000000E+00 -0.45593999997E+02  0.45594000000E+02  0.51100000000E-03 0. -1.
    9900012    2    1    2    0    0  0.60027452530E+01  0.15443384811E+02 -0.40113494027E+02  0.47787268577E+02  0.19999988750E+02 0.  0.
        -12    1    1    2    0    0 -0.60027452530E+01 -0.15443384811E+02  0.40113494027E+02  0.43400731423E+02  0.00000000000E+00 0.  1.
         11    1    3    3    0    0  0.50819658445E+01  0.27271086309E+01 -0.92680527814E+01  0.10916057024E+02  0.51100000000E-03 0. -1.
        -11    1    3    3    0    0 -0.42941553607E+01  0.67006049407E+01 -0.26768747724E+02  0.27926756557E+02  0.51100000000E-03 0.  1.
        -12    1    3    3    0    0  0.52149347693E+01  0.60156712394E+01 -0.40766935220E+01  0.89444549963E+01  0.00000000000E+00 0.  1.
</event>
<event>
 7    1  0.2110035E-010  0.4778727E+02  0.7816164E-02  0.1312668E+00
        -11   -1    0    0    0    0  0.00000000000E+00  0.00000000000E+00  0.45593999997E+02  0.45594000000E+02  0.51100000000E-03 0. -1.
         11   -1    0    0    0    0 -0.00000000000E+00 -0.00000000000E+00 -0.45593999997E+02  0.45594000000E+02  0.51100000000E-03 0.  1.
    9900012    2    1    2    0    0  0.57172419404E+01 -0.40633149029E+02  0.14138021595E+02  0.47787270628E+02  0.19999998100E+02 0.  0.
        -12    1    1    2    0    0 -0.57172419404E+01  0.40633149029E+02 -0.14138021595E+02  0.43400729372E+02  0.00000000000E+00 0.  1.
         11    1    3    3    0    0  0.46526810749E+00 -0.64936440346E+01 -0.17461177740E+01  0.67403868436E+01  0.51100000000E-03 0. -1.
        -11    1    3    3    0    0  0.52816317758E+00  0.92675336435E+00 -0.13248539229E+01  0.17009016194E+01  0.51100000000E-03 0.  1.
         12    1    3    3    0    0  0.47238106553E+01 -0.35066258359E+02  0.17208993292E+02  0.39345982165E+02  0.00000000000E+00 0. -1.
</event>
<event>
 7    1  0.2110035E-010  0.4778727E+02  0.7816164E-02  0.1312668E+00
        -11   -1    0    0    0    0  0.00000000000E+00  0.00000000000E+00  0.45593999997E+02  0.45594000000E+02  0.51100000000E-03 0.  1.
         11   -1    0    0    0    0 -0.00000000000E+00 -0.00000000000E+00 -0.45593999997E+02  0.45594000000E+02  0.51100000000E-03 0. -1.
    9900012    2    1    2    0    0  0.74256072564E+01  0.34678100130E+02 -0.25018251121E+02  0.47787272346E+02  0.20000005934E+02 0.  0.
        -12    1    1    2    0    0 -0.74256072564E+01 -0.34678100130E+02  0.25018251121E+02  0.43400727654E+02  0.00000000000E+00 0.  1.
         11    1    3    3    0    0  0.22047221899E+01  0.18392359931E+02 -0.32066333111E+01  0.18799526622E+02  0.51100000000E-03 0. -1.
        -11    1    3    3    0    0  0.19484022947E+01  0.14522397968E+02 -0.13676403802E+02  0.20043461165E+02  0.51100000000E-03 0.  1.
        -12    1    3    3    0    0  0.32724827719E+01  0.17633422306E+01 -0.81352140081E+01  0.89442845590E+01  0.00000000000E+00 0.  1.
</event>
<event>
 7    1  0.2110035E-010  0.4778728E+02  0.7816164E-02  0.1312668E+00
        -11   -1    0    0    0    0  0.00000000000E+00  0.00000000000E+00  0.45593999997E+02  0.45594000000E+02  0.51100000000E-03 0.  1.
         11   -1    0    0    0    0 -0.00000000000E+00 -0.00000000000E+00 -0.45593999997E+02  0.45594000000E+02  0.51100000000E-03 0. -1.
    9900012    2    1    2    0    0  0.93056760537E+01  0.31061911445E+02 -0.28847616301E+02  0.47787275171E+02  0.20000018816E+02 0.  0.
        -12    1    1    2    0    0 -0.93056760537E+01 -0.31061911445E+02  0.28847616301E+02  0.43400724829E+02  0.00000000000E+00 0.  1.
         11    1    3    3    0    0 -0.64461253457E+00  0.86611481563E+01 -0.44560327764E+01  0.97615183794E+01  0.51100000000E-03 0. -1.
        -11    1    3    3    0    0  0.12530085236E+02  0.92816909519E+01 -0.10856671071E+02  0.19000529728E+02  0.51100000000E-03 0.  1.
        -12    1    3    3    0    0 -0.25797966476E+01  0.13119072337E+02 -0.13534912453E+02  0.19025227064E+02  0.00000000000E+00 0.  1.
</event>
<event>
 7    1  0.2110035E-010  0.4778727E+02  0.7816164E-02  0.1312668E+00
        -11   -1    0    0    0    0  0.00000000000E+00  0.00000000000E+00  0.45593999997E+02  0.45594000000E+02  0.51100000000E-03 0. -1.
         11   -1    0    0    0    0 -0.00000000000E+00 -0.00000000000E+00 -0.45593999997E+02  0.45594000000E+02  0.51100000000E-03 0.  1.
    9900012    2    1    2    0    0 -0.17489220658E+02 -0.39720488791E+02  0.18218069314E+00  0.47787271218E+02  0.20000000790E+02 0.  0.
        -12    1    1    2    0    0  0.17489220658E+02  0.39720488791E+02 -0.18218069314E+00  0.43400728782E+02  0.00000000000E+00 0.  1.
         11    1    3    3    0    0 -0.78742717685E+01 -0.20573314882E+02 -0.58290989140E+01  0.22786922467E+02  0.51100000000E-03 0. -1.
        -11    1    3    3    0    0 -0.41441673906E+01 -0.44985521199E+01 -0.31473801125E+01  0.68787423538E+01  0.51100000000E-03 0.  1.
        -12    1    3    3    0    0 -0.54707814993E+01 -0.14648621789E+02  0.91586597196E+01  0.18121606396E+02  0.00000000000E+00 0.  1.
</event>
<event>
 7    1  0.2110035E-010  0.4778728E+02  0.7816164E-02  0.1312668E+00
        -11   -1    0    0    0    0  0.00000000000E+00  0.00000000000E+00  0.45593999997E+02  0.45594000000E+02  0.51100000000E-03 0.  1.
         11   -1    0    0    0    0 -0.00000000000E+00 -0.00000000000E+00 -0.45593999997E+02  0.45594000000E+02  0.51100000000E-03 0. -1.
    9900012    2    1    2    0    0 -0.23807256169E+01  0.24146051970E+02 -0.35985035403E+02  0.47787280500E+02  0.20000043110E+02 0.  0.
        -12    1    1    2    0    0  0.23807256169E+01 -0.24146051970E+02  0.35985035403E+02  0.43400719500E+02  0.00000000000E+00 0.  1.
         11    1    3    3    0    0  0.69680469586E+01  0.23716080219E+01 -0.83182020110E+01  0.11107235839E+02  0.51100000000E-03 0. -1.
        -11    1    3    3    0    0 -0.46426643188E+01  0.65951210990E+01 -0.75951175416E+01  0.11078617469E+02  0.51100000000E-03 0.  1.
         12    1    3    3    0    0 -0.47061082567E+01  0.15179322849E+02 -0.20071715850E+02  0.25601427192E+02  0.00000000000E+00 0. -1.
</event>
<event>
 7    1  0.2110035E-010  0.4778727E+02  0.7816164E-02  0.1312668E+00
        -11   -1    0    0    0    0  0.00000000000E+00  0.00000000000E+00  0.45593999997E+02  0.45594000000E+02  0.51100000000E-03 0. -1.
         11   -1    0    0    0    0 -0.00000000000E+00 -0.00000000000E+00 -0.45593999997E+02  0.45594000000E+02  0.51100000000E-03 0.  1.
    9900012    2    1    2    0    0  0.17158327995E+02 -0.34323078512E+02  0.20276622085E+02  0.47787270268E+02  0.19999996461E+02 0.  0.
        -12    1    1    2    0    0 -0.17158327995E+02  0.34323078512E+02 -0.20276622085E+02  0.43400729732E+02  0.00000000000E+00 0.  1.
         11    1    3    3    0    0  0.13580901907E+02 -0.11464752477E+02  0.12758630689E+02  0.21878393526E+02  0.51100000000E-03 0. -1.
        -11    1    3    3    0    0 -0.23708564328E+01 -0.41156799773E+01  0.33387336696E+01  0.58057665022E+01  0.51100000000E-03 0.  1.
        -12    1    3    3    0    0  0.59482825203E+01 -0.18742646057E+02  0.41792577264E+01  0.20103110240E+02  0.00000000000E+00 0.  1.
</event>
<event>
 7    1  0.2110035E-010  0.4778727E+02  0.7816164E-02  0.1312668E+00
        -11   -1    0    0    0    0  0.00000000000E+00  0.00000000000E+00  0.45593999997E+02  0.45594000000E+02  0.51100000000E-03 0. -1.
         11   -1    0    0    0    0 -0.00000000000E+00 -0.00000000000E+00 -0.45593999997E+02  0.45594000000E+02  0.51100000000E-03 0.  1.
    9900012    2    1    2    0    0  0.86948177748E+00 -0.42294064057E+02  0.96994511923E+01  0.47787271821E+02  0.20000003543E+02 0.  0.
        -12    1    1    2    0    0 -0.86948177748E+00  0.42294064057E+02 -0.96994511923E+01  0.43400728179E+02  0.00000000000E+00 0.  1.
         11    1    3    3    0    0  0.13098712471E+01 -0.19705942596E+02  0.19941351192E+01  0.19849849153E+02  0.51100000000E-03 0. -1.
        -11    1    3    3    0    0  0.56889082581E+01 -0.32329115371E+01  0.15873647188E+01  0.67331360589E+01  0.51100000000E-03 0.  1.
        -12    1    3    3    0    0 -0.61292977277E+01 -0.19355209924E+02  0.61179513543E+01  0.21204286609E+02  0.00000000000E+00 0.  1.
</event>
<event>
 7    1  0.2110035E-010  0.4778728E+02  0.7816164E-02  0.1312668E+00
        -11   -1    0    0    0    0  0.00000000000E+00  0.00000000000E+00  0.45593999997E+02  0.45594000000E+02  0.51100000000E-03 0.  1.
         11   -1    0    0    0    0 -0.00000000000E+00 -0.00000000000E+00 -0.45593999997E+02  0.45594000000E+02  0.51100000000E-03 0. -1.
    9900012    2    1    2    0    0  0.27471793272E+02  0.32390058460E+02 -0.89334784185E+01  0.47787281696E+02  0.20000048566E+02 0.  0.
        -12    1    1    2    0    0 -0.27471793272E+02 -0.32390058460E+02  0.89334784185E+01  0.43400718304E+02  0.00000000000E+00 0.  1.
         11    1    3    3    0    0  0.17280349642E+02  0.19351712191E+02 -0.60294016044E+01  0.26635557671E+02  0.51100000000E-03 0. -1.
        -11    1    3    3    0    0  0.10869353806E+02  0.50578102050E+01 -0.48122400699E+01  0.12918279723E+02  0.51100000000E-03 0.  1.
        -12    1    3    3    0    0 -0.67791017627E+00  0.79805360643E+01  0.19081632557E+01  0.82334443030E+01  0.00000000000E+00 0.  1.
</event>
<event>
 7    1  0.2110035E-010  0.4778728E+02  0.7816164E-02  0.1312668E+00
        -11   -1    0    0    0    0  0.00000000000E+00  0.00000000000E+00  0.45593999997E+02  0.45594000000E+02  0.51100000000E-03 0.  1.
         11   -1    0    0    0    0 -0.00000000000E+00 -0.00000000000E+00 -0.45593999997E+02  0.45594000000E+02  0.51100000000E-03 0. -1.
    9900012    2    1    2    0    0 -0.68532920821E+01  0.12488052816E+02 -0.40996386880E+02  0.47787276357E+02  0.20000024221E+02 0.  0.
        -12    1    1    2    0    0  0.68532920821E+01 -0.12488052816E+02  0.40996386880E+02  0.43400723643E+02  0.00000000000E+00 0.  1.
         11    1    3    3    0    0 -0.87424518565E+01  0.13704093763E+02 -0.37254280295E+02  0.40646205860E+02  0.51100000000E-03 0. -1.
        -11    1    3    3    0    0  0.28327324602E+01  0.12302287851E+01 -0.32313645490E+01  0.44698493447E+01  0.51100000000E-03 0.  1.
        -12    1    3    3    0    0 -0.94357268582E+00 -0.24462697317E+01 -0.51074203695E+00  0.26712211518E+01  0.00000000000E+00 0.  1.
</event>
<event>
 7    1  0.2110035E-010  0.4778725E+02  0.7816164E-02  0.1312668E+00
        -11   -1    0    0    0    0  0.00000000000E+00  0.00000000000E+00  0.45593999997E+02  0.45594000000E+02  0.51100000000E-03 0.  1.
         11   -1    0    0    0    0 -0.00000000000E+00 -0.00000000000E+00 -0.45593999997E+02  0.45594000000E+02  0.51100000000E-03 0. -1.
    9900012    2    1    2    0    0 -0.37726343580E+02  0.40674342587E+01 -0.21066666914E+02  0.47787245672E+02  0.19999884316E+02 0.  0.
        -12    1    1    2    0    0  0.37726343580E+02 -0.40674342587E+01  0.21066666914E+02  0.43400754328E+02  0.00000000000E+00 0.  1.
         11    1    3    3    0    0 -0.17053756716E+02  0.94875090818E+01 -0.73713137586E+01  0.20860961471E+02  0.51100000000E-03 0. -1.
        -11    1    3    3    0    0 -0.20393155655E+02 -0.31968648854E+01 -0.13526389253E+02  0.24679221000E+02  0.51100000000E-03 0.  1.
        -12    1    3    3    0    0 -0.27943120847E+00 -0.22232099378E+01 -0.16896390248E+00  0.22470632007E+01  0.00000000000E+00 0.  1.
</event>
<event>
 7    1  0.2110035E-010  0.4778727E+02  0.7816164E-02  0.1312668E+00
        -11   -1    0    0    0    0  0.00000000000E+00  0.00000000000E+00  0.45593999997E+02  0.45594000000E+02  0.51100000000E-03 0.  1.
         11   -1    0    0    0    0 -0.00000000000E+00 -0.00000000000E+00 -0.45593999997E+02  0.45594000000E+02  0.51100000000E-03 0. -1.
    9900012    2    1    2    0    0  0.33164695696E+02  0.55115003846E+01 -0.27447211273E+02  0.47787273235E+02  0.20000009987E+02 0.  0.
        -12    1    1    2    0    0 -0.33164695696E+02 -0.55115003846E+01  0.27447211273E+02  0.43400726765E+02  0.00000000000E+00 0.  1.
         11    1    3    3    0    0  0.17277309943E+02  0.52485360200E+01 -0.15356537548E+02  0.23703919823E+02  0.51100000000E-03 0. -1.
        -11    1    3    3    0    0 -0.17889159599E+01  0.19492292835E+01 -0.81328270925E-01  0.26469472340E+01  0.51100000000E-03 0.  1.
         12    1    3    3    0    0  0.17676301712E+02 -0.16862649188E+01 -0.12009345454E+02  0.21436406178E+02  0.00000000000E+00 0. -1.
</event>
<event>
 7    1  0.2576399E-010  0.4778727E+02  0.7816164E-02  0.1312668E+00
        -11   -1    0    0    0    0  0.00000000000E+00  0.00000000000E+00  0.45593999997E+02  0.45594000000E+02  0.51100000000E-03 0.  1.
         11   -1    0    0    0    0 -0.00000000000E+00 -0.00000000000E+00 -0.45593999997E+02  0.45594000000E+02  0.51100000000E-03 0. -1.
    9900012    2    1    2    0    0  0.84212693387E+01 -0.29523755615E+02 -0.30676601011E+02  0.47787265300E+02  0.19999973810E+02 0.  0.
        -12    1    1    2    0    0 -0.84212693387E+01  0.29523755615E+02  0.30676601011E+02  0.43400734700E+02  0.00000000000E+00 0.  1.
         11    1    3    3    0    0 -0.34235804367E+01 -0.62924328356E+01 -0.12606179408E+02  0.14499357693E+02  0.51100000000E-03 0. -1.
        -11    1    3    3    0    0  0.81681125269E+01 -0.18682153470E+02 -0.18351320052E+02  0.27431949774E+02  0.51100000000E-03 0.  1.
        -12    1    3    3    0    0  0.36767372485E+01 -0.45491693096E+01  0.28089844792E+00  0.58559578328E+01  0.00000000000E+00 0.  1.
</event>
<event>
 7    1  0.2110035E-010  0.4778727E+02  0.7816164E-02  0.1312668E+00
        -11   -1    0    0    0    0  0.00000000000E+00  0.00000000000E+00  0.45593999997E+02  0.45594000000E+02  0.51100000000E-03 0.  1.
         11   -1    0    0    0    0 -0.00000000000E+00 -0.00000000000E+00 -0.45593999997E+02  0.45594000000E+02  0.51100000000E-03 0. -1.
    9900012    2    1    2    0    0  0.71308327763E+01 -0.15263238146E+02 -0.39997606971E+02  0.47787265234E+02  0.19999973509E+02 0.  0.
        -12    1    1    2    0    0 -0.71308327763E+01  0.15263238146E+02  0.39997606971E+02  0.43400734766E+02  0.00000000000E+00 0.  1.
         11    1    3    3    0    0  0.40886037563E+00 -0.62511543593E+01 -0.19715307145E+02  0.20686648683E+02  0.51100000000E-03 0. -1.
        -11    1    3    3    0    0  0.31348949170E+01  0.25323192542E+01 -0.70416525103E+00  0.40909724892E+01  0.51100000000E-03 0.  1.
        -12    1    3    3    0    0  0.35870774837E+01 -0.11544403040E+02 -0.19578134575E+02  0.23009644062E+02  0.00000000000E+00 0.  1.
</event>
<event>
 7    1  0.2110035E-010  0.4778727E+02  0.7816164E-02  0.1312668E+00
        -11   -1    0    0    0    0  0.00000000000E+00  0.00000000000E+00  0.45593999997E+02  0.45594000000E+02  0.51100000000E-03 0. -1.
         11   -1    0    0    0    0 -0.00000000000E+00 -0.00000000000E+00 -0.45593999997E+02  0.45594000000E+02  0.51100000000E-03 0.  1.
    9900012    2    1    2    0    0  0.30676729018E+01 -0.35511903260E+02  0.24761207116E+02  0.47787271112E+02  0.20000000307E+02 0.  0.
        -12    1    1    2    0    0 -0.30676729018E+01  0.35511903260E+02 -0.24761207116E+02  0.43400728888E+02  0.00000000000E+00 0.  1.
         11    1    3    3    0    0  0.29628501730E+01 -0.20653443944E+02  0.16889713111E+02  0.26844098740E+02  0.51100000000E-03 0. -1.
        -11    1    3    3    0    0  0.56093260363E+01 -0.47526427100E+01  0.70344998457E+00  0.73855936425E+01  0.51100000000E-03 0.  1.
        -12    1    3    3    0    0 -0.55045033075E+01 -0.10105816605E+02  0.71680440211E+01  0.13557578730E+02  0.00000000000E+00 0.  1.
</event>
<event>
 7    1  0.2110035E-010  0.4778727E+02  0.7816164E-02  0.1312668E+00
        -11   -1    0    0    0    0  0.00000000000E+00  0.00000000000E+00  0.45593999997E+02  0.45594000000E+02  0.51100000000E-03 0.  1.
         11   -1    0    0    0    0 -0.00000000000E+00 -0.00000000000E+00 -0.45593999997E+02  0.45594000000E+02  0.51100000000E-03 0. -1.
    9900012    2    1    2    0    0 -0.13226028535E+02  0.24762125106E+02 -0.33098829279E+02  0.47787272239E+02  0.20000005445E+02 0.  0.
        -12    1    1    2    0    0  0.13226028535E+02 -0.24762125106E+02  0.33098829279E+02  0.43400727761E+02  0.00000000000E+00 0.  1.
         11    1    3    3    0    0 -0.15032151029E+02  0.20616409143E+02 -0.22878057548E+02  0.34269628068E+02  0.51100000000E-03 0. -1.
        -11    1    3    3    0    0  0.16973227740E+01  0.35246510103E+01 -0.69775967539E+00  0.39737813439E+01  0.51100000000E-03 0.  1.
         12    1    3    3    0    0  0.10879971976E+00  0.62106495343E+00 -0.95230120548E+01  0.95438628265E+01  0.00000000000E+00 0. -1.
</event>
<event>
 7    1  0.3199030E-010  0.4778727E+02  0.7816164E-02  0.1312668E+00
        -11   -1    0    0    0    0  0.00000000000E+00  0.00000000000E+00  0.45593999997E+02  0.45594000000E+02  0.51100000000E-03 0. -1.
         11   -1    0    0    0    0 -0.00000000000E+00 -0.00000000000E+00 -0.45593999997E+02  0.45594000000E+02  0.51100000000E-03 0.  1.
    9900012    2    1    2    0    0 -0.33034178227E+02 -0.13497965628E+01  0.28116620383E+02  0.47787271623E+02  0.20000002638E+02 0.  0.
        -12    1    1    2    0    0  0.33034178227E+02  0.13497965628E+01 -0.28116620383E+02  0.43400728377E+02  0.00000000000E+00 0.  1.
         11    1    3    3    0    0 -0.13189625446E+02  0.53763518203E+01  0.91808612034E+01  0.16945783871E+02  0.51100000000E-03 0. -1.
        -11    1    3    3    0    0 -0.24118198714E+01 -0.35610873295E+01 -0.73991821872E+00  0.43641376344E+01  0.51100000000E-03 0.  1.
        -12    1    3    3    0    0 -0.17432732909E+02 -0.31650610535E+01  0.19675677398E+02  0.26477350117E+02  0.00000000000E+00 0.  1.
</event>
<event>
 7    1  0.2110035E-010  0.4778728E+02  0.7816164E-02  0.1312668E+00
        -11   -1    0    0    0    0  0.00000000000E+00  0.00000000000E+00  0.45593999997E+02  0.45594000000E+02  0.51100000000E-03 0.  1.
         11   -1    0    0    0    0 -0.00000000000E+00 -0.00000000000E+00 -0.45593999997E+02  0.45594000000E+02  0.51100000000E-03 0. -1.
    9900012    2    1    2    0    0 -0.59299476513E+01  0.53016413373E+01 -0.42665574311E+02  0.47787275221E+02  0.20000019043E+02 0.  0.
        -12    1    1    2    0    0  0.59299476513E+01 -0.53016413373E+01  0.42665574311E+02  0.43400724779E+02  0.00000000000E+00 0.  1.
         11    1    3    3    0    0  0.18891216845E+01 -0.17621599472E+01 -0.62233911492E+01  0.67382925193E+01  0.51100000000E-03 0. -1.
        -11    1    3    3    0    0 -0.32491970821E-01 -0.35439761089E+01 -0.18282694812E+02  0.18623043582E+02  0.51100000000E-03 0.  1.
         12    1    3    3    0    0 -0.77865773650E+01  0.10607777393E+02 -0.18159488350E+02  0.22425939120E+02  0.00000000000E+00 0. -1.
</event>
<event>
 7    1  0.2110035E-010  0.4778727E+02  0.7816164E-02  0.1312668E+00
        -11   -1    0    0    0    0  0.00000000000E+00  0.00000000000E+00  0.45593999997E+02  0.45594000000E+02  0.51100000000E-03 0.  1.
         11   -1    0    0    0    0 -0.00000000000E+00 -0.00000000000E+00 -0.45593999997E+02  0.45594000000E+02  0.51100000000E-03 0. -1.
    9900012    2    1    2    0    0  0.28714982241E+02 -0.31941725558E+02  0.62288856482E+01  0.47787273587E+02  0.20000011594E+02 0.  0.
        -12    1    1    2    0    0 -0.28714982241E+02  0.31941725558E+02 -0.62288856482E+01  0.43400726413E+02  0.00000000000E+00 0.  1.
         11    1    3    3    0    0  0.40071995218E+01 -0.10043926132E+02 -0.26115136172E+01  0.11124661963E+02  0.51100000000E-03 0. -1.
        -11    1    3    3    0    0  0.83898580961E+01 -0.46314853564E+01  0.86423548113E+01  0.12904676378E+02  0.51100000000E-03 0.  1.
         12    1    3    3    0    0  0.16317924623E+02 -0.17266314070E+02  0.19804445410E+00  0.23757935247E+02  0.00000000000E+00 0. -1.
</event>
<event>
 7    1  0.2110035E-010  0.4778730E+02  0.7816164E-02  0.1312668E+00
        -11   -1    0    0    0    0  0.00000000000E+00  0.00000000000E+00  0.45593999997E+02  0.45594000000E+02  0.51100000000E-03 0. -1.
         11   -1    0    0    0    0 -0.00000000000E+00 -0.00000000000E+00 -0.45593999997E+02  0.45594000000E+02  0.51100000000E-03 0.  1.
    9900012    2    1    2    0    0  0.34091057410E+02 -0.50679744997E+01  0.26376816037E+02  0.47787297412E+02  0.20000120222E+02 0.  0.
        -12    1    1    2    0    0 -0.34091057410E+02  0.50679744997E+01 -0.26376816037E+02  0.43400702588E+02  0.00000000000E+00 0.  1.
         11    1    3    3    0    0  0.13020633022E+02 -0.73187390320E+01  0.19151390295E+02  0.24287374823E+02  0.51100000000E-03 0. -1.
        -11    1    3    3    0    0  0.99663984439E+00  0.85494814180E+00 -0.11101523435E+01  0.17194957957E+01  0.51100000000E-03 0.  1.
         12    1    3    3    0    0  0.20073784544E+02  0.13958163905E+01  0.83355780857E+01  0.21780426794E+02  0.00000000000E+00 0. -1.
</event>
<event>
 7    1  0.2110035E-010  0.4778727E+02  0.7816164E-02  0.1312668E+00
        -11   -1    0    0    0    0  0.00000000000E+00  0.00000000000E+00  0.45593999997E+02  0.45594000000E+02  0.51100000000E-03 0. -1.
         11   -1    0    0    0    0 -0.00000000000E+00 -0.00000000000E+00 -0.45593999997E+02  0.45594000000E+02  0.51100000000E-03 0.  1.
    9900012    2    1    2    0    0  0.37606838187E+02 -0.20624753533E+02  0.66308761399E+01  0.47787271261E+02  0.20000000986E+02 0.  0.
        -12    1    1    2    0    0 -0.37606838187E+02  0.20624753533E+02 -0.66308761399E+01  0.43400728739E+02  0.00000000000E+00 0.  1.
         11    1    3    3    0    0  0.10731879534E+02 -0.22242380805E+01  0.15575271243E+01  0.11070066141E+02  0.51100000000E-03 0. -1.
        -11    1    3    3    0    0  0.33307504233E+01  0.62974468039E+00 -0.38755423080E+01  0.51488159014E+01  0.51100000000E-03 0.  1.
         12    1    3    3    0    0  0.23544208230E+02 -0.19030260133E+02  0.89488913236E+01  0.31568389218E+02  0.00000000000E+00 0. -1.
</event>
<event>
 7    1  0.2110035E-010  0.4778727E+02  0.7816164E-02  0.1312668E+00
        -11   -1    0    0    0    0  0.00000000000E+00  0.00000000000E+00  0.45593999997E+02  0.45594000000E+02  0.51100000000E-03 0.  1.
         11   -1    0    0    0    0 -0.00000000000E+00 -0.00000000000E+00 -0.45593999997E+02  0.45594000000E+02  0.51100000000E-03 0. -1.
    9900012    2    1    2    0    0  0.98956230977E+01 -0.26339207139E+02 -0.33044607783E+02  0.47787270827E+02  0.19999999007E+02 0.  0.
        -12    1    1    2    0    0 -0.98956230977E+01  0.26339207139E+02  0.33044607783E+02  0.43400729173E+02  0.00000000000E+00 0.  1.
         11    1    3    3    0    0  0.10580288021E+02 -0.57795079854E+01 -0.89378260018E+01  0.15007662745E+02  0.51100000000E-03 0. -1.
        -11    1    3    3    0    0  0.36157921407E+01 -0.13083526682E+02 -0.15285660604E+02  0.20442701475E+02  0.51100000000E-03 0.  1.
        -12    1    3    3    0    0 -0.43004570642E+01 -0.74761724717E+01 -0.88211211778E+01  0.12336906607E+02  0.00000000000E+00 0.  1.
</event>
<event>
 7    1  0.2110035E-010  0.4778727E+02  0.7816164E-02  0.1312668E+00
        -11   -1    0    0    0    0  0.00000000000E+00  0.00000000000E+00  0.45593999997E+02  0.45594000000E+02  0.51100000000E-03 0. -1.
         11   -1    0    0    0    0 -0.00000000000E+00 -0.00000000000E+00 -0.45593999997E+02  0.45594000000E+02  0.51100000000E-03 0.  1.
    9900012    2    1    2    0    0  0.35638076293E+01  0.40608626237E+02 -0.14895032355E+02  0.47787271452E+02  0.20000001857E+02 0.  0.
        -12    1    1    2    0    0 -0.35638076293E+01 -0.40608626237E+02  0.14895032355E+02  0.43400728548E+02  0.00000000000E+00 0.  1.
         11    1    3    3    0    0 -0.27763113505E+01  0.42419264208E+01 -0.41430673258E+01  0.65472781827E+01  0.51100000000E-03 0. -1.
        -11    1    3    3    0    0 -0.36795753084E+01  0.33182108966E+01  0.34525925870E+00  0.49667899313E+01  0.51100000000E-03 0.  1.
         12    1    3    3    0    0  0.10019694288E+02  0.33048488919E+02 -0.11097224288E+02  0.36273203338E+02  0.00000000000E+00 0. -1.
</event>
<event>
 7    1  0.2110035E-010  0.4778727E+02  0.7816164E-02  0.1312668E+00
        -11   -1    0    0    0    0  0.00000000000E+00  0.00000000000E+00  0.45593999997E+02  0.45594000000E+02  0.51100000000E-03 0.  1.
         11   -1    0    0    0    0 -0.00000000000E+00 -0.00000000000E+00 -0.45593999997E+02  0.45594000000E+02  0.51100000000E-03 0. -1.
    9900012    2    1    2    0    0 -0.26759633011E+02 -0.33167887515E+02  0.82119647894E+01  0.47787273200E+02  0.20000009827E+02 0.  0.
        -12    1    1    2    0    0  0.26759633011E+02  0.33167887515E+02 -0.82119647894E+01  0.43400726800E+02  0.00000000000E+00 0.  1.
         11    1    3    3    0    0 -0.14616778887E+01 -0.27333147596E+00  0.22396974453E+01  0.26883930616E+01  0.51100000000E-03 0. -1.
        -11    1    3    3    0    0  0.17736358367E+01 -0.59352800163E+01  0.26867938537E+01  0.67521992289E+01  0.51100000000E-03 0.  1.
         12    1    3    3    0    0 -0.27071590959E+02 -0.26959276023E+02  0.32854734904E+01  0.38346680909E+02  0.00000000000E+00 0. -1.
</event>
<event>
 7    1  0.2110035E-010  0.4778728E+02  0.7816164E-02  0.1312668E+00
        -11   -1    0    0    0    0  0.00000000000E+00  0.00000000000E+00  0.45593999997E+02  0.45594000000E+02  0.51100000000E-03 0.  1.
         11   -1    0    0    0    0 -0.00000000000E+00 -0.00000000000E+00 -0.45593999997E+02  0.45594000000E+02  0.51100000000E-03 0. -1.
    9900012    2    1    2    0    0  0.51084830866E+01 -0.39778187704E+02  0.16589807501E+02  0.47787279621E+02  0.20000039105E+02 0.  0.
        -12    1    1    2    0    0 -0.51084830866E+01  0.39778187704E+02 -0.16589807501E+02  0.43400720379E+02  0.00000000000E+00 0.  1.
         11    1    3    3    0    0  0.46239234086E+01 -0.13345452213E+02 -0.11680820395E+01  0.14172020970E+02  0.51100000000E-03 0. -1.
        -11    1    3    3    0    0 -0.12713449429E+01 -0.21731555584E+02  0.90711005984E+01  0.23583080638E+02  0.51100000000E-03 0.  1.
        -12    1    3    3    0    0  0.17559046209E+01 -0.47011799069E+01  0.86867889425E+01  0.10032178013E+02  0.00000000000E+00 0.  1.
</event>
<event>
 7    1  0.2110035E-010  0.4778727E+02  0.7816164E-02  0.1312668E+00
        -11   -1    0    0    0    0  0.00000000000E+00  0.00000000000E+00  0.45593999997E+02  0.45594000000E+02  0.51100000000E-03 0.  1.
         11   -1    0    0    0    0 -0.00000000000E+00 -0.00000000000E+00 -0.45593999997E+02  0.45594000000E+02  0.51100000000E-03 0. -1.
    9900012    2    1    2    0    0 -0.25232412008E+02  0.25087063331E+01 -0.35222935797E+02  0.47787269253E+02  0.19999991834E+02 0.  0.
        -12    1    1    2    0    0  0.25232412008E+02 -0.25087063331E+01  0.35222935797E+02  0.43400730747E+02  0.00000000000E+00 0.  1.
         11    1    3    3    0    0 -0.17455823454E+00  0.30624315757E+01 -0.25832391167E+01  0.40102471655E+01  0.51100000000E-03 0.  1.
        -11    1    3    3    0    0 -0.23393674342E+00 -0.40845746834E+01 -0.42246653962E+01  0.58810096680E+01  0.51100000000E-03 0. -1.
         12    1    3    3    0    0 -0.24823917030E+02  0.35308494408E+01 -0.28415031284E+02  0.37896012420E+02  0.00000000000E+00 0. -1.
</event>
<event>
 7    1  0.2110035E-010  0.4778727E+02  0.7816164E-02  0.1312668E+00
        -11   -1    0    0    0    0  0.00000000000E+00  0.00000000000E+00  0.45593999997E+02  0.45594000000E+02  0.51100000000E-03 0. -1.
         11   -1    0    0    0    0 -0.00000000000E+00 -0.00000000000E+00 -0.45593999997E+02  0.45594000000E+02  0.51100000000E-03 0.  1.
    9900012    2    1    2    0    0 -0.21545892930E+02 -0.37589402143E+02 -0.25366278764E+01  0.47787272626E+02  0.20000007212E+02 0.  0.
        -12    1    1    2    0    0  0.21545892930E+02  0.37589402143E+02  0.25366278764E+01  0.43400727374E+02  0.00000000000E+00 0.  1.
         11    1    3    3    0    0 -0.12148714720E+01 -0.73500187936E+01 -0.57427279117E+01  0.94062539349E+01  0.51100000000E-03 0. -1.
        -11    1    3    3    0    0 -0.12570780593E+02 -0.93537414813E+01 -0.10235020101E+01  0.15702374376E+02  0.51100000000E-03 0.  1.
         12    1    3    3    0    0 -0.77602408645E+01 -0.20885641868E+02  0.42296020454E+01  0.22678644315E+02  0.00000000000E+00 0. -1.
</event>
<event>
 7    1  0.2110035E-010  0.4778727E+02  0.7816164E-02  0.1312668E+00
        -11   -1    0    0    0    0  0.00000000000E+00  0.00000000000E+00  0.45593999997E+02  0.45594000000E+02  0.51100000000E-03 0. -1.
         11   -1    0    0    0    0 -0.00000000000E+00 -0.00000000000E+00 -0.45593999997E+02  0.45594000000E+02  0.51100000000E-03 0.  1.
    9900012    2    1    2    0    0 -0.29029968394E+02 -0.21362176469E+02  0.24177294886E+02  0.47787271476E+02  0.20000001967E+02 0.  0.
        -12    1    1    2    0    0  0.29029968394E+02  0.21362176469E+02 -0.24177294886E+02  0.43400728524E+02  0.00000000000E+00 0.  1.
         11    1    3    3    0    0  0.55432373833E+00  0.40911908652E+00 -0.13814487935E+00  0.70266457335E+00  0.51100000000E-03 0. -1.
        -11    1    3    3    0    0 -0.11024466731E+01  0.67240959960E+00  0.66026091765E+01  0.67277018019E+01  0.51100000000E-03 0.  1.
         12    1    3    3    0    0 -0.28481845459E+02 -0.22443705155E+02  0.17712830589E+02  0.40356905101E+02  0.00000000000E+00 0. -1.
</event>
<event>
 7    1  0.2110035E-010  0.4778727E+02  0.7816164E-02  0.1312668E+00
        -11   -1    0    0    0    0  0.00000000000E+00  0.00000000000E+00  0.45593999997E+02  0.45594000000E+02  0.51100000000E-03 0.  1.
         11   -1    0    0    0    0 -0.00000000000E+00 -0.00000000000E+00 -0.45593999997E+02  0.45594000000E+02  0.51100000000E-03 0. -1.
    9900012    2    1    2    0    0 -0.36408196134E+01  0.21270552511E+02 -0.37655427731E+02  0.47787271790E+02  0.20000003398E+02 0.  0.
        -12    1    1    2    0    0  0.36408196134E+01 -0.21270552511E+02  0.37655427731E+02  0.43400728210E+02  0.00000000000E+00 0.  1.
         11    1    3    3    0    0 -0.48135838787E+01  0.56864420021E+01 -0.20579553523E+02  0.21886622304E+02  0.51100000000E-03 0. -1.
        -11    1    3    3    0    0 -0.36170060725E+01  0.57408680570E+01 -0.16460246268E+01  0.69820982741E+01  0.51100000000E-03 0.  1.
        -12    1    3    3    0    0  0.47897703378E+01  0.98432424516E+01 -0.15429849581E+02  0.18918551212E+02  0.00000000000E+00 0.  1.
</event>
<event>
 7    1  0.2110035E-010  0.4778728E+02  0.7816164E-02  0.1312668E+00
        -11   -1    0    0    0    0  0.00000000000E+00  0.00000000000E+00  0.45593999997E+02  0.45594000000E+02  0.51100000000E-03 0. -1.
         11   -1    0    0    0    0 -0.00000000000E+00 -0.00000000000E+00 -0.45593999997E+02  0.45594000000E+02  0.51100000000E-03 0.  1.
    9900012    2    1    2    0    0 -0.90035354082E+01  0.42324029461E+02 -0.33519668411E+01  0.47787276488E+02  0.20000024820E+02 0.  0.
        -12    1    1    2    0    0  0.90035354082E+01 -0.42324029461E+02  0.33519668411E+01  0.43400723512E+02  0.00000000000E+00 0.  1.
         11    1    3    3    0    0 -0.17364118146E+01  0.20686526378E+02 -0.43718293972E+01  0.21214626844E+02  0.51100000000E-03 0. -1.
        -11    1    3    3    0    0 -0.11022482579E+02  0.18862234239E+02  0.30618516621E+00  0.21848861580E+02  0.51100000000E-03 0.  1.
        -12    1    3    3    0    0  0.37553589856E+01  0.27752688431E+01  0.71367738987E+00  0.47237880646E+01  0.00000000000E+00 0.  1.
</event>
<event>
 7    1  0.2110035E-010  0.4778727E+02  0.7816164E-02  0.1312668E+00
        -11   -1    0    0    0    0  0.00000000000E+00  0.00000000000E+00  0.45593999997E+02  0.45594000000E+02  0.51100000000E-03 0.  1.
         11   -1    0    0    0    0 -0.00000000000E+00 -0.00000000000E+00 -0.45593999997E+02  0.45594000000E+02  0.51100000000E-03 0. -1.
    9900012    2    1    2    0    0  0.24693401058E+02  0.21971675109E+02 -0.28126588214E+02  0.47787268123E+02  0.19999986680E+02 0.  0.
        -12    1    1    2    0    0 -0.24693401058E+02 -0.21971675109E+02  0.28126588214E+02  0.43400731877E+02  0.00000000000E+00 0.  1.
         11    1    3    3    0    0  0.92978893851E+01  0.10297520679E+02 -0.94638327031E+01  0.16794457683E+02  0.51100000000E-03 0. -1.
        -11    1    3    3    0    0 -0.54401395526E+00  0.83438014838E+00 -0.96718114737E+01  0.97229665668E+01  0.51100000000E-03 0.  1.
         12    1    3    3    0    0  0.15939525628E+02  0.10839774281E+02 -0.89909440371E+01  0.21269843873E+02  0.00000000000E+00 0. -1.
</event>
<event>
 7    1  0.2110035E-010  0.4778727E+02  0.7816164E-02  0.1312668E+00
        -11   -1    0    0    0    0  0.00000000000E+00  0.00000000000E+00  0.45593999997E+02  0.45594000000E+02  0.51100000000E-03 0.  1.
         11   -1    0    0    0    0 -0.00000000000E+00 -0.00000000000E+00 -0.45593999997E+02  0.45594000000E+02  0.51100000000E-03 0. -1.
    9900012    2    1    2    0    0  0.25892550054E+02 -0.81884653621E+01 -0.33854813999E+02  0.47787267930E+02  0.19999985801E+02 0.  0.
        -12    1    1    2    0    0 -0.25892550054E+02  0.81884653621E+01  0.33854813999E+02  0.43400732070E+02  0.00000000000E+00 0.  1.
         11    1    3    3    0    0  0.17061493029E+02 -0.66272543758E+01 -0.15394832375E+02  0.23916854079E+02  0.51100000000E-03 0. -1.
        -11    1    3    3    0    0  0.89564683169E+01  0.38061666810E+01 -0.11129688713E+02  0.14784288980E+02  0.51100000000E-03 0.  1.
        -12    1    3    3    0    0 -0.12541129196E+00 -0.53673776673E+01 -0.73302929113E+01  0.90861248716E+01  0.00000000000E+00 0.  1.
</event>
<event>
 7    1  0.2110035E-010  0.4778727E+02  0.7816164E-02  0.1312668E+00
        -11   -1    0    0    0    0  0.00000000000E+00  0.00000000000E+00  0.45593999997E+02  0.45594000000E+02  0.51100000000E-03 0.  1.
         11   -1    0    0    0    0 -0.00000000000E+00 -0.00000000000E+00 -0.45593999997E+02  0.45594000000E+02  0.51100000000E-03 0. -1.
    9900012    2    1    2    0    0 -0.31956887181E+02 -0.27826694608E+02 -0.93837878044E+01  0.47787273685E+02  0.20000012040E+02 0.  0.
        -12    1    1    2    0    0  0.31956887181E+02  0.27826694608E+02  0.93837878044E+01  0.43400726315E+02  0.00000000000E+00 0.  1.
         11    1    3    3    0    0 -0.15266844382E+02 -0.75571728947E+01 -0.76680961409E+01  0.18681196381E+02  0.51100000000E-03 0. -1.
        -11    1    3    3    0    0  0.19502995474E+01 -0.10794971135E+01  0.41882816801E+00  0.22681269008E+01  0.51100000000E-03 0.  1.
         12    1    3    3    0    0 -0.18640342346E+02 -0.19190024600E+02 -0.21345198316E+01  0.26837950403E+02  0.00000000000E+00 0. -1.
</event>
<event>
 7    1  0.2110035E-010  0.4778727E+02  0.7816164E-02  0.1312668E+00
        -11   -1    0    0    0    0  0.00000000000E+00  0.00000000000E+00  0.45593999997E+02  0.45594000000E+02  0.51100000000E-03 0. -1.
         11   -1    0    0    0    0 -0.00000000000E+00 -0.00000000000E+00 -0.45593999997E+02  0.45594000000E+02  0.51100000000E-03 0.  1.
    9900012    2    1    2    0    0  0.20556190938E+02  0.54968792805E+01  0.37826584312E+02  0.47787272490E+02  0.20000006591E+02 0.  0.
        -12    1    1    2    0    0 -0.20556190938E+02 -0.54968792805E+01 -0.37826584312E+02  0.43400727510E+02  0.00000000000E+00 0.  1.
         11    1    3    3    0    0  0.12443350817E+02  0.20833949437E+01  0.35350957970E+02  0.37534887022E+02  0.51100000000E-03 0. -1.
        -11    1    3    3    0    0  0.17485462221E+01 -0.10655718466E+01 -0.11291006519E+00  0.20507574686E+01  0.51100000000E-03 0.  1.
        -12    1    3    3    0    0  0.63642938981E+01  0.44790561834E+01  0.25885364066E+01  0.82016279996E+01  0.00000000000E+00 0.  1.
</event>
<event>
 7    1  0.2110035E-010  0.4778727E+02  0.7816164E-02  0.1312668E+00
        -11   -1    0    0    0    0  0.00000000000E+00  0.00000000000E+00  0.45593999997E+02  0.45594000000E+02  0.51100000000E-03 0.  1.
         11   -1    0    0    0    0 -0.00000000000E+00 -0.00000000000E+00 -0.45593999997E+02  0.45594000000E+02  0.51100000000E-03 0. -1.
    9900012    2    1    2    0    0 -0.47047051119E+01  0.65901564312E+01 -0.42638700077E+02  0.47787272400E+02  0.20000006179E+02 0.  0.
        -12    1    1    2    0    0  0.47047051119E+01 -0.65901564312E+01  0.42638700077E+02  0.43400727600E+02  0.00000000000E+00 0.  1.
         11    1    3    3    0    0 -0.35177936751E+01 -0.43506597608E+00 -0.25420836167E+02  0.25666769692E+02  0.51100000000E-03 0. -1.
        -11    1    3    3    0    0 -0.48174810812E+01  0.57606928161E+01 -0.16609403430E+02  0.18228164697E+02  0.51100000000E-03 0.  1.
        -12    1    3    3    0    0  0.36305696444E+01  0.12645295912E+01 -0.60846048107E+00  0.38923380104E+01  0.00000000000E+00 0.  1.
</event>
<event>
 7    1  0.2110035E-010  0.4778726E+02  0.7816164E-02  0.1312668E+00
        -11   -1    0    0    0    0  0.00000000000E+00  0.00000000000E+00  0.45593999997E+02  0.45594000000E+02  0.51100000000E-03 0. -1.
         11   -1    0    0    0    0 -0.00000000000E+00 -0.00000000000E+00 -0.45593999997E+02  0.45594000000E+02  0.51100000000E-03 0.  1.
    9900012    2    1    2    0    0  0.10703387251E+02  0.41707194223E+02 -0.54379916640E+01  0.47787259201E+02  0.19999946000E+02 0.  0.
        -12    1    1    2    0    0 -0.10703387251E+02 -0.41707194223E+02  0.54379916640E+01  0.43400740799E+02  0.00000000000E+00 0.  1.
         11    1    3    3    0    0  0.77921329141E+01  0.12099338058E+02 -0.99064551063E+01  0.17471381451E+02  0.51100000000E-03 0. -1.
        -11    1    3    3    0    0 -0.82118382152E+00  0.63136634618E+01  0.14742951951E+01  0.65353068605E+01  0.51100000000E-03 0.  1.
         12    1    3    3    0    0  0.37324381588E+01  0.23294192703E+02  0.29941682472E+01  0.23780570889E+02  0.00000000000E+00 0. -1.
</event>
<event>
 7    1  0.2110035E-010  0.4778728E+02  0.7816164E-02  0.1312668E+00
        -11   -1    0    0    0    0  0.00000000000E+00  0.00000000000E+00  0.45593999997E+02  0.45594000000E+02  0.51100000000E-03 0.  1.
         11   -1    0    0    0    0 -0.00000000000E+00 -0.00000000000E+00 -0.45593999997E+02  0.45594000000E+02  0.51100000000E-03 0. -1.
    9900012    2    1    2    0    0 -0.89812698872E+01 -0.41674847787E+02  0.81342866024E+01  0.47787276902E+02  0.20000026707E+02 0.  0.
        -12    1    1    2    0    0  0.89812698872E+01  0.41674847787E+02 -0.81342866024E+01  0.43400723098E+02  0.00000000000E+00 0.  1.
         11    1    3    3    0    0 -0.58415619244E+01 -0.16845186089E+01 -0.17373844373E+01  0.63229703150E+01  0.51100000000E-03 0. -1.
        -11    1    3    3    0    0 -0.10514722755E+00 -0.15835125577E+02  0.25299123121E+01  0.16036293666E+02  0.51100000000E-03 0.  1.
        -12    1    3    3    0    0 -0.30345607353E+01 -0.24155203601E+02  0.73417587276E+01  0.25428012921E+02  0.00000000000E+00 0.  1.
</event>
<event>
 7    1  0.2110035E-010  0.4778727E+02  0.7816164E-02  0.1312668E+00
        -11   -1    0    0    0    0  0.00000000000E+00  0.00000000000E+00  0.45593999997E+02  0.45594000000E+02  0.51100000000E-03 0. -1.
         11   -1    0    0    0    0 -0.00000000000E+00 -0.00000000000E+00 -0.45593999997E+02  0.45594000000E+02  0.51100000000E-03 0.  1.
    9900012    2    1    2    0    0 -0.42561228942E+02 -0.26212485296E+01  0.80804904446E+01  0.47787268684E+02  0.19999989238E+02 0.  0.
        -12    1    1    2    0    0  0.42561228942E+02  0.26212485296E+01 -0.80804904446E+01  0.43400731316E+02  0.00000000000E+00 0.  1.
         11    1    3    3    0    0 -0.18491983369E+02 -0.33966155728E+01  0.99856939023E+01  0.21288600922E+02  0.51100000000E-03 0. -1.
        -11    1    3    3    0    0 -0.79106282153E+01 -0.46443665554E+01 -0.22758340301E+01  0.94513279625E+01  0.51100000000E-03 0.  1.
        -12    1    3    3    0    0 -0.16158617358E+02  0.54197335985E+01  0.37063057231E+00  0.17047339799E+02  0.00000000000E+00 0.  1.
</event>
<event>
 7    1  0.2110035E-010  0.4778727E+02  0.7816164E-02  0.1312668E+00
        -11   -1    0    0    0    0  0.00000000000E+00  0.00000000000E+00  0.45593999997E+02  0.45594000000E+02  0.51100000000E-03 0. -1.
         11   -1    0    0    0    0 -0.00000000000E+00 -0.00000000000E+00 -0.45593999997E+02  0.45594000000E+02  0.51100000000E-03 0.  1.
    9900012    2    1    2    0    0  0.11702286503E+02 -0.23250190315E+02  0.34729074100E+02  0.47787269051E+02  0.19999990910E+02 0.  0.
        -12    1    1    2    0    0 -0.11702286503E+02  0.23250190315E+02 -0.34729074100E+02  0.43400730949E+02  0.00000000000E+00 0.  1.
         11    1    3    3    0    0  0.10642198930E+02 -0.98962743861E+01  0.29711629134E+02  0.33075270986E+02  0.51100000000E-03 0. -1.
        -11    1    3    3    0    0 -0.32316184422E+00 -0.57324997299E+01  0.37637789163E+01  0.68652763034E+01  0.51100000000E-03 0.  1.
         12    1    3    3    0    0  0.13832494176E+01 -0.76214161990E+01  0.12536660500E+01  0.78467217610E+01  0.00000000000E+00 0. -1.
</event>
<event>
 7    1  0.2110035E-010  0.4778727E+02  0.7816164E-02  0.1312668E+00
        -11   -1    0    0    0    0  0.00000000000E+00  0.00000000000E+00  0.45593999997E+02  0.45594000000E+02  0.51100000000E-03 0. -1.
         11   -1    0    0    0    0 -0.00000000000E+00 -0.00000000000E+00 -0.45593999997E+02  0.45594000000E+02  0.51100000000E-03 0.  1.
    9900012    2    1    2    0    0  0.12776926587E+00  0.41528075523E+02  0.12610544912E+02  0.47787271612E+02  0.20000002588E+02 0.  0.
        -12    1    1    2    0    0 -0.12776926587E+00 -0.41528075523E+02 -0.12610544912E+02  0.43400728388E+02  0.00000000000E+00 0.  1.
         11    1    3    3    0    0 -0.27121805065E+01  0.22593031097E+02  0.90653922002E+01  0.24494536396E+02  0.51100000000E-03 0. -1.
        -11    1    3    3    0    0  0.43386166921E+01  0.16138658048E+02 -0.20739034905E+01  0.16839862065E+02  0.51100000000E-03 0.  1.
         12    1    3    3    0    0 -0.14986669197E+01  0.27963863777E+01  0.56190562020E+01  0.64528731517E+01  0.00000000000E+00 0. -1.
</event>
<event>
 7    1  0.2110035E-010  0.4778728E+02  0.7816164E-02  0.1312668E+00
        -11   -1    0    0    0    0  0.00000000000E+00  0.00000000000E+00  0.45593999997E+02  0.45594000000E+02  0.51100000000E-03 0. -1.
         11   -1    0    0    0    0 -0.00000000000E+00 -0.00000000000E+00 -0.45593999997E+02  0.45594000000E+02  0.51100000000E-03 0.  1.
    9900012    2    1    2    0    0 -0.75923070689E+01  0.21416427629E+02  0.36977238313E+02  0.47787278206E+02  0.20000032652E+02 0.  0.
        -12    1    1    2    0    0  0.75923070689E+01 -0.21416427629E+02 -0.36977238313E+02  0.43400721794E+02  0.00000000000E+00 0.  1.
         11    1    3    3    0    0 -0.22593647120E+01  0.91992451584E+01  0.23724904092E+01  0.97652215227E+01  0.51100000000E-03 0. -1.
        -11    1    3    3    0    0 -0.12026909070E+01  0.11470029433E+02  0.24422509726E+02  0.27008647174E+02  0.51100000000E-03 0.  1.
        -12    1    3    3    0    0 -0.41302514499E+01  0.74715303708E+00  0.10182238178E+02  0.11013409509E+02  0.00000000000E+00 0.  1.
</event>
<event>
 7    1  0.2110035E-010  0.4778727E+02  0.7816164E-02  0.1312668E+00
        -11   -1    0    0    0    0  0.00000000000E+00  0.00000000000E+00  0.45593999997E+02  0.45594000000E+02  0.51100000000E-03 0.  1.
         11   -1    0    0    0    0 -0.00000000000E+00 -0.00000000000E+00 -0.45593999997E+02  0.45594000000E+02  0.51100000000E-03 0. -1.
    9900012    2    1    2    0    0 -0.32424637384E+02  0.70273278672E+00 -0.28840468573E+02  0.47787267629E+02  0.19999984427E+02 0.  0.
        -12    1    1    2    0    0  0.32424637384E+02 -0.70273278672E+00  0.28840468573E+02  0.43400732371E+02  0.00000000000E+00 0.  1.
         11    1    3    3    0    0 -0.18739304982E+02  0.70254483758E+01 -0.92943826135E+01  0.22065901852E+02  0.51100000000E-03 0. -1.
        -11    1    3    3    0    0  0.95462591768E-01 -0.18336020151E+01 -0.74301590842E+00  0.19807277343E+01  0.51100000000E-03 0.  1.
        -12    1    3    3    0    0 -0.13780794993E+02 -0.44891135739E+01 -0.18803070051E+02  0.23740638043E+02  0.00000000000E+00 0.  1.
</event>
<event>
 7    1  0.2110035E-010  0.4778727E+02  0.7816164E-02  0.1312668E+00
        -11   -1    0    0    0    0  0.00000000000E+00  0.00000000000E+00  0.45593999997E+02  0.45594000000E+02  0.51100000000E-03 0.  1.
         11   -1    0    0    0    0 -0.00000000000E+00 -0.00000000000E+00 -0.45593999997E+02  0.45594000000E+02  0.51100000000E-03 0. -1.
    9900012    2    1    2    0    0  0.72925680770E+01 -0.21503332116E+01 -0.42729590057E+02  0.47787270185E+02  0.19999996079E+02 0.  0.
        -12    1    1    2    0    0 -0.72925680770E+01  0.21503332116E+01  0.42729590057E+02  0.43400729815E+02  0.00000000000E+00 0.  1.
         11    1    3    3    0    0  0.57542327557E+00  0.29790915803E+01 -0.18945145361E+02  0.19186574254E+02  0.51100000000E-03 0. -1.
        -11    1    3    3    0    0 -0.33164095619E+01 -0.21907553189E+01 -0.20271372305E+01  0.44617560290E+01  0.51100000000E-03 0.  1.
        -12    1    3    3    0    0  0.10033554363E+02 -0.29386694731E+01 -0.21757307466E+02  0.24138939902E+02  0.00000000000E+00 0.  1.
</event>
<event>
 7    1  0.2110035E-010  0.4778728E+02  0.7816164E-02  0.1312668E+00
        -11   -1    0    0    0    0  0.00000000000E+00  0.00000000000E+00  0.45593999997E+02  0.45594000000E+02  0.51100000000E-03 0.  1.
         11   -1    0    0    0    0 -0.00000000000E+00 -0.00000000000E+00 -0.45593999997E+02  0.45594000000E+02  0.51100000000E-03 0. -1.
    9900012    2    1    2    0    0  0.27664201450E+02 -0.30306298043E+02 -0.14136588228E+02  0.47787275702E+02  0.20000021235E+02 0.  0.
        -12    1    1    2    0    0 -0.27664201450E+02  0.30306298043E+02  0.14136588228E+02  0.43400724298E+02  0.00000000000E+00 0.  1.
         11    1    3    3    0    0  0.15084683729E+02 -0.13839923413E+02 -0.99240866175E+01  0.22750355134E+02  0.51100000000E-03 0. -1.
        -11    1    3    3    0    0  0.12073029442E+02 -0.10876551324E+02  0.23308131635E+01  0.16416153595E+02  0.51100000000E-03 0.  1.
        -12    1    3    3    0    0  0.50648827927E+00 -0.55898233054E+01 -0.65433147736E+01  0.86207669722E+01  0.00000000000E+00 0.  1.
</event>
<event>
 7    1  0.2110035E-010  0.4778727E+02  0.7816164E-02  0.1312668E+00
        -11   -1    0    0    0    0  0.00000000000E+00  0.00000000000E+00  0.45593999997E+02  0.45594000000E+02  0.51100000000E-03 0.  1.
         11   -1    0    0    0    0 -0.00000000000E+00 -0.00000000000E+00 -0.45593999997E+02  0.45594000000E+02  0.51100000000E-03 0. -1.
    9900012    2    1    2    0    0  0.11968387570E+02 -0.14370828623E+02 -0.39164526812E+02  0.47787272164E+02  0.20000005103E+02 0.  0.
        -12    1    1    2    0    0 -0.11968387570E+02  0.14370828623E+02  0.39164526812E+02  0.43400727836E+02  0.00000000000E+00 0.  1.
         11    1    3    3    0    0 -0.13251353189E+01 -0.57106091560E+01 -0.19761131363E+01  0.61864419447E+01  0.51100000000E-03 0.  1.
        -11    1    3    3    0    0  0.20003144230E+01 -0.31575711857E+01 -0.19796909017E+02  0.20146690063E+02  0.51100000000E-03 0. -1.
         12    1    3    3    0    0  0.11293208466E+02 -0.55026482809E+01 -0.17391504658E+02  0.21454140156E+02  0.00000000000E+00 0. -1.
</event>
<event>
 7    1  0.2110035E-010  0.4778727E+02  0.7816164E-02  0.1312668E+00
        -11   -1    0    0    0    0  0.00000000000E+00  0.00000000000E+00  0.45593999997E+02  0.45594000000E+02  0.51100000000E-03 0.  1.
         11   -1    0    0    0    0 -0.00000000000E+00 -0.00000000000E+00 -0.45593999997E+02  0.45594000000E+02  0.51100000000E-03 0. -1.
    9900012    2    1    2    0    0 -0.21316437999E+02 -0.37282730747E+02  0.62634457179E+01  0.47787270822E+02  0.19999998985E+02 0.  0.
        -12    1    1    2    0    0  0.21316437999E+02  0.37282730747E+02 -0.62634457179E+01  0.43400729178E+02  0.00000000000E+00 0.  1.
         11    1    3    3    0    0 -0.12991603137E+02 -0.22842590147E+02  0.14478989675E+01  0.26318474280E+02  0.51100000000E-03 0. -1.
        -11    1    3    3    0    0 -0.68765364561E+00 -0.11398107676E+01  0.59430891907E+01  0.60903485542E+01  0.51100000000E-03 0.  1.
        -12    1    3    3    0    0 -0.76371812159E+01 -0.13300329832E+02 -0.11275424402E+01  0.15378447988E+02  0.00000000000E+00 0.  1.
</event>
<event>
 7    1  0.2110035E-010  0.4778727E+02  0.7816164E-02  0.1312668E+00
        -11   -1    0    0    0    0  0.00000000000E+00  0.00000000000E+00  0.45593999997E+02  0.45594000000E+02  0.51100000000E-03 0. -1.
         11   -1    0    0    0    0 -0.00000000000E+00 -0.00000000000E+00 -0.45593999997E+02  0.45594000000E+02  0.51100000000E-03 0.  1.
    9900012    2    1    2    0    0 -0.32683361380E+01  0.88166173788E+00  0.43268514858E+02  0.47787265830E+02  0.19999976223E+02 0.  0.
        -12    1    1    2    0    0  0.32683361380E+01 -0.88166173788E+00 -0.43268514858E+02  0.43400734170E+02  0.00000000000E+00 0.  1.
         11    1    3    3    0    0 -0.25191133746E+01 -0.86816988805E+01  0.24377419276E+02  0.25999546120E+02  0.51100000000E-03 0. -1.
        -11    1    3    3    0    0  0.21156604796E+01  0.28033523975E+01  0.62440956644E+01  0.71640445879E+01  0.51100000000E-03 0.  1.
        -12    1    3    3    0    0 -0.28648832430E+01  0.67600082209E+01  0.12646999918E+02  0.14623675122E+02  0.00000000000E+00 0.  1.
</event>
<event>
 7    1  0.2110035E-010  0.4778728E+02  0.7816164E-02  0.1312668E+00
        -11   -1    0    0    0    0  0.00000000000E+00  0.00000000000E+00  0.45593999997E+02  0.45594000000E+02  0.51100000000E-03 0.  1.
         11   -1    0    0    0    0 -0.00000000000E+00 -0.00000000000E+00 -0.45593999997E+02  0.45594000000E+02  0.51100000000E-03 0. -1.
    9900012    2    1    2    0    0  0.39298151136E+02  0.32126789919E+01 -0.18137169174E+02  0.47787275413E+02  0.20000019917E+02 0.  0.
        -12    1    1    2    0    0 -0.39298151136E+02 -0.32126789919E+01  0.18137169174E+02  0.43400724587E+02  0.00000000000E+00 0.  1.
         11    1    3    3    0    0  0.14957262526E+02  0.20729454048E+01 -0.80783619969E+01  0.17125324456E+02  0.51100000000E-03 0. -1.
        -11    1    3    3    0    0  0.87281836087E+01 -0.71443593272E+01 -0.43389600035E+01  0.12085099647E+02  0.51100000000E-03 0.  1.
         12    1    3    3    0    0  0.15612705002E+02  0.82840929143E+01 -0.57198471736E+01  0.18576851310E+02  0.00000000000E+00 0. -1.
</event>
<event>
 7    1  0.2110035E-010  0.4778727E+02  0.7816164E-02  0.1312668E+00
        -11   -1    0    0    0    0  0.00000000000E+00  0.00000000000E+00  0.45593999997E+02  0.45594000000E+02  0.51100000000E-03 0.  1.
         11   -1    0    0    0    0 -0.00000000000E+00 -0.00000000000E+00 -0.45593999997E+02  0.45594000000E+02  0.51100000000E-03 0. -1.
    9900012    2    1    2    0    0  0.18216730295E+00  0.39909925345E+02 -0.17052497688E+02  0.47787274161E+02  0.20000014210E+02 0.  0.
        -12    1    1    2    0    0 -0.18216730295E+00 -0.39909925345E+02  0.17052497688E+02  0.43400725839E+02  0.00000000000E+00 0.  1.
         11    1    3    3    0    0  0.59243837091E+01  0.28068173912E+02 -0.13392639739E+02  0.31658861453E+02  0.51100000000E-03 0. -1.
        -11    1    3    3    0    0 -0.16132420669E+01  0.99104915417E+01  0.36488222667E+00  0.10047563479E+02  0.51100000000E-03 0.  1.
        -12    1    3    3    0    0 -0.41289743393E+01  0.19312598911E+01 -0.40247401754E+01  0.60808492286E+01  0.00000000000E+00 0.  1.
</event>
<event>
 7    1  0.2110035E-010  0.4778727E+02  0.7816164E-02  0.1312668E+00
        -11   -1    0    0    0    0  0.00000000000E+00  0.00000000000E+00  0.45593999997E+02  0.45594000000E+02  0.51100000000E-03 0.  1.
         11   -1    0    0    0    0 -0.00000000000E+00 -0.00000000000E+00 -0.45593999997E+02  0.45594000000E+02  0.51100000000E-03 0. -1.
    9900012    2    1    2    0    0 -0.13637445167E+02  0.34467921718E+02 -0.22574449110E+02  0.47787270849E+02  0.19999999108E+02 0.  0.
        -12    1    1    2    0    0  0.13637445167E+02 -0.34467921718E+02  0.22574449110E+02  0.43400729151E+02  0.00000000000E+00 0.  1.
         11    1    3    3    0    0 -0.83408927440E+01  0.36871835159E+01 -0.25714680621E+01  0.94751391706E+01  0.51100000000E-03 0. -1.
        -11    1    3    3    0    0  0.18607662031E+01  0.54107656747E+01 -0.66172296698E+01  0.87479463198E+01  0.51100000000E-03 0.  1.
        -12    1    3    3    0    0 -0.71573186259E+01  0.25369972527E+02 -0.13385751378E+02  0.29564185358E+02  0.00000000000E+00 0.  1.
</event>
<event>
 7    1  0.2110035E-010  0.4778728E+02  0.7816164E-02  0.1312668E+00
        -11   -1    0    0    0    0  0.00000000000E+00  0.00000000000E+00  0.45593999997E+02  0.45594000000E+02  0.51100000000E-03 0. -1.
         11   -1    0    0    0    0 -0.00000000000E+00 -0.00000000000E+00 -0.45593999997E+02  0.45594000000E+02  0.51100000000E-03 0.  1.
    9900012    2    1    2    0    0  0.82903303319E+01  0.17037952910E+02  0.39046145836E+02  0.47787275109E+02  0.20000018533E+02 0.  0.
        -12    1    1    2    0    0 -0.82903303319E+01 -0.17037952910E+02 -0.39046145836E+02  0.43400724891E+02  0.00000000000E+00 0.  1.
         11    1    3    3    0    0  0.11220158070E+02  0.17208507132E+02  0.35021935083E+02  0.40602470394E+02  0.51100000000E-03 0. -1.
        -11    1    3    3    0    0 -0.22959265373E+00  0.13645551024E+01 -0.68459336211E+00  0.15438237421E+01  0.51100000000E-03 0.  1.
         12    1    3    3    0    0 -0.27002350846E+01 -0.15351093243E+01  0.47088041152E+01  0.56409809737E+01  0.00000000000E+00 0. -1.
</event>
<event>
 7    1  0.2110035E-010  0.4778727E+02  0.7816164E-02  0.1312668E+00
        -11   -1    0    0    0    0  0.00000000000E+00  0.00000000000E+00  0.45593999997E+02  0.45594000000E+02  0.51100000000E-03 0.  1.
         11   -1    0    0    0    0 -0.00000000000E+00 -0.00000000000E+00 -0.45593999997E+02  0.45594000000E+02  0.51100000000E-03 0. -1.
    9900012    2    1    2    0    0  0.37268332989E+02 -0.18203763188E+02 -0.12779572354E+02  0.47787272961E+02  0.20000008737E+02 0.  0.
        -12    1    1    2    0    0 -0.37268332989E+02  0.18203763188E+02  0.12779572354E+02  0.43400727039E+02  0.00000000000E+00 0.  1.
         11    1    3    3    0    0  0.15726601508E+02 -0.42487991435E+01 -0.62686028471E+01  0.17454903926E+02  0.51100000000E-03 0. -1.
        -11    1    3    3    0    0  0.91179815697E+01 -0.83941028164E+01 -0.10396991280E+02  0.16177020057E+02  0.51100000000E-03 0.  1.
         12    1    3    3    0    0  0.12423749911E+02 -0.55608612284E+01  0.38860217723E+01  0.14155348978E+02  0.00000000000E+00 0. -1.
</event>
<event>
 7    1  0.2110035E-010  0.4778724E+02  0.7816164E-02  0.1312668E+00
        -11   -1    0    0    0    0  0.00000000000E+00  0.00000000000E+00  0.45593999997E+02  0.45594000000E+02  0.51100000000E-03 0. -1.
         11   -1    0    0    0    0 -0.00000000000E+00 -0.00000000000E+00 -0.45593999997E+02  0.45594000000E+02  0.51100000000E-03 0.  1.
    9900012    2    1    2    0    0  0.18181062554E+02  0.19748217630E+02  0.34103996866E+02  0.47787242663E+02  0.19999870599E+02 0.  0.
        -12    1    1    2    0    0 -0.18181062554E+02 -0.19748217630E+02 -0.34103996866E+02  0.43400757337E+02  0.00000000000E+00 0.  1.
         11    1    3    3    0    0  0.69250304460E+00  0.40752103852E+00  0.93506540698E+01  0.93851140461E+01  0.51100000000E-03 0. -1.
        -11    1    3    3    0    0  0.11090860743E+02  0.18131089694E+02  0.23651725948E+02  0.31798549434E+02  0.51100000000E-03 0.  1.
        -12    1    3    3    0    0  0.63976987665E+01  0.12096068979E+01  0.11016168479E+01  0.66035791836E+01  0.00000000000E+00 0.  1.
</event>
<event>
 7    1  0.2110035E-010  0.4778728E+02  0.7816164E-02  0.1312668E+00
        -11   -1    0    0    0    0  0.00000000000E+00  0.00000000000E+00  0.45593999997E+02  0.45594000000E+02  0.51100000000E-03 0. -1.
         11   -1    0    0    0    0 -0.00000000000E+00 -0.00000000000E+00 -0.45593999997E+02  0.45594000000E+02  0.51100000000E-03 0.  1.
    9900012    2    1    2    0    0  0.41475251945E+02  0.16057935662E+01 -0.12682579074E+02  0.47787275250E+02  0.20000019173E+02 0.  0.
        -12    1    1    2    0    0 -0.41475251945E+02 -0.16057935662E+01  0.12682579074E+02  0.43400724750E+02  0.00000000000E+00 0.  1.
         11    1    3    3    0    0  0.12625684486E+02 -0.75485466184E+01 -0.79004646105E+01  0.16697479035E+02  0.51100000000E-03 0. -1.
        -11    1    3    3    0    0  0.12737641656E+02  0.36707651828E+01 -0.47167110435E+01  0.14070159748E+02  0.51100000000E-03 0.  1.
         12    1    3    3    0    0  0.16111925803E+02  0.54835750019E+01 -0.65403420480E-01  0.17019636467E+02  0.00000000000E+00 0. -1.
</event>
<event>
 7    1  0.2110035E-010  0.4778727E+02  0.7816164E-02  0.1312668E+00
        -11   -1    0    0    0    0  0.00000000000E+00  0.00000000000E+00  0.45593999997E+02  0.45594000000E+02  0.51100000000E-03 0. -1.
         11   -1    0    0    0    0 -0.00000000000E+00 -0.00000000000E+00 -0.45593999997E+02  0.45594000000E+02  0.51100000000E-03 0.  1.
    9900012    2    1    2    0    0  0.41087669143E+02  0.12143025098E+02 -0.69262827111E+01  0.47787274127E+02  0.20000014054E+02 0.  0.
        -12    1    1    2    0    0 -0.41087669143E+02 -0.12143025098E+02  0.69262827111E+01  0.43400725873E+02  0.00000000000E+00 0.  1.
         11    1    3    3    0    0  0.85485240733E+01  0.36998310333E+01  0.41986814832E+01  0.10217384204E+02  0.51100000000E-03 0.  1.
        -11    1    3    3    0    0  0.27418907840E+02  0.10308334615E+02 -0.56256870501E+01  0.29827950395E+02  0.51100000000E-03 0. -1.
        -12    1    3    3    0    0  0.51202372291E+01 -0.18651405505E+01 -0.54992771442E+01  0.77419395286E+01  0.00000000000E+00 0.  1.
</event>
<event>
 7    1  0.2110035E-010  0.4778727E+02  0.7816164E-02  0.1312668E+00
        -11   -1    0    0    0    0  0.00000000000E+00  0.00000000000E+00  0.45593999997E+02  0.45594000000E+02  0.51100000000E-03 0.  1.
         11   -1    0    0    0    0 -0.00000000000E+00 -0.00000000000E+00 -0.45593999997E+02  0.45594000000E+02  0.51100000000E-03 0. -1.
    9900012    2    1    2    0    0 -0.13131113025E+02 -0.27956539668E+02 -0.30489814945E+02  0.47787273567E+02  0.20000011502E+02 0.  0.
        -12    1    1    2    0    0  0.13131113025E+02  0.27956539668E+02  0.30489814945E+02  0.43400726433E+02  0.00000000000E+00 0.  1.
         11    1    3    3    0    0 -0.47867518079E+01 -0.53699071911E+01 -0.15175277347E+02  0.16793985201E+02  0.51100000000E-03 0. -1.
        -11    1    3    3    0    0  0.21049920481E+01 -0.13182504639E+01  0.46049598917E+00  0.25260310025E+01  0.51100000000E-03 0.  1.
        -12    1    3    3    0    0 -0.10449353266E+02 -0.21268382013E+02 -0.15775033588E+02  0.28467257364E+02  0.00000000000E+00 0.  1.
</event>
<event>
 7    1  0.2110035E-010  0.4778726E+02  0.7816164E-02  0.1312668E+00
        -11   -1    0    0    0    0  0.00000000000E+00  0.00000000000E+00  0.45593999997E+02  0.45594000000E+02  0.51100000000E-03 0.  1.
         11   -1    0    0    0    0 -0.00000000000E+00 -0.00000000000E+00 -0.45593999997E+02  0.45594000000E+02  0.51100000000E-03 0. -1.
    9900012    2    1    2    0    0 -0.38575929125E+02 -0.13594610308E+02  0.14515794927E+02  0.47787262222E+02  0.19999959773E+02 0.  0.
        -12    1    1    2    0    0  0.38575929125E+02  0.13594610308E+02 -0.14515794927E+02  0.43400737778E+02  0.00000000000E+00 0.  1.
         11    1    3    3    0    0 -0.93907273724E+01  0.29345237681E+01 -0.24019796282E+01  0.10127521746E+02  0.51100000000E-03 0. -1.
        -11    1    3    3    0    0 -0.60036838615E+01 -0.44680077112E+01  0.44433179048E+01  0.87034698300E+01  0.51100000000E-03 0.  1.
         12    1    3    3    0    0 -0.23181517892E+02 -0.12061126365E+02  0.12474456651E+02  0.28956270645E+02  0.00000000000E+00 0. -1.
</event>
<event>
 7    1  0.2110035E-010  0.4778727E+02  0.7816164E-02  0.1312668E+00
        -11   -1    0    0    0    0  0.00000000000E+00  0.00000000000E+00  0.45593999997E+02  0.45594000000E+02  0.51100000000E-03 0.  1.
         11   -1    0    0    0    0 -0.00000000000E+00 -0.00000000000E+00 -0.45593999997E+02  0.45594000000E+02  0.51100000000E-03 0. -1.
    9900012    2    1    2    0    0 -0.25660654619E+02 -0.32966897583E+02 -0.11761724455E+02  0.47787266206E+02  0.19999977940E+02 0.  0.
        -12    1    1    2    0    0  0.25660654619E+02  0.32966897583E+02  0.11761724455E+02  0.43400733794E+02  0.00000000000E+00 0.  1.
         11    1    3    3    0    0 -0.12396409757E+02 -0.21852736891E+02 -0.35185880721E+01  0.25369145567E+02  0.51100000000E-03 0. -1.
        -11    1    3    3    0    0  0.87288675114E+00 -0.23804790718E+00  0.17519972695E+01  0.19718247336E+01  0.51100000000E-03 0.  1.
         12    1    3    3    0    0 -0.14137131613E+02 -0.10876112784E+02 -0.99951336528E+01  0.20446295906E+02  0.00000000000E+00 0. -1.
</event>
<event>
 7    1  0.2110035E-010  0.4778727E+02  0.7816164E-02  0.1312668E+00
        -11   -1    0    0    0    0  0.00000000000E+00  0.00000000000E+00  0.45593999997E+02  0.45594000000E+02  0.51100000000E-03 0. -1.
         11   -1    0    0    0    0 -0.00000000000E+00 -0.00000000000E+00 -0.45593999997E+02  0.45594000000E+02  0.51100000000E-03 0.  1.
    9900012    2    1    2    0    0 -0.23105181406E+02  0.32468000059E+02  0.17193099775E+02  0.47787272869E+02  0.20000008319E+02 0.  0.
        -12    1    1    2    0    0  0.23105181406E+02 -0.32468000059E+02 -0.17193099775E+02  0.43400727131E+02  0.00000000000E+00 0.  1.
         11    1    3    3    0    0 -0.57890674406E+01  0.32737873328E+01  0.37228002019E+01  0.76216944925E+01  0.51100000000E-03 0. -1.
        -11    1    3    3    0    0 -0.17678619635E+02  0.17585267735E+02  0.13890603969E+02  0.28543372478E+02  0.51100000000E-03 0.  1.
        -12    1    3    3    0    0  0.36250566960E+00  0.11608944991E+02 -0.42030439613E+00  0.11622205899E+02  0.00000000000E+00 0.  1.
</event>
<event>
 7    1  0.2110035E-010  0.4778727E+02  0.7816164E-02  0.1312668E+00
        -11   -1    0    0    0    0  0.00000000000E+00  0.00000000000E+00  0.45593999997E+02  0.45594000000E+02  0.51100000000E-03 0.  1.
         11   -1    0    0    0    0 -0.00000000000E+00 -0.00000000000E+00 -0.45593999997E+02  0.45594000000E+02  0.51100000000E-03 0. -1.
    9900012    2    1    2    0    0  0.19129110408E+02  0.23816155388E+01 -0.38884803948E+02  0.47787274941E+02  0.20000017767E+02 0.  0.
        -12    1    1    2    0    0 -0.19129110408E+02 -0.23816155388E+01  0.38884803948E+02  0.43400725059E+02  0.00000000000E+00 0.  1.
         11    1    3    3    0    0  0.20229570760E+02  0.52525497913E+01 -0.27601200821E+02  0.34621540975E+02  0.51100000000E-03 0. -1.
        -11    1    3    3    0    0 -0.18151873224E+01  0.59336810211E+00 -0.74594019011E+00  0.20502238289E+01  0.51100000000E-03 0.  1.
         12    1    3    3    0    0  0.71472696974E+00 -0.34643023546E+01 -0.10537662937E+02  0.11115510138E+02  0.00000000000E+00 0. -1.
</event>
<event>
 7    1  0.2110035E-010  0.4778727E+02  0.7816164E-02  0.1312668E+00
        -11   -1    0    0    0    0  0.00000000000E+00  0.00000000000E+00  0.45593999997E+02  0.45594000000E+02  0.51100000000E-03 0.  1.
         11   -1    0    0    0    0 -0.00000000000E+00 -0.00000000000E+00 -0.45593999997E+02  0.45594000000E+02  0.51100000000E-03 0. -1.
    9900012    2    1    2    0    0  0.72566212504E+01  0.24869591129E+02 -0.34820517622E+02  0.47787267721E+02  0.19999984848E+02 0.  0.
        -12    1    1    2    0    0 -0.72566212504E+01 -0.24869591129E+02  0.34820517622E+02  0.43400732279E+02  0.00000000000E+00 0.  1.
         11    1    3    3    0    0  0.47681943174E+01  0.13975086012E+02 -0.25352312442E+02  0.29339026100E+02  0.51100000000E-03 0. -1.
        -11    1    3    3    0    0  0.38387592072E+01  0.12405044738E+02 -0.57240898226E+01  0.14191068028E+02  0.51100000000E-03 0.  1.
        -12    1    3    3    0    0 -0.13503322741E+01 -0.15105396210E+01 -0.37441153574E+01  0.42571735937E+01  0.00000000000E+00 0.  1.
</event>
<event>
 7    1  0.2110035E-010  0.4778727E+02  0.7816164E-02  0.1312668E+00
        -11   -1    0    0    0    0  0.00000000000E+00  0.00000000000E+00  0.45593999997E+02  0.45594000000E+02  0.51100000000E-03 0. -1.
         11   -1    0    0    0    0 -0.00000000000E+00 -0.00000000000E+00 -0.45593999997E+02  0.45594000000E+02  0.51100000000E-03 0.  1.
    9900012    2    1    2    0    0 -0.15127159864E+01  0.40139759790E+02  0.16435775876E+02  0.47787270118E+02  0.19999995776E+02 0.  0.
        -12    1    1    2    0    0  0.15127159864E+01 -0.40139759790E+02 -0.16435775876E+02  0.43400729882E+02  0.00000000000E+00 0.  1.
         11    1    3    3    0    0 -0.14422608616E+01  0.22801084590E+02  0.37461679201E+01  0.23151746138E+02  0.51100000000E-03 0.  1.
        -11    1    3    3    0    0  0.47700418385E+00  0.16855191121E+02  0.59870512001E+01  0.17893288771E+02  0.51100000000E-03 0. -1.
        -12    1    3    3    0    0 -0.54745930868E+00  0.48348407870E+00  0.67025567555E+01  0.67422352087E+01  0.00000000000E+00 0.  1.
</event>
<event>
 7    1  0.2110035E-010  0.4778724E+02  0.7816164E-02  0.1312668E+00
        -11   -1    0    0    0    0  0.00000000000E+00  0.00000000000E+00  0.45593999997E+02  0.45594000000E+02  0.51100000000E-03 0.  1.
         11   -1    0    0    0    0 -0.00000000000E+00 -0.00000000000E+00 -0.45593999997E+02  0.45594000000E+02  0.51100000000E-03 0. -1.
    9900012    2    1    2    0    0  0.74186708072E+01  0.12684814211E+02 -0.40837295078E+02  0.47787241280E+02  0.19999864293E+02 0.  0.
        -12    1    1    2    0    0 -0.74186708072E+01 -0.12684814211E+02  0.40837295078E+02  0.43400758720E+02  0.00000000000E+00 0.  1.
         11    1    3    3    0    0  0.68142462835E+01  0.48411327569E+01 -0.12442211761E+02  0.14989301270E+02  0.51100000000E-03 0. -1.
        -11    1    3    3    0    0 -0.42705062697E+01  0.98755536607E+01 -0.15549550582E+02  0.18909053585E+02  0.51100000000E-03 0.  1.
         12    1    3    3    0    0  0.48749307934E+01 -0.20318722064E+01 -0.12845532735E+02  0.13888886426E+02  0.00000000000E+00 0. -1.
</event>
<event>
 7    1  0.2110035E-010  0.4778727E+02  0.7816164E-02  0.1312668E+00
        -11   -1    0    0    0    0  0.00000000000E+00  0.00000000000E+00  0.45593999997E+02  0.45594000000E+02  0.51100000000E-03 0.  1.
         11   -1    0    0    0    0 -0.00000000000E+00 -0.00000000000E+00 -0.45593999997E+02  0.45594000000E+02  0.51100000000E-03 0. -1.
    9900012    2    1    2    0    0  0.13334443102E+02  0.21835707797E+02 -0.35057348834E+02  0.47787271721E+02  0.20000003085E+02 0.  0.
        -12    1    1    2    0    0 -0.13334443102E+02 -0.21835707797E+02  0.35057348834E+02  0.43400728279E+02  0.00000000000E+00 0.  1.
         11    1    3    3    0    0  0.11947437205E+01  0.10597908358E+01 -0.97702377563E+01  0.98999048101E+01  0.51100000000E-03 0. -1.
        -11    1    3    3    0    0  0.80328759653E+01  0.22275098086E+02 -0.19765255247E+02  0.30844325349E+02  0.51100000000E-03 0.  1.
        -12    1    3    3    0    0  0.41068234157E+01 -0.14991811249E+01 -0.55218558316E+01  0.70430415616E+01  0.00000000000E+00 0.  1.
</event>
<event>
 7    1  0.2110035E-010  0.4778727E+02  0.7816164E-02  0.1312668E+00
        -11   -1    0    0    0    0  0.00000000000E+00  0.00000000000E+00  0.45593999997E+02  0.45594000000E+02  0.51100000000E-03 0.  1.
         11   -1    0    0    0    0 -0.00000000000E+00 -0.00000000000E+00 -0.45593999997E+02  0.45594000000E+02  0.51100000000E-03 0. -1.
    9900012    2    1    2    0    0  0.26380764146E+02  0.71400094852E+01 -0.33714971440E+02  0.47787265541E+02  0.19999974909E+02 0.  0.
        -12    1    1    2    0    0 -0.26380764146E+02 -0.71400094852E+01  0.33714971440E+02  0.43400734459E+02  0.00000000000E+00 0.  1.
         11    1    3    3    0    0  0.15917459377E+02 -0.11210543795E+01 -0.23281383299E+02  0.28224901851E+02  0.51100000000E-03 0. -1.
        -11    1    3    3    0    0  0.10928036451E+01 -0.70826666930E+00  0.14651447826E+01  0.19602323782E+01  0.51100000000E-03 0.  1.
         12    1    3    3    0    0  0.93705011238E+01  0.89693305340E+01 -0.11898732924E+02  0.17602131312E+02  0.00000000000E+00 0. -1.
</event>
<event>
 7    1  0.2110035E-010  0.4778727E+02  0.7816164E-02  0.1312668E+00
        -11   -1    0    0    0    0  0.00000000000E+00  0.00000000000E+00  0.45593999997E+02  0.45594000000E+02  0.51100000000E-03 0. -1.
         11   -1    0    0    0    0 -0.00000000000E+00 -0.00000000000E+00 -0.45593999997E+02  0.45594000000E+02  0.51100000000E-03 0.  1.
    9900012    2    1    2    0    0 -0.34746472083E+02  0.91261555518E+01 -0.24351982148E+02  0.47787273371E+02  0.20000010608E+02 0.  0.
        -12    1    1    2    0    0  0.34746472083E+02 -0.91261555518E+01  0.24351982148E+02  0.43400726629E+02  0.00000000000E+00 0.  1.
         11    1    3    3    0    0 -0.18955427277E+02  0.85746921765E+01 -0.78905026433E+01  0.22250698897E+02  0.51100000000E-03 0. -1.
        -11    1    3    3    0    0  0.13628327787E+01 -0.13441131916E+01 -0.38905306684E+00  0.19532833908E+01  0.51100000000E-03 0.  1.
         12    1    3    3    0    0 -0.17153877585E+02  0.18955765670E+01 -0.16072426438E+02  0.23583291083E+02  0.00000000000E+00 0. -1.
</event>
<event>
 7    1  0.2110035E-010  0.4778728E+02  0.7816164E-02  0.1312668E+00
        -11   -1    0    0    0    0  0.00000000000E+00  0.00000000000E+00  0.45593999997E+02  0.45594000000E+02  0.51100000000E-03 0. -1.
         11   -1    0    0    0    0 -0.00000000000E+00 -0.00000000000E+00 -0.45593999997E+02  0.45594000000E+02  0.51100000000E-03 0.  1.
    9900012    2    1    2    0    0 -0.15989422835E+02  0.36985998281E+02 -0.16124409534E+02  0.47787282330E+02  0.20000051456E+02 0.  0.
        -12    1    1    2    0    0  0.15989422835E+02 -0.36985998281E+02  0.16124409534E+02  0.43400717670E+02  0.00000000000E+00 0.  1.
         11    1    3    3    0    0 -0.23289676534E+01  0.16806172281E+02 -0.28418704894E+01  0.17203131843E+02  0.51100000000E-03 0. -1.
        -11    1    3    3    0    0 -0.45723643204E+01  0.12150834634E+02 -0.13118122724E+02  0.18456284617E+02  0.51100000000E-03 0.  1.
        -12    1    3    3    0    0 -0.90880908615E+01  0.80289913658E+01 -0.16441632107E+00  0.12127865871E+02  0.00000000000E+00 0.  1.
</event>
<event>
 7    1  0.2110035E-010  0.4778727E+02  0.7816164E-02  0.1312668E+00
        -11   -1    0    0    0    0  0.00000000000E+00  0.00000000000E+00  0.45593999997E+02  0.45594000000E+02  0.51100000000E-03 0.  1.
         11   -1    0    0    0    0 -0.00000000000E+00 -0.00000000000E+00 -0.45593999997E+02  0.45594000000E+02  0.51100000000E-03 0. -1.
    9900012    2    1    2    0    0  0.30270891937E+01  0.37318242692E+02 -0.21950147296E+02  0.47787268751E+02  0.19999989544E+02 0.  0.
        -12    1    1    2    0    0 -0.30270891937E+01 -0.37318242692E+02  0.21950147296E+02  0.43400731249E+02  0.00000000000E+00 0.  1.
         11    1    3    3    0    0  0.28341134215E+01  0.10650987738E+02  0.45813547127E+00  0.11031120843E+02  0.51100000000E-03 0. -1.
        -11    1    3    3    0    0 -0.51805696586E+01  0.18072797743E+02 -0.16560133140E+02  0.25053988307E+02  0.51100000000E-03 0.  1.
         12    1    3    3    0    0  0.53735454307E+01  0.85944572119E+01 -0.58481496277E+01  0.11702159601E+02  0.00000000000E+00 0. -1.
</event>
<event>
 7    1  0.2110035E-010  0.4778727E+02  0.7816164E-02  0.1312668E+00
        -11   -1    0    0    0    0  0.00000000000E+00  0.00000000000E+00  0.45593999997E+02  0.45594000000E+02  0.51100000000E-03 0.  1.
         11   -1    0    0    0    0 -0.00000000000E+00 -0.00000000000E+00 -0.45593999997E+02  0.45594000000E+02  0.51100000000E-03 0. -1.
    9900012    2    1    2    0    0 -0.12788128989E+02 -0.39546332117E+02  0.12496994485E+02  0.47787268461E+02  0.19999988220E+02 0.  0.
        -12    1    1    2    0    0  0.12788128989E+02  0.39546332117E+02 -0.12496994485E+02  0.43400731539E+02  0.00000000000E+00 0.  1.
         11    1    3    3    0    0 -0.12314427622E+02 -0.32660446639E+02  0.42020021130E+01  0.35156887296E+02  0.51100000000E-03 0. -1.
        -11    1    3    3    0    0  0.23927620658E+01 -0.14666924514E+01  0.74287367540E+00  0.29031635520E+01  0.51100000000E-03 0.  1.
        -12    1    3    3    0    0 -0.28664634325E+01 -0.54191930273E+01  0.75521186970E+01  0.97272176130E+01  0.00000000000E+00 0.  1.
</event>
<event>
 7    1  0.2110035E-010  0.4778727E+02  0.7816164E-02  0.1312668E+00
        -11   -1    0    0    0    0  0.00000000000E+00  0.00000000000E+00  0.45593999997E+02  0.45594000000E+02  0.51100000000E-03 0. -1.
         11   -1    0    0    0    0 -0.00000000000E+00 -0.00000000000E+00 -0.45593999997E+02  0.45594000000E+02  0.51100000000E-03 0.  1.
    9900012    2    1    2    0    0  0.29252169074E+02 -0.31485256127E+02 -0.60508290548E+01  0.47787270960E+02  0.19999999616E+02 0.  0.
        -12    1    1    2    0    0 -0.29252169074E+02  0.31485256127E+02  0.60508290548E+01  0.43400729040E+02  0.00000000000E+00 0.  1.
         11    1    3    3    0    0  0.18417384107E+01 -0.15237721664E+02 -0.14343116890E+01  0.15415492602E+02  0.51100000000E-03 0. -1.
        -11    1    3    3    0    0  0.73223520921E+01 -0.29527603075E+01 -0.19733065296E+01  0.81381553509E+01  0.51100000000E-03 0.  1.
         12    1    3    3    0    0  0.20088078571E+02 -0.13294774156E+02 -0.26432108362E+01  0.24233623008E+02  0.00000000000E+00 0. -1.
</event>
<event>
 7    1  0.2110035E-010  0.4778727E+02  0.7816164E-02  0.1312668E+00
        -11   -1    0    0    0    0  0.00000000000E+00  0.00000000000E+00  0.45593999997E+02  0.45594000000E+02  0.51100000000E-03 0.  1.
         11   -1    0    0    0    0 -0.00000000000E+00 -0.00000000000E+00 -0.45593999997E+02  0.45594000000E+02  0.51100000000E-03 0. -1.
    9900012    2    1    2    0    0 -0.13619693643E+02  0.14877173348E+02 -0.38429115545E+02  0.47787271166E+02  0.20000000555E+02 0.  0.
        -12    1    1    2    0    0  0.13619693643E+02 -0.14877173348E+02  0.38429115545E+02  0.43400728834E+02  0.00000000000E+00 0.  1.
         11    1    3    3    0    0 -0.32704420913E+01 -0.23933499257E+01 -0.12771483695E+02  0.13399056361E+02  0.51100000000E-03 0. -1.
        -11    1    3    3    0    0 -0.93421823028E+01  0.58148996141E+01 -0.93872598510E+01  0.14464096082E+02  0.51100000000E-03 0.  1.
         12    1    3    3    0    0 -0.10070692490E+01  0.11455623659E+02 -0.16270371999E+02  0.19924118723E+02  0.00000000000E+00 0. -1.
</event>
<event>
 7    1  0.2110035E-010  0.4778730E+02  0.7816164E-02  0.1312668E+00
        -11   -1    0    0    0    0  0.00000000000E+00  0.00000000000E+00  0.45593999997E+02  0.45594000000E+02  0.51100000000E-03 0.  1.
         11   -1    0    0    0    0 -0.00000000000E+00 -0.00000000000E+00 -0.45593999997E+02  0.45594000000E+02  0.51100000000E-03 0. -1.
    9900012    2    1    2    0    0 -0.26773438945E+02  0.13624332234E+02 -0.31323809530E+02  0.47787302941E+02  0.20000145427E+02 0.  0.
        -12    1    1    2    0    0  0.26773438945E+02 -0.13624332234E+02  0.31323809530E+02  0.43400697059E+02  0.00000000000E+00 0.  1.
         11    1    3    3    0    0 -0.10780733867E+02  0.36259913306E+01 -0.66384085452E+01  0.13169681246E+02  0.51100000000E-03 0. -1.
        -11    1    3    3    0    0 -0.88677652364E+01  0.12698622235E+02 -0.21158068292E+02  0.26221291369E+02  0.51100000000E-03 0.  1.
        -12    1    3    3    0    0 -0.71249398418E+01 -0.27002813309E+01 -0.35273326919E+01  0.83963303255E+01  0.00000000000E+00 0.  1.
</event>
<event>
 7    1  0.2110035E-010  0.4778727E+02  0.7816164E-02  0.1312668E+00
        -11   -1    0    0    0    0  0.00000000000E+00  0.00000000000E+00  0.45593999997E+02  0.45594000000E+02  0.51100000000E-03 0.  1.
         11   -1    0    0    0    0 -0.00000000000E+00 -0.00000000000E+00 -0.45593999997E+02  0.45594000000E+02  0.51100000000E-03 0. -1.
    9900012    2    1    2    0    0  0.26219201336E+02  0.34472608722E+02 -0.27957122083E+01  0.47787271002E+02  0.19999999808E+02 0.  0.
        -12    1    1    2    0    0 -0.26219201336E+02 -0.34472608722E+02  0.27957122083E+01  0.43400728998E+02  0.00000000000E+00 0.  1.
         11    1    3    3    0    0  0.21383003478E+02  0.19045996445E+02  0.14035362781E+01  0.28669718043E+02  0.51100000000E-03 0. -1.
        -11    1    3    3    0    0  0.48285859162E+01  0.14841094579E+02 -0.75628571812E+00  0.15625149554E+02  0.51100000000E-03 0.  1.
        -12    1    3    3    0    0  0.76119413266E-02  0.58551769792E+00 -0.34429627683E+01  0.34924034045E+01  0.00000000000E+00 0.  1.
</event>
<event>
 7    1  0.2110035E-010  0.4778727E+02  0.7816164E-02  0.1312668E+00
        -11   -1    0    0    0    0  0.00000000000E+00  0.00000000000E+00  0.45593999997E+02  0.45594000000E+02  0.51100000000E-03 0.  1.
         11   -1    0    0    0    0 -0.00000000000E+00 -0.00000000000E+00 -0.45593999997E+02  0.45594000000E+02  0.51100000000E-03 0. -1.
    9900012    2    1    2    0    0 -0.33378386412E+02 -0.24446628907E+02 -0.13109879026E+02  0.47787271061E+02  0.20000000074E+02 0.  0.
        -12    1    1    2    0    0  0.33378386412E+02  0.24446628907E+02  0.13109879026E+02  0.43400728939E+02  0.00000000000E+00 0.  1.
         11    1    3    3    0    0 -0.21953467600E+01 -0.85310180603E+01 -0.15205889095E+01  0.89392397571E+01  0.51100000000E-03 0. -1.
        -11    1    3    3    0    0 -0.14168367149E+02 -0.74228883894E+01 -0.11723096833E+02  0.19831109383E+02  0.51100000000E-03 0.  1.
        -12    1    3    3    0    0 -0.17014672503E+02 -0.84927224572E+01  0.13380671676E+00  0.19016921921E+02  0.00000000000E+00 0.  1.
</event>
<event>
 7    1  0.2110035E-010  0.4778727E+02  0.7816164E-02  0.1312668E+00
        -11   -1    0    0    0    0  0.00000000000E+00  0.00000000000E+00  0.45593999997E+02  0.45594000000E+02  0.51100000000E-03 0.  1.
         11   -1    0    0    0    0 -0.00000000000E+00 -0.00000000000E+00 -0.45593999997E+02  0.45594000000E+02  0.51100000000E-03 0. -1.
    9900012    2    1    2    0    0  0.35771684162E+02 -0.13765616713E+02 -0.20359707855E+02  0.47787270799E+02  0.19999998880E+02 0.  0.
        -12    1    1    2    0    0 -0.35771684162E+02  0.13765616713E+02  0.20359707855E+02  0.43400729201E+02  0.00000000000E+00 0.  1.
         11    1    3    3    0    0  0.74282792180E+01  0.13664007841E+01 -0.38586325761E+01  0.84814756300E+01  0.51100000000E-03 0. -1.
        -11    1    3    3    0    0  0.10839913355E+02 -0.14118534885E+02 -0.11025008753E+02  0.20937706826E+02  0.51100000000E-03 0.  1.
        -12    1    3    3    0    0  0.17503491588E+02 -0.10134826124E+01 -0.54760665254E+01  0.18368088343E+02  0.00000000000E+00 0.  1.
</event>
<event>
 7    1  0.2110035E-010  0.4778727E+02  0.7816164E-02  0.1312668E+00
        -11   -1    0    0    0    0  0.00000000000E+00  0.00000000000E+00  0.45593999997E+02  0.45594000000E+02  0.51100000000E-03 0. -1.
         11   -1    0    0    0    0 -0.00000000000E+00 -0.00000000000E+00 -0.45593999997E+02  0.45594000000E+02  0.51100000000E-03 0.  1.
    9900012    2    1    2    0    0 -0.40369477522E+02  0.15412698411E+02 -0.40468822348E+01  0.47787271394E+02  0.20000001595E+02 0.  0.
        -12    1    1    2    0    0  0.40369477522E+02 -0.15412698411E+02  0.40468822348E+01  0.43400728606E+02  0.00000000000E+00 0.  1.
         11    1    3    3    0    0 -0.11142616731E+02  0.61663885045E+01  0.36080364471E+01  0.13236320564E+02  0.51100000000E-03 0. -1.
        -11    1    3    3    0    0  0.17127448549E+00  0.20193774554E+00  0.22284368982E+01  0.22441134269E+01  0.51100000000E-03 0.  1.
        -12    1    3    3    0    0 -0.29398135276E+02  0.90443721613E+01 -0.98833555801E+01  0.32306837403E+02  0.00000000000E+00 0.  1.
</event>
<event>
 7    1  0.2110035E-010  0.4778727E+02  0.7816164E-02  0.1312668E+00
        -11   -1    0    0    0    0  0.00000000000E+00  0.00000000000E+00  0.45593999997E+02  0.45594000000E+02  0.51100000000E-03 0. -1.
         11   -1    0    0    0    0 -0.00000000000E+00 -0.00000000000E+00 -0.45593999997E+02  0.45594000000E+02  0.51100000000E-03 0.  1.
    9900012    2    1    2    0    0  0.39745782178E+02 -0.16240421907E+02  0.63359883907E+01  0.47787271278E+02  0.20000001067E+02 0.  0.
        -12    1    1    2    0    0 -0.39745782178E+02  0.16240421907E+02 -0.63359883907E+01  0.43400728722E+02  0.00000000000E+00 0.  1.
         11    1    3    3    0    0  0.18191058740E+02 -0.11151443102E+02  0.93798016403E+01  0.23307723622E+02  0.51100000000E-03 0. -1.
        -11    1    3    3    0    0  0.20160697752E+02 -0.32552415763E+01  0.29417180517E+00  0.20423928831E+02  0.51100000000E-03 0.  1.
        -12    1    3    3    0    0  0.13940256859E+01 -0.18337372289E+01 -0.33379850548E+01  0.40556188262E+01  0.00000000000E+00 0.  1.
</event>
<event>
 7    1  0.2110035E-010  0.4778727E+02  0.7816164E-02  0.1312668E+00
        -11   -1    0    0    0    0  0.00000000000E+00  0.00000000000E+00  0.45593999997E+02  0.45594000000E+02  0.51100000000E-03 0.  1.
         11   -1    0    0    0    0 -0.00000000000E+00 -0.00000000000E+00 -0.45593999997E+02  0.45594000000E+02  0.51100000000E-03 0. -1.
    9900012    2    1    2    0    0 -0.28598929355E+02 -0.22572424513E+02 -0.23584103309E+02  0.47787273767E+02  0.20000012413E+02 0.  0.
        -12    1    1    2    0    0  0.28598929355E+02  0.22572424513E+02  0.23584103309E+02  0.43400726233E+02  0.00000000000E+00 0.  1.
         11    1    3    3    0    0 -0.11107860896E+02 -0.18893554340E+01 -0.15270774533E+02  0.18977639282E+02  0.51100000000E-03 0. -1.
        -11    1    3    3    0    0 -0.11845308876E+02 -0.11811059534E+02 -0.72794703315E+01  0.18242893363E+02  0.51100000000E-03 0.  1.
        -12    1    3    3    0    0 -0.56457595836E+01 -0.88720095451E+01 -0.10338584445E+01  0.10566741121E+02  0.00000000000E+00 0.  1.
</event>
<event>
 7    1  0.2110035E-010  0.4778728E+02  0.7816164E-02  0.1312668E+00
        -11   -1    0    0    0    0  0.00000000000E+00  0.00000000000E+00  0.45593999997E+02  0.45594000000E+02  0.51100000000E-03 0. -1.
         11   -1    0    0    0    0 -0.00000000000E+00 -0.00000000000E+00 -0.45593999997E+02  0.45594000000E+02  0.51100000000E-03 0.  1.
    9900012    2    1    2    0    0  0.12769734220E+02 -0.26646461578E+02  0.31788715796E+02  0.47787280206E+02  0.20000041772E+02 0.  0.
        -12    1    1    2    0    0 -0.12769734220E+02  0.26646461578E+02 -0.31788715796E+02  0.43400719794E+02  0.00000000000E+00 0.  1.
         11    1    3    3    0    0  0.85817501878E+01 -0.62055990194E+01  0.10271266872E+02  0.14753129122E+02  0.51100000000E-03 0.  1.
        -11    1    3    3    0    0  0.55866178155E+01 -0.25743618729E+01  0.18435428366E+01  0.64215487322E+01  0.51100000000E-03 0. -1.
         12    1    3    3    0    0 -0.13986337837E+01 -0.17866500686E+02  0.19673906088E+02  0.26612602352E+02  0.00000000000E+00 0. -1.
</event>
<event>
 7    1  0.2110035E-010  0.4778728E+02  0.7816164E-02  0.1312668E+00
        -11   -1    0    0    0    0  0.00000000000E+00  0.00000000000E+00  0.45593999997E+02  0.45594000000E+02  0.51100000000E-03 0.  1.
         11   -1    0    0    0    0 -0.00000000000E+00 -0.00000000000E+00 -0.45593999997E+02  0.45594000000E+02  0.51100000000E-03 0. -1.
    9900012    2    1    2    0    0  0.85828346301E+01 -0.37691449051E+02 -0.19731004299E+02  0.47787275208E+02  0.20000018983E+02 0.  0.
        -12    1    1    2    0    0 -0.85828346301E+01  0.37691449051E+02  0.19731004299E+02  0.43400724792E+02  0.00000000000E+00 0.  1.
         11    1    3    3    0    0  0.59364470733E+01 -0.28641543068E+02 -0.88753872556E+01  0.30567170173E+02  0.51100000000E-03 0. -1.
        -11    1    3    3    0    0  0.23731914893E+01 -0.10757629660E+02 -0.10889974967E+02  0.15490325652E+02  0.51100000000E-03 0.  1.
        -12    1    3    3    0    0  0.27319606742E+00  0.17077236773E+01  0.34357923589E-01  0.17297793837E+01  0.00000000000E+00 0.  1.
</event>
<event>
 7    1  0.2110035E-010  0.4778727E+02  0.7816164E-02  0.1312668E+00
        -11   -1    0    0    0    0  0.00000000000E+00  0.00000000000E+00  0.45593999997E+02  0.45594000000E+02  0.51100000000E-03 0.  1.
         11   -1    0    0    0    0 -0.00000000000E+00 -0.00000000000E+00 -0.45593999997E+02  0.45594000000E+02  0.51100000000E-03 0. -1.
    9900012    2    1    2    0    0  0.22107414523E+02 -0.84915795927E+01 -0.36370030044E+02  0.47787265142E+02  0.19999973087E+02 0.  0.
        -12    1    1    2    0    0 -0.22107414523E+02  0.84915795927E+01  0.36370030044E+02  0.43400734858E+02  0.00000000000E+00 0.  1.
         11    1    3    3    0    0  0.25225588097E+01 -0.74835139291E+00  0.16585196122E+01  0.31103087179E+01  0.51100000000E-03 0.  1.
        -11    1    3    3    0    0  0.17219119574E+02 -0.88936039847E+01 -0.37153945735E+02  0.41904772457E+02  0.51100000000E-03 0. -1.
         12    1    3    3    0    0  0.23657361397E+01  0.11503757848E+01 -0.87460392125E+00  0.27721839672E+01  0.00000000000E+00 0. -1.
</event>
<event>
 7    1  0.2110035E-010  0.4778727E+02  0.7816164E-02  0.1312668E+00
        -11   -1    0    0    0    0  0.00000000000E+00  0.00000000000E+00  0.45593999997E+02  0.45594000000E+02  0.51100000000E-03 0.  1.
         11   -1    0    0    0    0 -0.00000000000E+00 -0.00000000000E+00 -0.45593999997E+02  0.45594000000E+02  0.51100000000E-03 0. -1.
    9900012    2    1    2    0    0  0.11641024174E+01  0.61758752232E+01 -0.42943293982E+02  0.47787273425E+02  0.20000010855E+02 0.  0.
        -12    1    1    2    0    0 -0.11641024174E+01 -0.61758752232E+01  0.42943293982E+02  0.43400726575E+02  0.00000000000E+00 0.  1.
         11    1    3    3    0    0  0.10863934117E+01  0.80888290142E+01 -0.17606969916E+02  0.19406565780E+02  0.51100000000E-03 0. -1.
        -11    1    3    3    0    0  0.24097107456E+00 -0.52137671725E+00  0.14490398241E+01  0.15587230072E+01  0.51100000000E-03 0.  1.
         12    1    3    3    0    0 -0.16326206885E+00 -0.13915770737E+01 -0.26785363890E+02  0.26821984639E+02  0.00000000000E+00 0. -1.
</event>
<event>
 7    1  0.2110035E-010  0.4778727E+02  0.7816164E-02  0.1312668E+00
        -11   -1    0    0    0    0  0.00000000000E+00  0.00000000000E+00  0.45593999997E+02  0.45594000000E+02  0.51100000000E-03 0.  1.
         11   -1    0    0    0    0 -0.00000000000E+00 -0.00000000000E+00 -0.45593999997E+02  0.45594000000E+02  0.51100000000E-03 0. -1.
    9900012    2    1    2    0    0  0.23594905432E+02  0.10430471396E+02 -0.34901418146E+02  0.47787270923E+02  0.19999999445E+02 0.  0.
        -12    1    1    2    0    0 -0.23594905432E+02 -0.10430471396E+02  0.34901418146E+02  0.43400729077E+02  0.00000000000E+00 0.  1.
         11    1    3    3    0    0  0.21501373435E+01  0.32493368395E+01 -0.18040336413E+02  0.18456300243E+02  0.51100000000E-03 0. -1.
        -11    1    3    3    0    0  0.11140173257E+02  0.63182376010E+01 -0.13119388509E+02  0.18334174148E+02  0.51100000000E-03 0.  1.
        -12    1    3    3    0    0  0.10304594831E+02  0.86289695514E+00 -0.37416932233E+01  0.10996796532E+02  0.00000000000E+00 0.  1.
</event>
<event>
 7    1  0.2110035E-010  0.4778728E+02  0.7816164E-02  0.1312668E+00
        -11   -1    0    0    0    0  0.00000000000E+00  0.00000000000E+00  0.45593999997E+02  0.45594000000E+02  0.51100000000E-03 0. -1.
         11   -1    0    0    0    0 -0.00000000000E+00 -0.00000000000E+00 -0.45593999997E+02  0.45594000000E+02  0.51100000000E-03 0.  1.
    9900012    2    1    2    0    0  0.38564960194E+02 -0.18285747870E+02 -0.78738844395E+01  0.47787276664E+02  0.20000025622E+02 0.  0.
        -12    1    1    2    0    0 -0.38564960194E+02  0.18285747870E+02  0.78738844395E+01  0.43400723336E+02  0.00000000000E+00 0.  1.
         11    1    3    3    0    0  0.31686356606E+02 -0.20841920867E+02 -0.90651194698E+01  0.38994707996E+02  0.51100000000E-03 0. -1.
        -11    1    3    3    0    0  0.12190916190E+00 -0.22485997292E+00  0.14587724750E+01  0.14810270916E+01  0.51100000000E-03 0.  1.
        -12    1    3    3    0    0  0.67566944256E+01  0.27810329701E+01 -0.26753744471E+00  0.73115415766E+01  0.00000000000E+00 0.  1.
</event>
<event>
 7    1  0.2110035E-010  0.4778726E+02  0.7816164E-02  0.1312668E+00
        -11   -1    0    0    0    0  0.00000000000E+00  0.00000000000E+00  0.45593999997E+02  0.45594000000E+02  0.51100000000E-03 0.  1.
         11   -1    0    0    0    0 -0.00000000000E+00 -0.00000000000E+00 -0.45593999997E+02  0.45594000000E+02  0.51100000000E-03 0. -1.
    9900012    2    1    2    0    0 -0.86918355877E+01 -0.13311630864E+02 -0.40384111419E+02  0.47787262942E+02  0.19999963056E+02 0.  0.
        -12    1    1    2    0    0  0.86918355877E+01  0.13311630864E+02  0.40384111419E+02  0.43400737058E+02  0.00000000000E+00 0.  1.
         11    1    3    3    0    0  0.87914659704E+00  0.13094243316E+01 -0.84542957423E+01  0.86001516020E+01  0.51100000000E-03 0. -1.
        -11    1    3    3    0    0 -0.90648107169E+01 -0.10659506257E+02 -0.10780316501E+02  0.17663835685E+02  0.51100000000E-03 0.  1.
         12    1    3    3    0    0 -0.50617146789E+00 -0.39615489389E+01 -0.21149499175E+02  0.21523275655E+02  0.00000000000E+00 0. -1.
</event>
<event>
 7    1  0.2110035E-010  0.4778727E+02  0.7816164E-02  0.1312668E+00
        -11   -1    0    0    0    0  0.00000000000E+00  0.00000000000E+00  0.45593999997E+02  0.45594000000E+02  0.51100000000E-03 0.  1.
         11   -1    0    0    0    0 -0.00000000000E+00 -0.00000000000E+00 -0.45593999997E+02  0.45594000000E+02  0.51100000000E-03 0. -1.
    9900012    2    1    2    0    0 -0.18043957992E+02 -0.38097081523E+02 -0.10327217341E+02  0.47787268917E+02  0.19999990298E+02 0.  0.
        -12    1    1    2    0    0  0.18043957992E+02  0.38097081523E+02  0.10327217341E+02  0.43400731083E+02  0.00000000000E+00 0.  1.
         11    1    3    3    0    0 -0.13820829085E+02 -0.18073816079E+02 -0.19426402104E+01  0.22835323416E+02  0.51100000000E-03 0.  1.
        -11    1    3    3    0    0 -0.49015804156E+01 -0.91088147965E+01 -0.93900634510E+01  0.13970300263E+02  0.51100000000E-03 0. -1.
         12    1    3    3    0    0  0.67845150912E+00 -0.10914450647E+02  0.10054863203E+01  0.10981645237E+02  0.00000000000E+00 0. -1.
</event>
<event>
 7    1  0.2110035E-010  0.4778727E+02  0.7816164E-02  0.1312668E+00
        -11   -1    0    0    0    0  0.00000000000E+00  0.00000000000E+00  0.45593999997E+02  0.45594000000E+02  0.51100000000E-03 0.  1.
         11   -1    0    0    0    0 -0.00000000000E+00 -0.00000000000E+00 -0.45593999997E+02  0.45594000000E+02  0.51100000000E-03 0. -1.
    9900012    2    1    2    0    0  0.15950899467E+02 -0.19918993503E+02 -0.35105924178E+02  0.47787269495E+02  0.19999992935E+02 0.  0.
        -12    1    1    2    0    0 -0.15950899467E+02  0.19918993503E+02  0.35105924178E+02  0.43400730505E+02  0.00000000000E+00 0.  1.
         11    1    3    3    0    0  0.90003471688E+01 -0.14524161588E+02 -0.14945843934E+02  0.22701008131E+02  0.51100000000E-03 0. -1.
        -11    1    3    3    0    0  0.21332198676E+01 -0.75515298154E+01 -0.57163995100E+01  0.97084217654E+01  0.51100000000E-03 0.  1.
        -12    1    3    3    0    0  0.48173324302E+01  0.21566979002E+01 -0.14443680734E+02  0.15377839599E+02  0.00000000000E+00 0.  1.
</event>
<event>
 7    1  0.2110035E-010  0.4778727E+02  0.7816164E-02  0.1312668E+00
        -11   -1    0    0    0    0  0.00000000000E+00  0.00000000000E+00  0.45593999997E+02  0.45594000000E+02  0.51100000000E-03 0.  1.
         11   -1    0    0    0    0 -0.00000000000E+00 -0.00000000000E+00 -0.45593999997E+02  0.45594000000E+02  0.51100000000E-03 0. -1.
    9900012    2    1    2    0    0  0.24565681528E+02 -0.51291241979E+01 -0.35409640275E+02  0.47787271338E+02  0.20000001338E+02 0.  0.
        -12    1    1    2    0    0 -0.24565681528E+02  0.51291241979E+01  0.35409640275E+02  0.43400728662E+02  0.00000000000E+00 0.  1.
         11    1    3    3    0    0  0.10397391958E+02 -0.58938995590E+00 -0.17461880645E+02  0.20331512879E+02  0.51100000000E-03 0. -1.
        -11    1    3    3    0    0  0.15806885565E+02  0.96456731356E-03 -0.15048920478E+02  0.21824931615E+02  0.51100000000E-03 0.  1.
        -12    1    3    3    0    0 -0.16385959949E+01 -0.45406988093E+01 -0.28988391526E+01  0.56308268438E+01  0.00000000000E+00 0.  1.
</event>
<event>
 7    1  0.2110035E-010  0.4778726E+02  0.7816164E-02  0.1312668E+00
        -11   -1    0    0    0    0  0.00000000000E+00  0.00000000000E+00  0.45593999997E+02  0.45594000000E+02  0.51100000000E-03 0.  1.
         11   -1    0    0    0    0 -0.00000000000E+00 -0.00000000000E+00 -0.45593999997E+02  0.45594000000E+02  0.51100000000E-03 0. -1.
    9900012    2    1    2    0    0  0.36630473265E+01 -0.32508419133E+02 -0.28520326420E+02  0.47787259806E+02  0.19999948760E+02 0.  0.
        -12    1    1    2    0    0 -0.36630473265E+01  0.32508419133E+02  0.28520326420E+02  0.43400740194E+02  0.00000000000E+00 0.  1.
         11    1    3    3    0    0 -0.40809779268E+01 -0.95245491182E+01 -0.12550088938E+02  0.16275016109E+02  0.51100000000E-03 0. -1.
        -11    1    3    3    0    0  0.62114969916E+01 -0.22576769517E+02 -0.17558728484E+02  0.29267766620E+02  0.51100000000E-03 0.  1.
        -12    1    3    3    0    0  0.15325282617E+01 -0.40710049822E+00  0.15884910014E+01  0.22444770772E+01  0.00000000000E+00 0.  1.
</event>
<event>
 7    1  0.2110035E-010  0.4778726E+02  0.7816164E-02  0.1312668E+00
        -11   -1    0    0    0    0  0.00000000000E+00  0.00000000000E+00  0.45593999997E+02  0.45594000000E+02  0.51100000000E-03 0.  1.
         11   -1    0    0    0    0 -0.00000000000E+00 -0.00000000000E+00 -0.45593999997E+02  0.45594000000E+02  0.51100000000E-03 0. -1.
    9900012    2    1    2    0    0  0.35486845786E+02 -0.24290705779E+02  0.58540372555E+01  0.47787258494E+02  0.19999942777E+02 0.  0.
        -12    1    1    2    0    0 -0.35486845786E+02  0.24290705779E+02 -0.58540372555E+01  0.43400741506E+02  0.00000000000E+00 0.  1.
         11    1    3    3    0    0  0.17771009207E+02 -0.12119362666E+02 -0.31618816255E+01  0.21741325059E+02  0.51100000000E-03 0.  1.
        -11    1    3    3    0    0  0.13663161097E+02 -0.10569230564E+02  0.14756028207E+01  0.17336897353E+02  0.51100000000E-03 0. -1.
        -12    1    3    3    0    0  0.40526754820E+01 -0.16021125499E+01  0.75403160603E+01  0.87090360818E+01  0.00000000000E+00 0.  1.
</event>
<event>
 7    1  0.2110035E-010  0.4778727E+02  0.7816164E-02  0.1312668E+00
        -11   -1    0    0    0    0  0.00000000000E+00  0.00000000000E+00  0.45593999997E+02  0.45594000000E+02  0.51100000000E-03 0. -1.
         11   -1    0    0    0    0 -0.00000000000E+00 -0.00000000000E+00 -0.45593999997E+02  0.45594000000E+02  0.51100000000E-03 0.  1.
    9900012    2    1    2    0    0 -0.30460073271E+02  0.29379951476E+02 -0.96242209885E+01  0.47787271411E+02  0.20000001671E+02 0.  0.
        -12    1    1    2    0    0  0.30460073271E+02 -0.29379951476E+02  0.96242209885E+01  0.43400728589E+02  0.00000000000E+00 0.  1.
         11    1    3    3    0    0 -0.12746406925E+02  0.48292503364E+01 -0.62463707227E+01  0.14993655184E+02  0.51100000000E-03 0. -1.
        -11    1    3    3    0    0 -0.83430138072E+01  0.14870580562E+02 -0.76094299998E+01  0.18671996970E+02  0.51100000000E-03 0.  1.
        -12    1    3    3    0    0 -0.93706525388E+01  0.96801205776E+01  0.42315797340E+01  0.14121619257E+02  0.00000000000E+00 0.  1.
</event>
<event>
 7    1  0.2110035E-010  0.4778727E+02  0.7816164E-02  0.1312668E+00
        -11   -1    0    0    0    0  0.00000000000E+00  0.00000000000E+00  0.45593999997E+02  0.45594000000E+02  0.51100000000E-03 0.  1.
         11   -1    0    0    0    0 -0.00000000000E+00 -0.00000000000E+00 -0.45593999997E+02  0.45594000000E+02  0.51100000000E-03 0. -1.
    9900012    2    1    2    0    0  0.39592180317E+02  0.12152921219E+02 -0.12976484174E+02  0.47787269846E+02  0.19999994535E+02 0.  0.
        -12    1    1    2    0    0 -0.39592180317E+02 -0.12152921219E+02  0.12976484174E+02  0.43400730154E+02  0.00000000000E+00 0.  1.
         11    1    3    3    0    0  0.24591520656E+02  0.18550798124E+01 -0.44243319782E+01  0.25055117701E+02  0.51100000000E-03 0. -1.
        -11    1    3    3    0    0  0.12037600037E+02  0.97030846463E+01 -0.20948612412E+01  0.15602631515E+02  0.51100000000E-03 0.  1.
         12    1    3    3    0    0  0.29630596231E+01  0.59475676007E+00 -0.64572909547E+01  0.71295206296E+01  0.00000000000E+00 0. -1.
</event>
<event>
 7    1  0.2110035E-010  0.4778727E+02  0.7816164E-02  0.1312668E+00
        -11   -1    0    0    0    0  0.00000000000E+00  0.00000000000E+00  0.45593999997E+02  0.45594000000E+02  0.51100000000E-03 0.  1.
         11   -1    0    0    0    0 -0.00000000000E+00 -0.00000000000E+00 -0.45593999997E+02  0.45594000000E+02  0.51100000000E-03 0. -1.
    9900012    2    1    2    0    0 -0.34483813372E+02  0.11937843022E+02 -0.23494215680E+02  0.47787266698E+02  0.19999980184E+02 0.  0.
        -12    1    1    2    0    0  0.34483813372E+02 -0.11937843022E+02  0.23494215680E+02  0.43400733302E+02  0.00000000000E+00 0.  1.
         11    1    3    3    0    0 -0.43706623529E+01  0.48088082451E+00  0.40118158969E+00  0.44153009750E+01  0.51100000000E-03 0. -1.
        -11    1    3    3    0    0 -0.28360103193E+01  0.63778545135E+01 -0.36121184160E+00  0.69893101936E+01  0.51100000000E-03 0.  1.
         12    1    3    3    0    0 -0.27277140700E+02  0.50791076844E+01 -0.23534185428E+02  0.36382655530E+02  0.00000000000E+00 0. -1.
</event>
<event>
 7    1  0.2110035E-010  0.4778727E+02  0.7816164E-02  0.1312668E+00
        -11   -1    0    0    0    0  0.00000000000E+00  0.00000000000E+00  0.45593999997E+02  0.45594000000E+02  0.51100000000E-03 0. -1.
         11   -1    0    0    0    0 -0.00000000000E+00 -0.00000000000E+00 -0.45593999997E+02  0.45594000000E+02  0.51100000000E-03 0.  1.
    9900012    2    1    2    0    0 -0.36867319940E+02  0.83878723234E+01  0.21308860115E+02  0.47787271883E+02  0.20000003824E+02 0.  0.
        -12    1    1    2    0    0  0.36867319940E+02 -0.83878723234E+01 -0.21308860115E+02  0.43400728117E+02  0.00000000000E+00 0.  1.
         11    1    3    3    0    0 -0.26390573072E+02  0.22318968024E+00  0.70828794643E+01  0.27325433985E+02  0.51100000000E-03 0. -1.
        -11    1    3    3    0    0 -0.24830704190E+00  0.10795773161E+00  0.37242303763E+01  0.37340599105E+01  0.51100000000E-03 0.  1.
        -12    1    3    3    0    0 -0.10228439826E+02  0.80567249115E+01  0.10501750275E+02  0.16727777988E+02  0.00000000000E+00 0.  1.
</event>
<event>
 7    1  0.2110035E-010  0.4778727E+02  0.7816164E-02  0.1312668E+00
        -11   -1    0    0    0    0  0.00000000000E+00  0.00000000000E+00  0.45593999997E+02  0.45594000000E+02  0.51100000000E-03 0. -1.
         11   -1    0    0    0    0 -0.00000000000E+00 -0.00000000000E+00 -0.45593999997E+02  0.45594000000E+02  0.51100000000E-03 0.  1.
    9900012    2    1    2    0    0 -0.30385816553E+00  0.22450302660E+02  0.37141822907E+02  0.47787269267E+02  0.19999991896E+02 0.  0.
        -12    1    1    2    0    0  0.30385816553E+00 -0.22450302660E+02 -0.37141822907E+02  0.43400730733E+02  0.00000000000E+00 0.  1.
         11    1    3    3    0    0  0.53853115971E+01  0.10947961626E+02  0.19351750246E+02  0.22876837251E+02  0.51100000000E-03 0. -1.
        -11    1    3    3    0    0 -0.82588748517E+00  0.69842232184E+01  0.13236867082E+01  0.71563685529E+01  0.51100000000E-03 0.  1.
        -12    1    3    3    0    0 -0.48632822775E+01  0.45181178156E+01  0.16466385953E+02  0.17754063463E+02  0.00000000000E+00 0.  1.
</event>
<event>
 7    1  0.2110035E-010  0.4778726E+02  0.7816164E-02  0.1312668E+00
        -11   -1    0    0    0    0  0.00000000000E+00  0.00000000000E+00  0.45593999997E+02  0.45594000000E+02  0.51100000000E-03 0.  1.
         11   -1    0    0    0    0 -0.00000000000E+00 -0.00000000000E+00 -0.45593999997E+02  0.45594000000E+02  0.51100000000E-03 0. -1.
    9900012    2    1    2    0    0 -0.32864739779E+02 -0.11555644399E+02 -0.25884353891E+02  0.47787264815E+02  0.19999971597E+02 0.  0.
        -12    1    1    2    0    0  0.32864739779E+02  0.11555644399E+02  0.25884353891E+02  0.43400735185E+02  0.00000000000E+00 0.  1.
         11    1    3    3    0    0 -0.93991364153E+01 -0.47795841306E+01 -0.14933638938E+02  0.18281186012E+02  0.51100000000E-03 0. -1.
        -11    1    3    3    0    0 -0.21587720357E+02 -0.91792164594E+01 -0.11910591308E+02  0.26308741334E+02  0.51100000000E-03 0.  1.
        -12    1    3    3    0    0 -0.18778830070E+01  0.24031561911E+01  0.95987635547E+00  0.31973374681E+01  0.00000000000E+00 0.  1.
</event>
<event>
 7    1  0.2110035E-010  0.4778727E+02  0.7816164E-02  0.1312668E+00
        -11   -1    0    0    0    0  0.00000000000E+00  0.00000000000E+00  0.45593999997E+02  0.45594000000E+02  0.51100000000E-03 0.  1.
         11   -1    0    0    0    0 -0.00000000000E+00 -0.00000000000E+00 -0.45593999997E+02  0.45594000000E+02  0.51100000000E-03 0. -1.
    9900012    2    1    2    0    0  0.17638272580E+02  0.19424794612E+02 -0.34571549619E+02  0.47787270186E+02  0.19999996087E+02 0.  0.
        -12    1    1    2    0    0 -0.17638272580E+02 -0.19424794612E+02  0.34571549619E+02  0.43400729814E+02  0.00000000000E+00 0.  1.
         11    1    3    3    0    0  0.15213216795E+02  0.30915776538E+01 -0.16852852977E+02  0.22913281549E+02  0.51100000000E-03 0. -1.
        -11    1    3    3    0    0  0.14135933853E+01  0.32410528326E+01 -0.73012578493E+01  0.81124001483E+01  0.51100000000E-03 0.  1.
        -12    1    3    3    0    0  0.10114624004E+01  0.13092164125E+02 -0.10417438792E+02  0.16761588489E+02  0.00000000000E+00 0.  1.
</event>
<event>
 7    1  0.2110035E-010  0.4778727E+02  0.7816164E-02  0.1312668E+00
        -11   -1    0    0    0    0  0.00000000000E+00  0.00000000000E+00  0.45593999997E+02  0.45594000000E+02  0.51100000000E-03 0.  1.
         11   -1    0    0    0    0 -0.00000000000E+00 -0.00000000000E+00 -0.45593999997E+02  0.45594000000E+02  0.51100000000E-03 0. -1.
    9900012    2    1    2    0    0 -0.14102382526E+02  0.12584979798E+02 -0.39068712016E+02  0.47787272264E+02  0.20000005560E+02 0.  0.
        -12    1    1    2    0    0  0.14102382526E+02 -0.12584979798E+02  0.39068712016E+02  0.43400727736E+02  0.00000000000E+00 0.  1.
         11    1    3    3    0    0 -0.36304870575E+01  0.68131300492E+01 -0.17304523069E+02  0.18948501161E+02  0.51100000000E-03 0. -1.
        -11    1    3    3    0    0  0.19697302399E+01 -0.30671005742E+01 -0.37700429992E+01  0.52440602234E+01  0.51100000000E-03 0.  1.
         12    1    3    3    0    0 -0.12441625708E+02  0.88389503230E+01 -0.17994145948E+02  0.23594710879E+02  0.00000000000E+00 0. -1.
</event>
<event>
 7    1  0.2110035E-010  0.4778731E+02  0.7816164E-02  0.1312668E+00
        -11   -1    0    0    0    0  0.00000000000E+00  0.00000000000E+00  0.45593999997E+02  0.45594000000E+02  0.51100000000E-03 0.  1.
         11   -1    0    0    0    0 -0.00000000000E+00 -0.00000000000E+00 -0.45593999997E+02  0.45594000000E+02  0.51100000000E-03 0. -1.
    9900012    2    1    2    0    0  0.11297437546E+02  0.14109562674E+02 -0.39457673425E+02  0.47787310535E+02  0.20000180053E+02 0.  0.
        -12    1    1    2    0    0 -0.11297437546E+02 -0.14109562674E+02  0.39457673425E+02  0.43400689465E+02  0.00000000000E+00 0.  1.
         11    1    3    3    0    0  0.71364685281E+01  0.39252058158E+01 -0.44251802619E+01  0.92692310555E+01  0.51100000000E-03 0. -1.
        -11    1    3    3    0    0 -0.54189575871E+00 -0.71156863904E+00  0.52178172760E+00  0.10354889540E+01  0.51100000000E-03 0.  1.
         12    1    3    3    0    0  0.47028647766E+01  0.10895925497E+02 -0.35554274890E+02  0.37482590526E+02  0.00000000000E+00 0. -1.
</event>
<event>
 7    1  0.2110035E-010  0.4778727E+02  0.7816164E-02  0.1312668E+00
        -11   -1    0    0    0    0  0.00000000000E+00  0.00000000000E+00  0.45593999997E+02  0.45594000000E+02  0.51100000000E-03 0. -1.
         11   -1    0    0    0    0 -0.00000000000E+00 -0.00000000000E+00 -0.45593999997E+02  0.45594000000E+02  0.51100000000E-03 0.  1.
    9900012    2    1    2    0    0 -0.23117470655E+02 -0.12827977418E+02  0.34418728415E+02  0.47787270515E+02  0.19999997585E+02 0.  0.
        -12    1    1    2    0    0  0.23117470655E+02  0.12827977418E+02 -0.34418728415E+02  0.43400729485E+02  0.00000000000E+00 0.  1.
         11    1    3    3    0    0 -0.22069287256E+02 -0.80742091330E+01  0.29384169179E+02  0.37625466000E+02  0.51100000000E-03 0. -1.
        -11    1    3    3    0    0 -0.13212598655E+01  0.11005410862E+01 -0.79596057457E+00  0.18948540345E+01  0.51100000000E-03 0.  1.
        -12    1    3    3    0    0  0.27307646679E+00 -0.58543093716E+01  0.58305198105E+01  0.82669504799E+01  0.00000000000E+00 0.  1.
</event>
<event>
 7    1  0.2110035E-010  0.4778727E+02  0.7816164E-02  0.1312668E+00
        -11   -1    0    0    0    0  0.00000000000E+00  0.00000000000E+00  0.45593999997E+02  0.45594000000E+02  0.51100000000E-03 0.  1.
         11   -1    0    0    0    0 -0.00000000000E+00 -0.00000000000E+00 -0.45593999997E+02  0.45594000000E+02  0.51100000000E-03 0. -1.
    9900012    2    1    2    0    0  0.56122541299E+01 -0.40151522645E+02 -0.15491328088E+02  0.47787269441E+02  0.19999992691E+02 0.  0.
        -12    1    1    2    0    0 -0.56122541299E+01  0.40151522645E+02  0.15491328088E+02  0.43400730559E+02  0.00000000000E+00 0.  1.
         11    1    3    3    0    0  0.36108505283E+01 -0.12961042095E+02 -0.68242552183E+01  0.15086328688E+02  0.51100000000E-03 0. -1.
        -11    1    3    3    0    0 -0.69126255801E+01 -0.10709234930E+02 -0.43929320478E+01  0.13482208923E+02  0.51100000000E-03 0.  1.
         12    1    3    3    0    0  0.89140291818E+01 -0.16481245620E+02 -0.42741408215E+01  0.19218731831E+02  0.00000000000E+00 0. -1.
</event>
<event>
 7    1  0.2110035E-010  0.4778727E+02  0.7816164E-02  0.1312668E+00
        -11   -1    0    0    0    0  0.00000000000E+00  0.00000000000E+00  0.45593999997E+02  0.45594000000E+02  0.51100000000E-03 0.  1.
         11   -1    0    0    0    0 -0.00000000000E+00 -0.00000000000E+00 -0.45593999997E+02  0.45594000000E+02  0.51100000000E-03 0. -1.
    9900012    2    1    2    0    0 -0.42727170448E+02  0.61510036450E+01  0.44919084505E+01  0.47787272104E+02  0.20000004832E+02 0.  0.
        -12    1    1    2    0    0  0.42727170448E+02 -0.61510036450E+01 -0.44919084505E+01  0.43400727896E+02  0.00000000000E+00 0.  1.
         11    1    3    3    0    0 -0.12786737369E+02  0.35321161860E+01 -0.67013484836E+01  0.14862185877E+02  0.51100000000E-03 0. -1.
        -11    1    3    3    0    0 -0.13858808743E+02 -0.18118538540E+01  0.28110617997E+01  0.14256628734E+02  0.51100000000E-03 0.  1.
        -12    1    3    3    0    0 -0.16081624337E+02  0.44307413129E+01  0.83821951344E+01  0.18668457493E+02  0.00000000000E+00 0.  1.
</event>
<event>
 7    1  0.2110035E-010  0.4778727E+02  0.7816164E-02  0.1312668E+00
        -11   -1    0    0    0    0  0.00000000000E+00  0.00000000000E+00  0.45593999997E+02  0.45594000000E+02  0.51100000000E-03 0. -1.
         11   -1    0    0    0    0 -0.00000000000E+00 -0.00000000000E+00 -0.45593999997E+02  0.45594000000E+02  0.51100000000E-03 0.  1.
    9900012    2    1    2    0    0  0.21336129415E+02 -0.17943709591E+01  0.37751464110E+02  0.47787271573E+02  0.20000002408E+02 0.  0.
        -12    1    1    2    0    0 -0.21336129415E+02  0.17943709591E+01 -0.37751464110E+02  0.43400728427E+02  0.00000000000E+00 0.  1.
         11    1    3    3    0    0  0.49086531946E+01 -0.64026581668E+01  0.12556759238E+02  0.14925183771E+02  0.51100000000E-03 0. -1.
        -11    1    3    3    0    0  0.12611151253E+02  0.24246410976E+00  0.85551214393E+01  0.15241063870E+02  0.51100000000E-03 0.  1.
        -12    1    3    3    0    0  0.38163249677E+01  0.43658230979E+01  0.16639583433E+02  0.17621023932E+02  0.00000000000E+00 0.  1.
</event>
<event>
 7    1  0.2110035E-010  0.4778727E+02  0.7816164E-02  0.1312668E+00
        -11   -1    0    0    0    0  0.00000000000E+00  0.00000000000E+00  0.45593999997E+02  0.45594000000E+02  0.51100000000E-03 0.  1.
         11   -1    0    0    0    0 -0.00000000000E+00 -0.00000000000E+00 -0.45593999997E+02  0.45594000000E+02  0.51100000000E-03 0. -1.
    9900012    2    1    2    0    0 -0.42733098529E+00 -0.17286391469E+02 -0.39807304996E+02  0.47787268752E+02  0.19999989549E+02 0.  0.
        -12    1    1    2    0    0  0.42733098529E+00  0.17286391469E+02  0.39807304996E+02  0.43400731248E+02  0.00000000000E+00 0.  1.
         11    1    3    3    0    0  0.85729396810E+00 -0.16245591785E+01 -0.12141608929E+02  0.12279772519E+02  0.51100000000E-03 0. -1.
        -11    1    3    3    0    0  0.13657142343E+01 -0.24494213213E+01  0.16423043087E+01  0.32499236734E+01  0.51100000000E-03 0.  1.
        -12    1    3    3    0    0 -0.26503391877E+01 -0.13212410969E+02 -0.29308000376E+02  0.32257572560E+02  0.00000000000E+00 0.  1.
</event>
<event>
 7    1  0.2110035E-010  0.4778727E+02  0.7816164E-02  0.1312668E+00
        -11   -1    0    0    0    0  0.00000000000E+00  0.00000000000E+00  0.45593999997E+02  0.45594000000E+02  0.51100000000E-03 0.  1.
         11   -1    0    0    0    0 -0.00000000000E+00 -0.00000000000E+00 -0.45593999997E+02  0.45594000000E+02  0.51100000000E-03 0. -1.
    9900012    2    1    2    0    0  0.12398623448E+02  0.27615877689E+02 -0.31100818625E+02  0.47787268634E+02  0.19999989011E+02 0.  0.
        -12    1    1    2    0    0 -0.12398623448E+02 -0.27615877689E+02  0.31100818625E+02  0.43400731366E+02  0.00000000000E+00 0.  1.
         11    1    3    3    0    0  0.71139972876E+01  0.10790168109E+02 -0.12185901505E+02  0.17763245226E+02  0.51100000000E-03 0. -1.
        -11    1    3    3    0    0 -0.10762171950E+01  0.95613480203E+01 -0.10010711852E+01  0.96736633803E+01  0.51100000000E-03 0.  1.
        -12    1    3    3    0    0  0.63608433551E+01  0.72643615599E+01 -0.17913845935E+02  0.20350360027E+02  0.00000000000E+00 0.  1.
</event>
<event>
 7    1  0.2110035E-010  0.4778727E+02  0.7816164E-02  0.1312668E+00
        -11   -1    0    0    0    0  0.00000000000E+00  0.00000000000E+00  0.45593999997E+02  0.45594000000E+02  0.51100000000E-03 0. -1.
         11   -1    0    0    0    0 -0.00000000000E+00 -0.00000000000E+00 -0.45593999997E+02  0.45594000000E+02  0.51100000000E-03 0.  1.
    9900012    2    1    2    0    0 -0.22241106829E+02 -0.32736111565E+02  0.17813013609E+02  0.47787270891E+02  0.19999999299E+02 0.  0.
        -12    1    1    2    0    0  0.22241106829E+02  0.32736111565E+02 -0.17813013609E+02  0.43400729109E+02  0.00000000000E+00 0.  1.
         11    1    3    3    0    0  0.14502395522E+00 -0.12487398179E+02  0.50499009947E+00  0.12498446323E+02  0.51100000000E-03 0.  1.
        -11    1    3    3    0    0 -0.89080572849E+00 -0.16765478236E+01  0.28221088723E+01  0.34012712622E+01  0.51100000000E-03 0. -1.
        -12    1    3    3    0    0 -0.21495325056E+02 -0.18572165563E+02  0.14485914637E+02  0.31887553306E+02  0.00000000000E+00 0.  1.
</event>
<event>
 7    1  0.2110035E-010  0.4778727E+02  0.7816164E-02  0.1312668E+00
        -11   -1    0    0    0    0  0.00000000000E+00  0.00000000000E+00  0.45593999997E+02  0.45594000000E+02  0.51100000000E-03 0.  1.
         11   -1    0    0    0    0 -0.00000000000E+00 -0.00000000000E+00 -0.45593999997E+02  0.45594000000E+02  0.51100000000E-03 0. -1.
    9900012    2    1    2    0    0  0.23473600395E+02 -0.33417904690E+02 -0.14692079745E+02  0.47787268709E+02  0.19999989352E+02 0.  0.
        -12    1    1    2    0    0 -0.23473600395E+02  0.33417904690E+02  0.14692079745E+02  0.43400731291E+02  0.00000000000E+00 0.  1.
         11    1    3    3    0    0  0.31155069232E+01 -0.10079803051E+02  0.32904126230E+01  0.11051498922E+02  0.51100000000E-03 0. -1.
        -11    1    3    3    0    0 -0.90476337602E-01 -0.21092643839E+01  0.17159651593E+00  0.21181661489E+01  0.51100000000E-03 0.  1.
        -12    1    3    3    0    0  0.20448569809E+02 -0.21228837255E+02 -0.18154088884E+02  0.34617603638E+02  0.00000000000E+00 0.  1.
</event>
<event>
 7    1  0.2110035E-010  0.4778727E+02  0.7816164E-02  0.1312668E+00
        -11   -1    0    0    0    0  0.00000000000E+00  0.00000000000E+00  0.45593999997E+02  0.45594000000E+02  0.51100000000E-03 0. -1.
         11   -1    0    0    0    0 -0.00000000000E+00 -0.00000000000E+00 -0.45593999997E+02  0.45594000000E+02  0.51100000000E-03 0.  1.
    9900012    2    1    2    0    0  0.15424349747E+02  0.39048126465E+02  0.10998027877E+02  0.47787270021E+02  0.19999995334E+02 0.  0.
        -12    1    1    2    0    0 -0.15424349747E+02 -0.39048126465E+02 -0.10998027877E+02  0.43400729979E+02  0.00000000000E+00 0.  1.
         11    1    3    3    0    0  0.68286111820E+01  0.26760781443E+02  0.35208671180E+01  0.27841800582E+02  0.51100000000E-03 0.  1.
        -11    1    3    3    0    0 -0.21316147680E+01  0.39399160442E+01  0.37742819003E+01  0.58576380972E+01  0.51100000000E-03 0. -1.
         12    1    3    3    0    0  0.10727353333E+02  0.83474289770E+01  0.37028788591E+01  0.14087831341E+02  0.00000000000E+00 0. -1.
</event>
<event>
 7    1  0.2110035E-010  0.4778730E+02  0.7816164E-02  0.1312668E+00
        -11   -1    0    0    0    0  0.00000000000E+00  0.00000000000E+00  0.45593999997E+02  0.45594000000E+02  0.51100000000E-03 0.  1.
         11   -1    0    0    0    0 -0.00000000000E+00 -0.00000000000E+00 -0.45593999997E+02  0.45594000000E+02  0.51100000000E-03 0. -1.
    9900012    2    1    2    0    0 -0.21871198801E+02  0.10223262504E+00 -0.37486808120E+02  0.47787302177E+02  0.20000141947E+02 0.  0.
        -12    1    1    2    0    0  0.21871198801E+02 -0.10223262504E+00  0.37486808120E+02  0.43400697823E+02  0.00000000000E+00 0.  1.
         11    1    3    3    0    0 -0.54869000397E+01 -0.85159441980E+01 -0.11003749723E+02  0.14956934374E+02  0.51100000000E-03 0.  1.
        -11    1    3    3    0    0 -0.98833931112E+01  0.45644201209E+01 -0.10592383414E+02  0.15189271776E+02  0.51100000000E-03 0. -1.
        -12    1    3    3    0    0 -0.65009056500E+01  0.40537567022E+01 -0.15890674982E+02  0.17641096028E+02  0.00000000000E+00 0.  1.
</event>
<event>
 7    1  0.2110035E-010  0.4778728E+02  0.7816164E-02  0.1312668E+00
        -11   -1    0    0    0    0  0.00000000000E+00  0.00000000000E+00  0.45593999997E+02  0.45594000000E+02  0.51100000000E-03 0.  1.
         11   -1    0    0    0    0 -0.00000000000E+00 -0.00000000000E+00 -0.45593999997E+02  0.45594000000E+02  0.51100000000E-03 0. -1.
    9900012    2    1    2    0    0 -0.38418487398E+02 -0.17667910520E+02 -0.97717786135E+01  0.47787275428E+02  0.20000019986E+02 0.  0.
        -12    1    1    2    0    0  0.38418487398E+02  0.17667910520E+02  0.97717786135E+01  0.43400724572E+02  0.00000000000E+00 0.  1.
         11    1    3    3    0    0 -0.11725734793E+02 -0.84335517817E+01 -0.28095733615E+01  0.14714324817E+02  0.51100000000E-03 0. -1.
        -11    1    3    3    0    0 -0.25385459800E+02 -0.26240804192E+01 -0.64015943969E+01  0.26311362154E+02  0.51100000000E-03 0.  1.
        -12    1    3    3    0    0 -0.13072928051E+01 -0.66102783187E+01 -0.56061085511E+00  0.67615884569E+01  0.00000000000E+00 0.  1.
</event>
<event>
 7    1  0.2110035E-010  0.4778727E+02  0.7816164E-02  0.1312668E+00
        -11   -1    0    0    0    0  0.00000000000E+00  0.00000000000E+00  0.45593999997E+02  0.45594000000E+02  0.51100000000E-03 0.  1.
         11   -1    0    0    0    0 -0.00000000000E+00 -0.00000000000E+00 -0.45593999997E+02  0.45594000000E+02  0.51100000000E-03 0. -1.
    9900012    2    1    2    0    0  0.30427381237E+02 -0.87597591631E+01 -0.29682728754E+02  0.47787270792E+02  0.19999998848E+02 0.  0.
        -12    1    1    2    0    0 -0.30427381237E+02  0.87597591631E+01  0.29682728754E+02  0.43400729208E+02  0.00000000000E+00 0.  1.
         11    1    3    3    0    0  0.28070970619E+02 -0.32929081697E+01 -0.29821056538E+02  0.41086713777E+02  0.51100000000E-03 0. -1.
        -11    1    3    3    0    0  0.21983147398E+01 -0.39589822663E+01 -0.11929780794E+01  0.46828757446E+01  0.51100000000E-03 0.  1.
         12    1    3    3    0    0  0.15809587750E+00 -0.15078687271E+01  0.13313058635E+01  0.20176812698E+01  0.00000000000E+00 0. -1.
</event>
<event>
 7    1  0.2110035E-010  0.4778730E+02  0.7816164E-02  0.1312668E+00
        -11   -1    0    0    0    0  0.00000000000E+00  0.00000000000E+00  0.45593999997E+02  0.45594000000E+02  0.51100000000E-03 0. -1.
         11   -1    0    0    0    0 -0.00000000000E+00 -0.00000000000E+00 -0.45593999997E+02  0.45594000000E+02  0.51100000000E-03 0.  1.
    9900012    2    1    2    0    0  0.38964840895E+02  0.19024797271E+02  0.18489576562E+01  0.47787304366E+02  0.20000151924E+02 0.  0.
        -12    1    1    2    0    0 -0.38964840895E+02 -0.19024797271E+02 -0.18489576562E+01  0.43400695634E+02  0.00000000000E+00 0.  1.
         11    1    3    3    0    0  0.99083649369E+01  0.65632212979E+01  0.30267344669E+01  0.12264285194E+02  0.51100000000E-03 0. -1.
        -11    1    3    3    0    0  0.29873484171E+02  0.14371643807E+02 -0.32376973368E-01  0.33150720215E+02  0.51100000000E-03 0.  1.
        -12    1    3    3    0    0 -0.81700821373E+00 -0.19100678339E+01 -0.11453998373E+01  0.23722989564E+01  0.00000000000E+00 0.  1.
</event>
<event>
 7    1  0.2110035E-010  0.4778727E+02  0.7816164E-02  0.1312668E+00
        -11   -1    0    0    0    0  0.00000000000E+00  0.00000000000E+00  0.45593999997E+02  0.45594000000E+02  0.51100000000E-03 0. -1.
         11   -1    0    0    0    0 -0.00000000000E+00 -0.00000000000E+00 -0.45593999997E+02  0.45594000000E+02  0.51100000000E-03 0.  1.
    9900012    2    1    2    0    0 -0.36822851054E+02  0.22305896285E+02  0.54907201232E+01  0.47787269864E+02  0.19999994619E+02 0.  0.
        -12    1    1    2    0    0  0.36822851054E+02 -0.22305896285E+02 -0.54907201232E+01  0.43400730136E+02  0.00000000000E+00 0.  1.
         11    1    3    3    0    0 -0.89573699295E+01  0.51367065395E+01  0.93009400813E+01  0.13897039857E+02  0.51100000000E-03 0. -1.
        -11    1    3    3    0    0 -0.88554543529E+01  0.98661925753E+01 -0.57188783225E+00  0.13269810989E+02  0.51100000000E-03 0.  1.
         12    1    3    3    0    0 -0.19010026772E+02  0.73029971703E+01 -0.32383321258E+01  0.20620419018E+02  0.00000000000E+00 0. -1.
</event>
<event>
 7    1  0.2110035E-010  0.4778728E+02  0.7816164E-02  0.1312668E+00
        -11   -1    0    0    0    0  0.00000000000E+00  0.00000000000E+00  0.45593999997E+02  0.45594000000E+02  0.51100000000E-03 0.  1.
         11   -1    0    0    0    0 -0.00000000000E+00 -0.00000000000E+00 -0.45593999997E+02  0.45594000000E+02  0.51100000000E-03 0. -1.
    9900012    2    1    2    0    0  0.38810343958E+02  0.93305994127E+01 -0.17038763195E+02  0.47787281863E+02  0.20000049328E+02 0.  0.
        -12    1    1    2    0    0 -0.38810343958E+02 -0.93305994127E+01  0.17038763195E+02  0.43400718137E+02  0.00000000000E+00 0.  1.
         11    1    3    3    0    0  0.34611775560E+02  0.33233743393E+01 -0.13620537716E+02  0.37343525173E+02  0.51100000000E-03 0. -1.
        -11    1    3    3    0    0  0.59209796249E+01  0.54775975219E+01 -0.28310792572E+01  0.85485135756E+01  0.51100000000E-03 0.  1.
        -12    1    3    3    0    0 -0.17224112267E+01  0.52962755156E+00 -0.58714622172E+00  0.18952431145E+01  0.00000000000E+00 0.  1.
</event>
<event>
 7    1  0.2110035E-010  0.4778727E+02  0.7816164E-02  0.1312668E+00
        -11   -1    0    0    0    0  0.00000000000E+00  0.00000000000E+00  0.45593999997E+02  0.45594000000E+02  0.51100000000E-03 0. -1.
         11   -1    0    0    0    0 -0.00000000000E+00 -0.00000000000E+00 -0.45593999997E+02  0.45594000000E+02  0.51100000000E-03 0.  1.
    9900012    2    1    2    0    0 -0.18594529387E+02  0.38425018968E+02  0.78348451506E+01  0.47787269541E+02  0.19999993146E+02 0.  0.
        -12    1    1    2    0    0  0.18594529387E+02 -0.38425018968E+02 -0.78348451506E+01  0.43400730459E+02  0.00000000000E+00 0.  1.
         11    1    3    3    0    0 -0.20713843393E+01  0.12359213613E+02  0.17819992760E+01  0.12657658389E+02  0.51100000000E-03 0. -1.
        -11    1    3    3    0    0  0.83437406525E+00  0.77417530373E+00 -0.29490869060E+01  0.31611139369E+01  0.51100000000E-03 0.  1.
         12    1    3    3    0    0 -0.17357519113E+02  0.25291630052E+02  0.90019327805E+01  0.31968497216E+02  0.00000000000E+00 0. -1.
</event>
<event>
 7    1  0.2110035E-010  0.4778727E+02  0.7816164E-02  0.1312668E+00
        -11   -1    0    0    0    0  0.00000000000E+00  0.00000000000E+00  0.45593999997E+02  0.45594000000E+02  0.51100000000E-03 0.  1.
         11   -1    0    0    0    0 -0.00000000000E+00 -0.00000000000E+00 -0.45593999997E+02  0.45594000000E+02  0.51100000000E-03 0. -1.
    9900012    2    1    2    0    0  0.19002372819E+02 -0.28870526568E+02 -0.26249296933E+02  0.47787273433E+02  0.20000010890E+02 0.  0.
        -12    1    1    2    0    0 -0.19002372819E+02  0.28870526568E+02  0.26249296933E+02  0.43400726567E+02  0.00000000000E+00 0.  1.
         11    1    3    3    0    0  0.61294658991E+01 -0.12001343968E+02 -0.40291796263E+01  0.14065450507E+02  0.51100000000E-03 0.  1.
        -11    1    3    3    0    0  0.70618890327E+00  0.21791010486E+01 -0.43205618005E+01  0.48902391230E+01  0.51100000000E-03 0. -1.
         12    1    3    3    0    0  0.12166718017E+02 -0.19048283648E+02 -0.17899555507E+02  0.28831583803E+02  0.00000000000E+00 0. -1.
</event>
<event>
 7    1  0.2110035E-010  0.4778727E+02  0.7816164E-02  0.1312668E+00
        -11   -1    0    0    0    0  0.00000000000E+00  0.00000000000E+00  0.45593999997E+02  0.45594000000E+02  0.51100000000E-03 0.  1.
         11   -1    0    0    0    0 -0.00000000000E+00 -0.00000000000E+00 -0.45593999997E+02  0.45594000000E+02  0.51100000000E-03 0. -1.
    9900012    2    1    2    0    0  0.30105459626E+01 -0.27284039637E+02 -0.33617570962E+02  0.47787270936E+02  0.19999999506E+02 0.  0.
        -12    1    1    2    0    0 -0.30105459626E+01  0.27284039637E+02  0.33617570962E+02  0.43400729064E+02  0.00000000000E+00 0.  1.
         11    1    3    3    0    0  0.51590349156E+01 -0.19004298777E+01 -0.85492308729E+01  0.10164478529E+02  0.51100000000E-03 0. -1.
        -11    1    3    3    0    0 -0.13608712863E+01 -0.10904916450E+02 -0.33129667210E+01  0.11478019088E+02  0.51100000000E-03 0.  1.
        -12    1    3    3    0    0 -0.78761766673E+00 -0.14478693310E+02 -0.21755373368E+02  0.26144773319E+02  0.00000000000E+00 0.  1.
</event>
<event>
 7    1  0.2451902E-010  0.4778728E+02  0.7816164E-02  0.1312668E+00
        -11   -1    0    0    0    0  0.00000000000E+00  0.00000000000E+00  0.45593999997E+02  0.45594000000E+02  0.51100000000E-03 0. -1.
         11   -1    0    0    0    0 -0.00000000000E+00 -0.00000000000E+00 -0.45593999997E+02  0.45594000000E+02  0.51100000000E-03 0.  1.
    9900012    2    1    2    0    0  0.15948770910E+02  0.31269364714E+02  0.25524229230E+02  0.47787277184E+02  0.20000027994E+02 0.  0.
        -12    1    1    2    0    0 -0.15948770910E+02 -0.31269364714E+02 -0.25524229230E+02  0.43400722816E+02  0.00000000000E+00 0.  1.
         11    1    3    3    0    0  0.41313241607E+00  0.92239093282E+01  0.87249616556E+01  0.12703390801E+02  0.51100000000E-03 0. -1.
        -11    1    3    3    0    0  0.12593328351E+02  0.12318397517E+02  0.28808312901E+01  0.17850322841E+02  0.51100000000E-03 0.  1.
        -12    1    3    3    0    0  0.29423101423E+01  0.97270578688E+01  0.13918436284E+02  0.17233563542E+02  0.00000000000E+00 0.  1.
</event>
<event>
 7    1  0.2110035E-010  0.4778727E+02  0.7816164E-02  0.1312668E+00
        -11   -1    0    0    0    0  0.00000000000E+00  0.00000000000E+00  0.45593999997E+02  0.45594000000E+02  0.51100000000E-03 0.  1.
         11   -1    0    0    0    0 -0.00000000000E+00 -0.00000000000E+00 -0.45593999997E+02  0.45594000000E+02  0.51100000000E-03 0. -1.
    9900012    2    1    2    0    0 -0.24496645978E+02  0.33045497846E+02 -0.13839526751E+02  0.47787273131E+02  0.20000009512E+02 0.  0.
        -12    1    1    2    0    0  0.24496645978E+02 -0.33045497846E+02  0.13839526751E+02  0.43400726869E+02  0.00000000000E+00 0.  1.
         11    1    3    3    0    0 -0.54017971339E+00  0.59000608549E+01 -0.52223437961E+01  0.78978090126E+01  0.51100000000E-03 0. -1.
        -11    1    3    3    0    0 -0.14961128743E+02  0.65372950523E+01 -0.52663831054E+01  0.17155360420E+02  0.51100000000E-03 0.  1.
         12    1    3    3    0    0 -0.89953375213E+01  0.20608141939E+02 -0.33507998499E+01  0.22734103698E+02  0.00000000000E+00 0. -1.
</event>
<event>
 7    1  0.2110035E-010  0.4778727E+02  0.7816164E-02  0.1312668E+00
        -11   -1    0    0    0    0  0.00000000000E+00  0.00000000000E+00  0.45593999997E+02  0.45594000000E+02  0.51100000000E-03 0. -1.
         11   -1    0    0    0    0 -0.00000000000E+00 -0.00000000000E+00 -0.45593999997E+02  0.45594000000E+02  0.51100000000E-03 0.  1.
    9900012    2    1    2    0    0 -0.36184280240E+01  0.29753069934E+02  0.31389248865E+02  0.47787272631E+02  0.20000007233E+02 0.  0.
        -12    1    1    2    0    0  0.36184280240E+01 -0.29753069934E+02 -0.31389248865E+02  0.43400727369E+02  0.00000000000E+00 0.  1.
         11    1    3    3    0    0 -0.20955111299E+01  0.37649210271E+01  0.90221865880E+01  0.99982822688E+01  0.51100000000E-03 0. -1.
        -11    1    3    3    0    0 -0.56420940850E+01  0.98727610082E+01  0.16725294269E+02  0.20224739905E+02  0.51100000000E-03 0.  1.
         12    1    3    3    0    0  0.41191771910E+01  0.16115387899E+02  0.56417680081E+01  0.17564250457E+02  0.00000000000E+00 0. -1.
</event>
<event>
 7    1  0.2110035E-010  0.4778727E+02  0.7816164E-02  0.1312668E+00
        -11   -1    0    0    0    0  0.00000000000E+00  0.00000000000E+00  0.45593999997E+02  0.45594000000E+02  0.51100000000E-03 0.  1.
         11   -1    0    0    0    0 -0.00000000000E+00 -0.00000000000E+00 -0.45593999997E+02  0.45594000000E+02  0.51100000000E-03 0. -1.
    9900012    2    1    2    0    0  0.16783931944E+01 -0.15523119642E+02 -0.40494926328E+02  0.47787270681E+02  0.19999998343E+02 0.  0.
        -12    1    1    2    0    0 -0.16783931944E+01  0.15523119642E+02  0.40494926328E+02  0.43400729319E+02  0.00000000000E+00 0.  1.
         11    1    3    3    0    0  0.52444331141E+01 -0.95385938476E+01 -0.92800397738E+01  0.14304124920E+02  0.51100000000E-03 0. -1.
        -11    1    3    3    0    0 -0.25290908245E+00 -0.77278915530E+01 -0.25538611623E+02  0.26683420972E+02  0.51100000000E-03 0.  1.
        -12    1    3    3    0    0 -0.33131308372E+01  0.17433657587E+01 -0.56762749307E+01  0.67997247887E+01  0.00000000000E+00 0.  1.
</event>
<event>
 7    1  0.2110035E-010  0.4778727E+02  0.7816164E-02  0.1312668E+00
        -11   -1    0    0    0    0  0.00000000000E+00  0.00000000000E+00  0.45593999997E+02  0.45594000000E+02  0.51100000000E-03 0.  1.
         11   -1    0    0    0    0 -0.00000000000E+00 -0.00000000000E+00 -0.45593999997E+02  0.45594000000E+02  0.51100000000E-03 0. -1.
    9900012    2    1    2    0    0 -0.26145414407E+02  0.15324248068E+02 -0.31067796782E+02  0.47787271086E+02  0.20000000192E+02 0.  0.
        -12    1    1    2    0    0  0.26145414407E+02 -0.15324248068E+02  0.31067796782E+02  0.43400728914E+02  0.00000000000E+00 0.  1.
         11    1    3    3    0    0 -0.57254662523E+01  0.19094649253E+01 -0.11845641332E+02  0.13294594350E+02  0.51100000000E-03 0. -1.
        -11    1    3    3    0    0 -0.89084293424E+01  0.13768130292E+01 -0.14682755291E+02  0.17229017112E+02  0.51100000000E-03 0.  1.
        -12    1    3    3    0    0 -0.11511518812E+02  0.12037970114E+02 -0.45394001593E+01  0.17263659624E+02  0.00000000000E+00 0.  1.
</event>
<event>
 7    1  0.2110035E-010  0.4778727E+02  0.7816164E-02  0.1312668E+00
        -11   -1    0    0    0    0  0.00000000000E+00  0.00000000000E+00  0.45593999997E+02  0.45594000000E+02  0.51100000000E-03 0. -1.
         11   -1    0    0    0    0 -0.00000000000E+00 -0.00000000000E+00 -0.45593999997E+02  0.45594000000E+02  0.51100000000E-03 0.  1.
    9900012    2    1    2    0    0 -0.38736546458E+01  0.42268005582E+02  0.90572515800E+01  0.47787270716E+02  0.19999998504E+02 0.  0.
        -12    1    1    2    0    0  0.38736546458E+01 -0.42268005582E+02 -0.90572515800E+01  0.43400729284E+02  0.00000000000E+00 0.  1.
         11    1    3    3    0    0  0.14260922732E+01  0.13651556951E+02 -0.25661332449E+01  0.13963659493E+02  0.51100000000E-03 0. -1.
        -11    1    3    3    0    0 -0.82203637186E+01  0.24498113335E+02  0.65319512857E+01  0.26653298567E+02  0.51100000000E-03 0.  1.
        -12    1    3    3    0    0  0.29206167996E+01  0.41183352960E+01  0.50914335392E+01  0.71703126560E+01  0.00000000000E+00 0.  1.
</event>
<event>
 7    1  0.2110035E-010  0.4778727E+02  0.7816164E-02  0.1312668E+00
        -11   -1    0    0    0    0  0.00000000000E+00  0.00000000000E+00  0.45593999997E+02  0.45594000000E+02  0.51100000000E-03 0.  1.
         11   -1    0    0    0    0 -0.00000000000E+00 -0.00000000000E+00 -0.45593999997E+02  0.45594000000E+02  0.51100000000E-03 0. -1.
    9900012    2    1    2    0    0 -0.21852905225E+02  0.89274472017E+01 -0.36419420723E+02  0.47787274359E+02  0.20000015114E+02 0.  0.
        -12    1    1    2    0    0  0.21852905225E+02 -0.89274472017E+01  0.36419420723E+02  0.43400725641E+02  0.00000000000E+00 0.  1.
         11    1    3    3    0    0 -0.95357678209E+01  0.10225278727E+01 -0.84200368555E+01  0.12762188374E+02  0.51100000000E-03 0. -1.
        -11    1    3    3    0    0 -0.78143405413E+01  0.30861967309E+01 -0.26169218292E+01  0.87998186617E+01  0.51100000000E-03 0.  1.
        -12    1    3    3    0    0 -0.45027968632E+01  0.48187225981E+01 -0.25382462038E+02  0.26225267324E+02  0.00000000000E+00 0.  1.
</event>
<event>
 7    1  0.2110035E-010  0.4778727E+02  0.7816164E-02  0.1312668E+00
        -11   -1    0    0    0    0  0.00000000000E+00  0.00000000000E+00  0.45593999997E+02  0.45594000000E+02  0.51100000000E-03 0.  1.
         11   -1    0    0    0    0 -0.00000000000E+00 -0.00000000000E+00 -0.45593999997E+02  0.45594000000E+02  0.51100000000E-03 0. -1.
    9900012    2    1    2    0    0  0.23092199234E+02  0.19465818616E+02 -0.31168177973E+02  0.47787273301E+02  0.20000010289E+02 0.  0.
        -12    1    1    2    0    0 -0.23092199234E+02 -0.19465818616E+02  0.31168177973E+02  0.43400726699E+02  0.00000000000E+00 0.  1.
         11    1    3    3    0    0 -0.72120182387E+00 -0.19243600497E+01 -0.20543788248E+01  0.29058159420E+01  0.51100000000E-03 0. -1.
        -11    1    3    3    0    0  0.12420681359E+02  0.94825768987E+01 -0.65585874880E+01  0.16947202134E+02  0.51100000000E-03 0.  1.
         12    1    3    3    0    0  0.11392719699E+02  0.11907601767E+02 -0.22555211660E+02  0.27934255225E+02  0.00000000000E+00 0. -1.
</event>
<event>
 7    1  0.2110035E-010  0.4778727E+02  0.7816164E-02  0.1312668E+00
        -11   -1    0    0    0    0  0.00000000000E+00  0.00000000000E+00  0.45593999997E+02  0.45594000000E+02  0.51100000000E-03 0.  1.
         11   -1    0    0    0    0 -0.00000000000E+00 -0.00000000000E+00 -0.45593999997E+02  0.45594000000E+02  0.51100000000E-03 0. -1.
    9900012    2    1    2    0    0 -0.21925069960E+02  0.17916742383E+02 -0.32892322493E+02  0.47787271557E+02  0.20000002337E+02 0.  0.
        -12    1    1    2    0    0  0.21925069960E+02 -0.17916742383E+02  0.32892322493E+02  0.43400728443E+02  0.00000000000E+00 0.  1.
         11    1    3    3    0    0 -0.40411823215E+01  0.64015055526E+01 -0.23759838423E+01  0.79344645299E+01  0.51100000000E-03 0. -1.
        -11    1    3    3    0    0 -0.19803564541E+02  0.90341606164E+01 -0.22794277645E+02  0.31517873028E+02  0.51100000000E-03 0.  1.
         12    1    3    3    0    0  0.19196769029E+01  0.24810762142E+01 -0.77220610062E+01  0.83349339995E+01  0.00000000000E+00 0. -1.
</event>
<event>
 7    1  0.2110035E-010  0.4778727E+02  0.7816164E-02  0.1312668E+00
        -11   -1    0    0    0    0  0.00000000000E+00  0.00000000000E+00  0.45593999997E+02  0.45594000000E+02  0.51100000000E-03 0. -1.
         11   -1    0    0    0    0 -0.00000000000E+00 -0.00000000000E+00 -0.45593999997E+02  0.45594000000E+02  0.51100000000E-03 0.  1.
    9900012    2    1    2    0    0  0.14540147311E+02 -0.23215590643E+02  0.33663689680E+02  0.47787268029E+02  0.19999986252E+02 0.  0.
        -12    1    1    2    0    0 -0.14540147311E+02  0.23215590643E+02 -0.33663689680E+02  0.43400731971E+02  0.00000000000E+00 0.  1.
         11    1    3    3    0    0 -0.25466653260E+01  0.17180934078E+01  0.18189134775E+01  0.35701254516E+01  0.51100000000E-03 0. -1.
        -11    1    3    3    0    0  0.55487501385E+01 -0.85956771559E+01  0.14478614124E+02  0.17728636752E+02  0.51100000000E-03 0.  1.
         12    1    3    3    0    0  0.11538062499E+02 -0.16338006895E+02  0.17366162078E+02  0.26488505825E+02  0.00000000000E+00 0. -1.
</event>
<event>
 7    1  0.2110035E-010  0.4778728E+02  0.7816164E-02  0.1312668E+00
        -11   -1    0    0    0    0  0.00000000000E+00  0.00000000000E+00  0.45593999997E+02  0.45594000000E+02  0.51100000000E-03 0. -1.
         11   -1    0    0    0    0 -0.00000000000E+00 -0.00000000000E+00 -0.45593999997E+02  0.45594000000E+02  0.51100000000E-03 0.  1.
    9900012    2    1    2    0    0 -0.45076181076E+01 -0.12485079221E+02  0.41321024748E+02  0.47787275232E+02  0.20000019094E+02 0.  0.
        -12    1    1    2    0    0  0.45076181076E+01  0.12485079221E+02 -0.41321024748E+02  0.43400724768E+02  0.00000000000E+00 0.  1.
         11    1    3    3    0    0 -0.48018088389E+01 -0.86255505272E+01  0.51141388782E+01  0.11118089168E+02  0.51100000000E-03 0. -1.
        -11    1    3    3    0    0  0.20321262453E+01 -0.14496332839E+01  0.10572428408E+02  0.10863112650E+02  0.51100000000E-03 0.  1.
         12    1    3    3    0    0 -0.17379355139E+01 -0.24098954103E+01  0.25634457461E+02  0.25806073415E+02  0.00000000000E+00 0. -1.
</event>
<event>
 7    1  0.2110035E-010  0.4778727E+02  0.7816164E-02  0.1312668E+00
        -11   -1    0    0    0    0  0.00000000000E+00  0.00000000000E+00  0.45593999997E+02  0.45594000000E+02  0.51100000000E-03 0.  1.
         11   -1    0    0    0    0 -0.00000000000E+00 -0.00000000000E+00 -0.45593999997E+02  0.45594000000E+02  0.51100000000E-03 0. -1.
    9900012    2    1    2    0    0 -0.33288814185E+02 -0.52942245446E+00 -0.27842373670E+02  0.47787271785E+02  0.20000003378E+02 0.  0.
        -12    1    1    2    0    0  0.33288814185E+02  0.52942245446E+00  0.27842373670E+02  0.43400728215E+02  0.00000000000E+00 0.  1.
         11    1    3    3    0    0 -0.37155213693E+01  0.39920930262E+01 -0.81858051472E+01  0.98361228106E+01  0.51100000000E-03 0. -1.
        -11    1    3    3    0    0  0.25399488366E+00 -0.23843533728E+01 -0.53589239480E+00  0.24569972176E+01  0.51100000000E-03 0.  1.
        -12    1    3    3    0    0 -0.29827287699E+02 -0.21371621079E+01 -0.19120676128E+02  0.35494151757E+02  0.00000000000E+00 0.  1.
</event>
<event>
 7    1  0.2110035E-010  0.4778727E+02  0.7816164E-02  0.1312668E+00
        -11   -1    0    0    0    0  0.00000000000E+00  0.00000000000E+00  0.45593999997E+02  0.45594000000E+02  0.51100000000E-03 0.  1.
         11   -1    0    0    0    0 -0.00000000000E+00 -0.00000000000E+00 -0.45593999997E+02  0.45594000000E+02  0.51100000000E-03 0. -1.
    9900012    2    1    2    0    0  0.75861460980E+01  0.24837095124E+02 -0.34773447329E+02  0.47787267910E+02  0.19999985708E+02 0.  0.
        -12    1    1    2    0    0 -0.75861460980E+01 -0.24837095124E+02  0.34773447329E+02  0.43400732090E+02  0.00000000000E+00 0.  1.
         11    1    3    3    0    0 -0.46587984473E+01  0.73529345604E+01 -0.74171107916E+01  0.11436064987E+02  0.51100000000E-03 0. -1.
        -11    1    3    3    0    0  0.93407326831E+01  0.76345960583E+01 -0.21161046859E+02  0.24358289112E+02  0.51100000000E-03 0.  1.
         12    1    3    3    0    0  0.29042118622E+01  0.98495645050E+01 -0.61952896783E+01  0.11992913811E+02  0.00000000000E+00 0. -1.
</event>
<event>
 7    1  0.2110035E-010  0.4778726E+02  0.7816164E-02  0.1312668E+00
        -11   -1    0    0    0    0  0.00000000000E+00  0.00000000000E+00  0.45593999997E+02  0.45594000000E+02  0.51100000000E-03 0.  1.
         11   -1    0    0    0    0 -0.00000000000E+00 -0.00000000000E+00 -0.45593999997E+02  0.45594000000E+02  0.51100000000E-03 0. -1.
    9900012    2    1    2    0    0  0.46223012240E+01 -0.22620990675E+02 -0.36749815704E+02  0.47787264499E+02  0.19999970156E+02 0.  0.
        -12    1    1    2    0    0 -0.46223012240E+01  0.22620990675E+02  0.36749815704E+02  0.43400735501E+02  0.00000000000E+00 0.  1.
         11    1    3    3    0    0 -0.12046166805E+01 -0.19102143347E+02 -0.24334471154E+02  0.30959804076E+02  0.51100000000E-03 0. -1.
        -11    1    3    3    0    0  0.65231223034E+01 -0.49797425999E+01 -0.12761541807E+02  0.15172538038E+02  0.51100000000E-03 0.  1.
        -12    1    3    3    0    0 -0.69620439886E+00  0.14608952719E+01  0.34619725700E+00  0.16549223852E+01  0.00000000000E+00 0.  1.
</event>
<event>
 7    1  0.2110035E-010  0.4778727E+02  0.7816164E-02  0.1312668E+00
        -11   -1    0    0    0    0  0.00000000000E+00  0.00000000000E+00  0.45593999997E+02  0.45594000000E+02  0.51100000000E-03 0.  1.
         11   -1    0    0    0    0 -0.00000000000E+00 -0.00000000000E+00 -0.45593999997E+02  0.45594000000E+02  0.51100000000E-03 0. -1.
    9900012    2    1    2    0    0 -0.76732540939E+01  0.25965878143E+02 -0.33919282590E+02  0.47787269734E+02  0.19999994027E+02 0.  0.
        -12    1    1    2    0    0  0.76732540939E+01 -0.25965878143E+02  0.33919282590E+02  0.43400730266E+02  0.00000000000E+00 0.  1.
         11    1    3    3    0    0 -0.52422533845E+01  0.21713735067E+02 -0.21531895488E+02  0.31025635122E+02  0.51100000000E-03 0. -1.
        -11    1    3    3    0    0 -0.27571992419E+01  0.62213253218E+01 -0.13000320193E+02  0.14673628106E+02  0.51100000000E-03 0.  1.
        -12    1    3    3    0    0  0.32619853245E+00 -0.19691822458E+01  0.61293309019E+00  0.20880065069E+01  0.00000000000E+00 0.  1.
</event>
<event>
 7    1  0.2110035E-010  0.4778727E+02  0.7816164E-02  0.1312668E+00
        -11   -1    0    0    0    0  0.00000000000E+00  0.00000000000E+00  0.45593999997E+02  0.45594000000E+02  0.51100000000E-03 0.  1.
         11   -1    0    0    0    0 -0.00000000000E+00 -0.00000000000E+00 -0.45593999997E+02  0.45594000000E+02  0.51100000000E-03 0. -1.
    9900012    2    1    2    0    0 -0.38503674330E+02  0.43015836490E+01 -0.19559820270E+02  0.47787272728E+02  0.20000007674E+02 0.  0.
        -12    1    1    2    0    0  0.38503674330E+02 -0.43015836490E+01  0.19559820270E+02  0.43400727272E+02  0.00000000000E+00 0.  1.
         11    1    3    3    0    0 -0.21124840339E+02  0.52942027544E+01 -0.71131539917E+01  0.22910356220E+02  0.51100000000E-03 0. -1.
        -11    1    3    3    0    0 -0.14790692157E+01 -0.36823258232E+01  0.75145257286E+00  0.40387931914E+01  0.51100000000E-03 0.  1.
         12    1    3    3    0    0 -0.15899764775E+02  0.26897067178E+01 -0.13198118852E+02  0.20838123317E+02  0.00000000000E+00 0. -1.
</event>
<event>
 7    1  0.2110035E-010  0.4778728E+02  0.7816164E-02  0.1312668E+00
        -11   -1    0    0    0    0  0.00000000000E+00  0.00000000000E+00  0.45593999997E+02  0.45594000000E+02  0.51100000000E-03 0. -1.
         11   -1    0    0    0    0 -0.00000000000E+00 -0.00000000000E+00 -0.45593999997E+02  0.45594000000E+02  0.51100000000E-03 0.  1.
    9900012    2    1    2    0    0 -0.65457863761E+01 -0.38200225101E+01  0.42733861392E+02  0.47787276495E+02  0.20000024851E+02 0.  0.
        -12    1    1    2    0    0  0.65457863761E+01  0.38200225101E+01 -0.42733861392E+02  0.43400723505E+02  0.00000000000E+00 0.  1.
         11    1    3    3    0    0 -0.13303212339E+01 -0.49472746779E+01  0.18287472560E+02  0.18991496366E+02  0.51100000000E-03 0. -1.
        -11    1    3    3    0    0 -0.83443456808E+01  0.40634805633E+01  0.21950085412E+02  0.23831622458E+02  0.51100000000E-03 0.  1.
         12    1    3    3    0    0  0.31288805385E+01 -0.29362283955E+01  0.24963034206E+01  0.49641576710E+01  0.00000000000E+00 0. -1.
</event>
<event>
 7    1  0.2110035E-010  0.4778726E+02  0.7816164E-02  0.1312668E+00
        -11   -1    0    0    0    0  0.00000000000E+00  0.00000000000E+00  0.45593999997E+02  0.45594000000E+02  0.51100000000E-03 0. -1.
         11   -1    0    0    0    0 -0.00000000000E+00 -0.00000000000E+00 -0.45593999997E+02  0.45594000000E+02  0.51100000000E-03 0.  1.
    9900012    2    1    2    0    0  0.12787535076E+02 -0.23975115339E+02  0.33842235796E+02  0.47787261153E+02  0.19999954899E+02 0.  0.
        -12    1    1    2    0    0 -0.12787535076E+02  0.23975115339E+02 -0.33842235796E+02  0.43400738847E+02  0.00000000000E+00 0.  1.
         11    1    3    3    0    0  0.28367180008E+01 -0.88288485443E+01  0.14423910397E+01  0.93848829405E+01  0.51100000000E-03 0. -1.
        -11    1    3    3    0    0 -0.64641201464E+00 -0.65234999297E+01  0.14246815877E+02  0.15682654836E+02  0.51100000000E-03 0.  1.
        -12    1    3    3    0    0  0.10597229089E+02 -0.86227668650E+01  0.18153028880E+02  0.22719723376E+02  0.00000000000E+00 0.  1.
</event>
<event>
 7    1  0.2110035E-010  0.4778728E+02  0.7816164E-02  0.1312668E+00
        -11   -1    0    0    0    0  0.00000000000E+00  0.00000000000E+00  0.45593999997E+02  0.45594000000E+02  0.51100000000E-03 0. -1.
         11   -1    0    0    0    0 -0.00000000000E+00 -0.00000000000E+00 -0.45593999997E+02  0.45594000000E+02  0.51100000000E-03 0.  1.
    9900012    2    1    2    0    0 -0.26187471875E+02  0.20687180922E+02  0.27746703526E+02  0.47787277722E+02  0.20000030447E+02 0.  0.
        -12    1    1    2    0    0  0.26187471875E+02 -0.20687180922E+02 -0.27746703526E+02  0.43400722278E+02  0.00000000000E+00 0.  1.
         11    1    3    3    0    0 -0.41853728553E+01  0.24776859868E+01  0.69085986295E+01  0.84489649705E+01  0.51100000000E-03 0. -1.
        -11    1    3    3    0    0 -0.39523375685E+01 -0.28776427434E+01  0.47335865734E+00  0.49118091059E+01  0.51100000000E-03 0.  1.
        -12    1    3    3    0    0 -0.18049761451E+02  0.21087137678E+02  0.20364746239E+02  0.34426503646E+02  0.00000000000E+00 0.  1.
</event>
<event>
 7    1  0.2110035E-010  0.4778728E+02  0.7816164E-02  0.1312668E+00
        -11   -1    0    0    0    0  0.00000000000E+00  0.00000000000E+00  0.45593999997E+02  0.45594000000E+02  0.51100000000E-03 0.  1.
         11   -1    0    0    0    0 -0.00000000000E+00 -0.00000000000E+00 -0.45593999997E+02  0.45594000000E+02  0.51100000000E-03 0. -1.
    9900012    2    1    2    0    0 -0.60244946990E+01 -0.27362463814E+02 -0.33145491388E+02  0.47787279249E+02  0.20000037406E+02 0.  0.
        -12    1    1    2    0    0  0.60244946990E+01  0.27362463814E+02  0.33145491388E+02  0.43400720751E+02  0.00000000000E+00 0.  1.
         11    1    3    3    0    0  0.22107773465E+01 -0.43684750847E+01 -0.72198674275E+01  0.87233936615E+01  0.51100000000E-03 0. -1.
        -11    1    3    3    0    0 -0.30920618732E+00 -0.20568086402E+02 -0.15565347559E+02  0.25795771584E+02  0.51100000000E-03 0.  1.
        -12    1    3    3    0    0 -0.79260658582E+01 -0.24259023281E+01 -0.10360276401E+02  0.13268114003E+02  0.00000000000E+00 0.  1.
</event>
<event>
 7    1  0.2110035E-010  0.4778727E+02  0.7816164E-02  0.1312668E+00
        -11   -1    0    0    0    0  0.00000000000E+00  0.00000000000E+00  0.45593999997E+02  0.45594000000E+02  0.51100000000E-03 0. -1.
         11   -1    0    0    0    0 -0.00000000000E+00 -0.00000000000E+00 -0.45593999997E+02  0.45594000000E+02  0.51100000000E-03 0.  1.
    9900012    2    1    2    0    0  0.28944893970E+02 -0.15654012605E+02  0.28297853988E+02  0.47787268003E+02  0.19999986133E+02 0.  0.
        -12    1    1    2    0    0 -0.28944893970E+02  0.15654012605E+02 -0.28297853988E+02  0.43400731997E+02  0.00000000000E+00 0.  1.
         11    1    3    3    0    0  0.11416739638E+02 -0.93523310588E+01  0.18110343574E+02  0.23362204195E+02  0.51100000000E-03 0. -1.
        -11    1    3    3    0    0  0.91293734831E+01  0.28114105013E+01  0.62747634684E+01  0.11429004596E+02  0.51100000000E-03 0.  1.
         12    1    3    3    0    0  0.83987808492E+01 -0.91130920470E+01  0.39127469451E+01  0.12996059213E+02  0.00000000000E+00 0. -1.
</event>
<event>
 7    1  0.2110035E-010  0.4778727E+02  0.7816164E-02  0.1312668E+00
        -11   -1    0    0    0    0  0.00000000000E+00  0.00000000000E+00  0.45593999997E+02  0.45594000000E+02  0.51100000000E-03 0.  1.
         11   -1    0    0    0    0 -0.00000000000E+00 -0.00000000000E+00 -0.45593999997E+02  0.45594000000E+02  0.51100000000E-03 0. -1.
    9900012    2    1    2    0    0 -0.49896440044E+01  0.42821816999E+02 -0.50018508999E+01  0.47787273384E+02  0.20000010668E+02 0.  0.
        -12    1    1    2    0    0  0.49896440044E+01 -0.42821816999E+02  0.50018508999E+01  0.43400726616E+02  0.00000000000E+00 0.  1.
         11    1    3    3    0    0  0.24493395267E+01  0.33906559978E+02 -0.53738916947E+01  0.34417042085E+02  0.51100000000E-03 0. -1.
        -11    1    3    3    0    0 -0.65687758340E+01  0.95900187805E+01 -0.93455237830E+00  0.11661503530E+02  0.51100000000E-03 0.  1.
        -12    1    3    3    0    0 -0.87020769706E+00 -0.67476176036E+00  0.13065931731E+01  0.17087277692E+01  0.00000000000E+00 0.  1.
</event>
<event>
 7    1  0.2110035E-010  0.4778727E+02  0.7816164E-02  0.1312668E+00
        -11   -1    0    0    0    0  0.00000000000E+00  0.00000000000E+00  0.45593999997E+02  0.45594000000E+02  0.51100000000E-03 0.  1.
         11   -1    0    0    0    0 -0.00000000000E+00 -0.00000000000E+00 -0.45593999997E+02  0.45594000000E+02  0.51100000000E-03 0. -1.
    9900012    2    1    2    0    0  0.20624765469E+02  0.35139367299E+02  0.14948820872E+02  0.47787270394E+02  0.19999997037E+02 0.  0.
        -12    1    1    2    0    0 -0.20624765469E+02 -0.35139367299E+02 -0.14948820872E+02  0.43400729606E+02  0.00000000000E+00 0.  1.
         11    1    3    3    0    0 -0.57763445412E+00  0.16410557202E+02  0.55873794906E+01  0.17345283482E+02  0.51100000000E-03 0. -1.
        -11    1    3    3    0    0  0.11517419641E+02  0.12128774763E+02  0.83052418543E+01  0.18674452467E+02  0.51100000000E-03 0.  1.
        -12    1    3    3    0    0  0.96849802824E+01  0.66000353348E+01  0.10561995274E+01  0.11767534446E+02  0.00000000000E+00 0.  1.
</event>
<event>
 7    1  0.2110035E-010  0.4778728E+02  0.7816164E-02  0.1312668E+00
        -11   -1    0    0    0    0  0.00000000000E+00  0.00000000000E+00  0.45593999997E+02  0.45594000000E+02  0.51100000000E-03 0.  1.
         11   -1    0    0    0    0 -0.00000000000E+00 -0.00000000000E+00 -0.45593999997E+02  0.45594000000E+02  0.51100000000E-03 0. -1.
    9900012    2    1    2    0    0  0.37943959672E+01 -0.32045935023E+02  0.29022117111E+02  0.47787277957E+02  0.20000031519E+02 0.  0.
        -12    1    1    2    0    0 -0.37943959672E+01  0.32045935023E+02 -0.29022117111E+02  0.43400722043E+02  0.00000000000E+00 0.  1.
         11    1    3    3    0    0 -0.31503865805E+01 -0.32835675588E+01  0.34545091062E+01  0.57131764323E+01  0.51100000000E-03 0. -1.
        -11    1    3    3    0    0  0.11230627470E+02 -0.14098754207E+02  0.15549312563E+02  0.23805104179E+02  0.51100000000E-03 0.  1.
        -12    1    3    3    0    0 -0.42858449227E+01 -0.14663613257E+02  0.10018295442E+02  0.18268997346E+02  0.00000000000E+00 0.  1.
</event>
<event>
 7    1  0.2110035E-010  0.4778727E+02  0.7816164E-02  0.1312668E+00
        -11   -1    0    0    0    0  0.00000000000E+00  0.00000000000E+00  0.45593999997E+02  0.45594000000E+02  0.51100000000E-03 0.  1.
         11   -1    0    0    0    0 -0.00000000000E+00 -0.00000000000E+00 -0.45593999997E+02  0.45594000000E+02  0.51100000000E-03 0. -1.
    9900012    2    1    2    0    0  0.16379595052E+02 -0.35113453393E+02 -0.19554479658E+02  0.47787269385E+02  0.19999992432E+02 0.  0.
        -12    1    1    2    0    0 -0.16379595052E+02  0.35113453393E+02  0.19554479658E+02  0.43400730615E+02  0.00000000000E+00 0.  1.
         11    1    3    3    0    0  0.29433139377E+01 -0.16776989076E+02 -0.49643741754E+01  0.17741912823E+02  0.51100000000E-03 0. -1.
        -11    1    3    3    0    0 -0.14971109042E+01 -0.55474425543E+01 -0.32661228831E+00  0.57551833855E+01  0.51100000000E-03 0.  1.
         12    1    3    3    0    0  0.14933392018E+02 -0.12789021762E+02 -0.14263493195E+02  0.24290173176E+02  0.00000000000E+00 0. -1.
</event>
<event>
 7    1  0.2110035E-010  0.4778727E+02  0.7816164E-02  0.1312668E+00
        -11   -1    0    0    0    0  0.00000000000E+00  0.00000000000E+00  0.45593999997E+02  0.45594000000E+02  0.51100000000E-03 0.  1.
         11   -1    0    0    0    0 -0.00000000000E+00 -0.00000000000E+00 -0.45593999997E+02  0.45594000000E+02  0.51100000000E-03 0. -1.
    9900012    2    1    2    0    0  0.11549890378E+02  0.92231321964E+01 -0.40806336375E+02  0.47787271623E+02  0.20000002639E+02 0.  0.
        -12    1    1    2    0    0 -0.11549890378E+02 -0.92231321964E+01  0.40806336375E+02  0.43400728377E+02  0.00000000000E+00 0.  1.
         11    1    3    3    0    0 -0.47900686467E+00  0.85537125331E+01 -0.12132668514E+02  0.14852511276E+02  0.51100000000E-03 0. -1.
        -11    1    3    3    0    0  0.86362859369E+01  0.16003170106E+01 -0.77383613853E+01  0.11705925273E+02  0.51100000000E-03 0.  1.
        -12    1    3    3    0    0  0.33926113056E+01 -0.93089734725E+00 -0.20935306476E+02  0.21228835074E+02  0.00000000000E+00 0.  1.
</event>
<event>
 7    1  0.2110035E-010  0.4778727E+02  0.7816164E-02  0.1312668E+00
        -11   -1    0    0    0    0  0.00000000000E+00  0.00000000000E+00  0.45593999997E+02  0.45594000000E+02  0.51100000000E-03 0.  1.
         11   -1    0    0    0    0 -0.00000000000E+00 -0.00000000000E+00 -0.45593999997E+02  0.45594000000E+02  0.51100000000E-03 0. -1.
    9900012    2    1    2    0    0 -0.78440357723E+01 -0.35241931742E+02 -0.24085275680E+02  0.47787272418E+02  0.20000006261E+02 0.  0.
        -12    1    1    2    0    0  0.78440357723E+01  0.35241931742E+02  0.24085275680E+02  0.43400727582E+02  0.00000000000E+00 0.  1.
         11    1    3    3    0    0 -0.98318883389E+01 -0.21658370548E+02 -0.70733075040E+01  0.24814969724E+02  0.51100000000E-03 0. -1.
        -11    1    3    3    0    0  0.46800676336E+00  0.22365976018E+00 -0.36887200491E+01  0.37250113933E+01  0.51100000000E-03 0.  1.
         12    1    3    3    0    0  0.15198458033E+01 -0.13807220954E+02 -0.13323248127E+02  0.19247291300E+02  0.00000000000E+00 0. -1.
</event>
<event>
 7    1  0.2110035E-010  0.4778728E+02  0.7816164E-02  0.1312668E+00
        -11   -1    0    0    0    0  0.00000000000E+00  0.00000000000E+00  0.45593999997E+02  0.45594000000E+02  0.51100000000E-03 0. -1.
         11   -1    0    0    0    0 -0.00000000000E+00 -0.00000000000E+00 -0.45593999997E+02  0.45594000000E+02  0.51100000000E-03 0.  1.
    9900012    2    1    2    0    0 -0.36134855173E+01  0.41847278975E+02  0.10925670620E+02  0.47787282107E+02  0.20000050437E+02 0.  0.
        -12    1    1    2    0    0  0.36134855173E+01 -0.41847278975E+02 -0.10925670620E+02  0.43400717893E+02  0.00000000000E+00 0.  1.
         11    1    3    3    0    0 -0.18485628657E+01  0.37315612642E+02  0.17504696609E+01  0.37402356555E+02  0.51100000000E-03 0. -1.
        -11    1    3    3    0    0 -0.68899941525E+00  0.19090879297E+01  0.38580799617E+01  0.43593713044E+01  0.51100000000E-03 0.  1.
         12    1    3    3    0    0 -0.10759232364E+01  0.26225784026E+01  0.53171209976E+01  0.60255542476E+01  0.00000000000E+00 0. -1.
</event>
<event>
 7    1  0.2110035E-010  0.4778727E+02  0.7816164E-02  0.1312668E+00
        -11   -1    0    0    0    0  0.00000000000E+00  0.00000000000E+00  0.45593999997E+02  0.45594000000E+02  0.51100000000E-03 0.  1.
         11   -1    0    0    0    0 -0.00000000000E+00 -0.00000000000E+00 -0.45593999997E+02  0.45594000000E+02  0.51100000000E-03 0. -1.
    9900012    2    1    2    0    0 -0.36249718476E+02  0.19458798087E+02 -0.13817974479E+02  0.47787270383E+02  0.19999996985E+02 0.  0.
        -12    1    1    2    0    0  0.36249718476E+02 -0.19458798087E+02  0.13817974479E+02  0.43400729617E+02  0.00000000000E+00 0.  1.
         11    1    3    3    0    0 -0.98558817476E+01  0.82379486823E+01  0.26537373292E+01  0.13116574461E+02  0.51100000000E-03 0. -1.
        -11    1    3    3    0    0 -0.35082752644E+01  0.51976514363E+01 -0.63738143029E+01  0.89414252115E+01  0.51100000000E-03 0.  1.
        -12    1    3    3    0    0 -0.22885561464E+02  0.60231979687E+01 -0.10097897505E+02  0.25729270711E+02  0.00000000000E+00 0.  1.
</event>
<event>
 7    1  0.2110035E-010  0.4778727E+02  0.7816164E-02  0.1312668E+00
        -11   -1    0    0    0    0  0.00000000000E+00  0.00000000000E+00  0.45593999997E+02  0.45594000000E+02  0.51100000000E-03 0.  1.
         11   -1    0    0    0    0 -0.00000000000E+00 -0.00000000000E+00 -0.45593999997E+02  0.45594000000E+02  0.51100000000E-03 0. -1.
    9900012    2    1    2    0    0 -0.36172640567E+02 -0.71270482222E+01 -0.22899097271E+02  0.47787269618E+02  0.19999993494E+02 0.  0.
        -12    1    1    2    0    0  0.36172640567E+02  0.71270482222E+01  0.22899097271E+02  0.43400730382E+02  0.00000000000E+00 0.  1.
         11    1    3    3    0    0 -0.10601017897E+02 -0.15058493014E+01 -0.14466004391E+02  0.17997623340E+02  0.51100000000E-03 0. -1.
        -11    1    3    3    0    0 -0.71984135409E+01 -0.20228443596E+01  0.27672733298E+01  0.79728827128E+01  0.51100000000E-03 0.  1.
         12    1    3    3    0    0 -0.18373209128E+02 -0.35983545612E+01 -0.11200366209E+02  0.21816763565E+02  0.00000000000E+00 0. -1.
</event>
<event>
 7    1  0.2110035E-010  0.4778727E+02  0.7816164E-02  0.1312668E+00
        -11   -1    0    0    0    0  0.00000000000E+00  0.00000000000E+00  0.45593999997E+02  0.45594000000E+02  0.51100000000E-03 0.  1.
         11   -1    0    0    0    0 -0.00000000000E+00 -0.00000000000E+00 -0.45593999997E+02  0.45594000000E+02  0.51100000000E-03 0. -1.
    9900012    2    1    2    0    0 -0.14510108734E+02 -0.25595106583E+02 -0.31905649435E+02  0.47787271868E+02  0.20000003756E+02 0.  0.
        -12    1    1    2    0    0  0.14510108734E+02  0.25595106583E+02  0.31905649435E+02  0.43400728132E+02  0.00000000000E+00 0.  1.
         11    1    3    3    0    0 -0.13138266500E+02 -0.15279596862E+02 -0.17270755040E+02  0.26539764634E+02  0.51100000000E-03 0. -1.
        -11    1    3    3    0    0 -0.57473492549E+01 -0.33764863856E+01 -0.93731692135E+01  0.11501694881E+02  0.51100000000E-03 0.  1.
        -12    1    3    3    0    0  0.43755070210E+01 -0.69390233349E+01 -0.52617251815E+01  0.97458123529E+01  0.00000000000E+00 0.  1.
</event>
<event>
 7    1  0.2110035E-010  0.4778728E+02  0.7816164E-02  0.1312668E+00
        -11   -1    0    0    0    0  0.00000000000E+00  0.00000000000E+00  0.45593999997E+02  0.45594000000E+02  0.51100000000E-03 0. -1.
         11   -1    0    0    0    0 -0.00000000000E+00 -0.00000000000E+00 -0.45593999997E+02  0.45594000000E+02  0.51100000000E-03 0.  1.
    9900012    2    1    2    0    0  0.22159881671E+02 -0.33968455267E+02  0.15450123259E+02  0.47787278605E+02  0.20000034471E+02 0.  0.
        -12    1    1    2    0    0 -0.22159881671E+02  0.33968455267E+02 -0.15450123259E+02  0.43400721395E+02  0.00000000000E+00 0.  1.
         11    1    3    3    0    0  0.28669590400E+01 -0.18370834120E+01  0.65361217133E+01  0.73698858140E+01  0.51100000000E-03 0. -1.
        -11    1    3    3    0    0  0.16144906658E+02 -0.22961226633E+02  0.11577048711E+02  0.30362872008E+02  0.51100000000E-03 0.  1.
        -12    1    3    3    0    0  0.31480159732E+01 -0.91701452225E+01 -0.26630471652E+01  0.10054520783E+02  0.00000000000E+00 0.  1.
</event>
<event>
 7    1  0.2450325E-010  0.4778727E+02  0.7816164E-02  0.1312668E+00
        -11   -1    0    0    0    0  0.00000000000E+00  0.00000000000E+00  0.45593999997E+02  0.45594000000E+02  0.51100000000E-03 0.  1.
         11   -1    0    0    0    0 -0.00000000000E+00 -0.00000000000E+00 -0.45593999997E+02  0.45594000000E+02  0.51100000000E-03 0. -1.
    9900012    2    1    2    0    0  0.41762381560E+02 -0.35242524799E+01 -0.11274170145E+02  0.47787265196E+02  0.19999973333E+02 0.  0.
        -12    1    1    2    0    0 -0.41762381560E+02  0.35242524799E+01  0.11274170145E+02  0.43400734804E+02  0.00000000000E+00 0.  1.
         11    1    3    3    0    0  0.29730110327E+02 -0.99978421581E+00 -0.37245244046E+01  0.29979177955E+02  0.51100000000E-03 0. -1.
        -11    1    3    3    0    0  0.52214035007E+00 -0.46615672086E+00  0.23720495685E+01  0.24731664016E+01  0.51100000000E-03 0.  1.
        -12    1    3    3    0    0  0.11510130883E+02 -0.20583115432E+01 -0.99216953087E+01  0.15334920839E+02  0.00000000000E+00 0.  1.
</event>
<event>
 7    1  0.2110035E-010  0.4778727E+02  0.7816164E-02  0.1312668E+00
        -11   -1    0    0    0    0  0.00000000000E+00  0.00000000000E+00  0.45593999997E+02  0.45594000000E+02  0.51100000000E-03 0.  1.
         11   -1    0    0    0    0 -0.00000000000E+00 -0.00000000000E+00 -0.45593999997E+02  0.45594000000E+02  0.51100000000E-03 0. -1.
    9900012    2    1    2    0    0 -0.31544320022E+02  0.21257096198E+02 -0.20897739722E+02  0.47787265100E+02  0.19999972895E+02 0.  0.
        -12    1    1    2    0    0  0.31544320022E+02 -0.21257096198E+02  0.20897739722E+02  0.43400734900E+02  0.00000000000E+00 0.  1.
         11    1    3    3    0    0 -0.12978903622E+02  0.45136666365E+01 -0.11471834226E+02  0.17900505761E+02  0.51100000000E-03 0. -1.
        -11    1    3    3    0    0 -0.10556989360E+02  0.10546019102E+02 -0.12324645198E+02  0.19353692742E+02  0.51100000000E-03 0.  1.
         12    1    3    3    0    0 -0.80084270393E+01  0.61974104599E+01  0.28987397024E+01  0.10533066596E+02  0.00000000000E+00 0. -1.
</event>
<event>
 7    1  0.2110035E-010  0.4778727E+02  0.7816164E-02  0.1312668E+00
        -11   -1    0    0    0    0  0.00000000000E+00  0.00000000000E+00  0.45593999997E+02  0.45594000000E+02  0.51100000000E-03 0. -1.
         11   -1    0    0    0    0 -0.00000000000E+00 -0.00000000000E+00 -0.45593999997E+02  0.45594000000E+02  0.51100000000E-03 0.  1.
    9900012    2    1    2    0    0 -0.15813561739E+02  0.39139891943E+02  0.10080838047E+02  0.47787272219E+02  0.20000005354E+02 0.  0.
        -12    1    1    2    0    0  0.15813561739E+02 -0.39139891943E+02 -0.10080838047E+02  0.43400727781E+02  0.00000000000E+00 0.  1.
         11    1    3    3    0    0 -0.11210893911E+02  0.14693775434E+02  0.39009155056E+01  0.18889370578E+02  0.51100000000E-03 0. -1.
        -11    1    3    3    0    0 -0.15797455760E+01  0.10661563144E+02  0.95373892909E+01  0.14391883807E+02  0.51100000000E-03 0.  1.
         12    1    3    3    0    0 -0.30229222526E+01  0.13784553365E+02 -0.33574667500E+01  0.14506017834E+02  0.00000000000E+00 0. -1.
</event>
<event>
 7    1  0.2110035E-010  0.4778727E+02  0.7816164E-02  0.1312668E+00
        -11   -1    0    0    0    0  0.00000000000E+00  0.00000000000E+00  0.45593999997E+02  0.45594000000E+02  0.51100000000E-03 0.  1.
         11   -1    0    0    0    0 -0.00000000000E+00 -0.00000000000E+00 -0.45593999997E+02  0.45594000000E+02  0.51100000000E-03 0. -1.
    9900012    2    1    2    0    0 -0.11651630845E+02 -0.17227578409E+02 -0.38092962655E+02  0.47787265409E+02  0.19999974307E+02 0.  0.
        -12    1    1    2    0    0  0.11651630845E+02  0.17227578409E+02  0.38092962655E+02  0.43400734591E+02  0.00000000000E+00 0.  1.
         11    1    3    3    0    0  0.18545129135E+01 -0.21292846570E+01 -0.48649799359E+01  0.56250423407E+01  0.51100000000E-03 0.  1.
        -11    1    3    3    0    0 -0.31906840724E+01 -0.78924307618E+01 -0.26623115017E+02  0.27951049742E+02  0.51100000000E-03 0. -1.
         12    1    3    3    0    0 -0.10315459686E+02 -0.72058629901E+01 -0.66048677018E+01  0.14211173327E+02  0.00000000000E+00 0. -1.
</event>
<event>
 7    1  0.2110035E-010  0.4778727E+02  0.7816164E-02  0.1312668E+00
        -11   -1    0    0    0    0  0.00000000000E+00  0.00000000000E+00  0.45593999997E+02  0.45594000000E+02  0.51100000000E-03 0.  1.
         11   -1    0    0    0    0 -0.00000000000E+00 -0.00000000000E+00 -0.45593999997E+02  0.45594000000E+02  0.51100000000E-03 0. -1.
    9900012    2    1    2    0    0 -0.98539210319E+00  0.37067468235E+02 -0.22553386647E+02  0.47787269036E+02  0.19999990844E+02 0.  0.
        -12    1    1    2    0    0  0.98539210319E+00 -0.37067468235E+02  0.22553386647E+02  0.43400730964E+02  0.00000000000E+00 0.  1.
         11    1    3    3    0    0  0.35420057406E+01  0.20918742976E+01  0.55139235635E+00  0.41503947445E+01  0.51100000000E-03 0. -1.
        -11    1    3    3    0    0 -0.31073514745E+01  0.66354316379E+01 -0.47490801253E+00  0.73423514005E+01  0.51100000000E-03 0.  1.
         12    1    3    3    0    0 -0.14200463693E+01  0.28340162299E+02 -0.22629870991E+02  0.36294522891E+02  0.00000000000E+00 0. -1.
</event>
<event>
 7    1  0.2110035E-010  0.4778727E+02  0.7816164E-02  0.1312668E+00
        -11   -1    0    0    0    0  0.00000000000E+00  0.00000000000E+00  0.45593999997E+02  0.45594000000E+02  0.51100000000E-03 0.  1.
         11   -1    0    0    0    0 -0.00000000000E+00 -0.00000000000E+00 -0.45593999997E+02  0.45594000000E+02  0.51100000000E-03 0. -1.
    9900012    2    1    2    0    0  0.29877165224E+02  0.15339507161E+02 -0.27489592479E+02  0.47787272167E+02  0.20000005116E+02 0.  0.
        -12    1    1    2    0    0 -0.29877165224E+02 -0.15339507161E+02  0.27489592479E+02  0.43400727833E+02  0.00000000000E+00 0.  1.
         11    1    3    3    0    0  0.10017956375E+02  0.10737126771E+02 -0.97026639159E+01  0.17600767840E+02  0.51100000000E-03 0. -1.
        -11    1    3    3    0    0 -0.82595568917E+00  0.19256002719E+01  0.80587062290E+00  0.22448979776E+01  0.51100000000E-03 0.  1.
        -12    1    3    3    0    0  0.20685164539E+02  0.26767801186E+01 -0.18592799186E+02  0.27941606349E+02  0.00000000000E+00 0.  1.
</event>
<event>
 7    1  0.2110035E-010  0.4778727E+02  0.7816164E-02  0.1312668E+00
        -11   -1    0    0    0    0  0.00000000000E+00  0.00000000000E+00  0.45593999997E+02  0.45594000000E+02  0.51100000000E-03 0.  1.
         11   -1    0    0    0    0 -0.00000000000E+00 -0.00000000000E+00 -0.45593999997E+02  0.45594000000E+02  0.51100000000E-03 0. -1.
    9900012    2    1    2    0    0 -0.16225516410E+02  0.38927783583E+02 -0.10246148602E+02  0.47787270990E+02  0.19999999752E+02 0.  0.
        -12    1    1    2    0    0  0.16225516410E+02 -0.38927783583E+02  0.10246148602E+02  0.43400729010E+02  0.00000000000E+00 0.  1.
         11    1    3    3    0    0 -0.11023049131E+02  0.20187305322E+02 -0.35925803627E+01  0.23279637931E+02  0.51100000000E-03 0. -1.
        -11    1    3    3    0    0 -0.19492425646E+01  0.43144903336E+01  0.40677228253E+01  0.62418541043E+01  0.51100000000E-03 0.  1.
         12    1    3    3    0    0 -0.32532247151E+01  0.14425987927E+02 -0.10721291064E+02  0.18265778954E+02  0.00000000000E+00 0. -1.
</event>
<event>
 7    1  0.2110035E-010  0.4778728E+02  0.7816164E-02  0.1312668E+00
        -11   -1    0    0    0    0  0.00000000000E+00  0.00000000000E+00  0.45593999997E+02  0.45594000000E+02  0.51100000000E-03 0.  1.
         11   -1    0    0    0    0 -0.00000000000E+00 -0.00000000000E+00 -0.45593999997E+02  0.45594000000E+02  0.51100000000E-03 0. -1.
    9900012    2    1    2    0    0  0.42920835494E+02  0.59133821763E+01  0.25408869264E+01  0.47787282095E+02  0.20000050385E+02 0.  0.
        -12    1    1    2    0    0 -0.42920835494E+02 -0.59133821763E+01 -0.25408869264E+01  0.43400717905E+02  0.00000000000E+00 0.  1.
         11    1    3    3    0    0  0.48250455379E+01 -0.11553784110E+01 -0.39473158412E+01  0.63401314125E+01  0.51100000000E-03 0.  1.
        -11    1    3    3    0    0  0.20479055056E+02  0.10090504119E+02  0.14470261775E+01  0.22875835600E+02  0.51100000000E-03 0. -1.
         12    1    3    3    0    0  0.17616734900E+02 -0.30217435315E+01  0.50411765900E+01  0.18571315083E+02  0.00000000000E+00 0. -1.
</event>
<event>
 7    1  0.2110035E-010  0.4778726E+02  0.7816164E-02  0.1312668E+00
        -11   -1    0    0    0    0  0.00000000000E+00  0.00000000000E+00  0.45593999997E+02  0.45594000000E+02  0.51100000000E-03 0.  1.
         11   -1    0    0    0    0 -0.00000000000E+00 -0.00000000000E+00 -0.45593999997E+02  0.45594000000E+02  0.51100000000E-03 0. -1.
    9900012    2    1    2    0    0 -0.15895931986E+02  0.14815972835E+02 -0.37569007569E+02  0.47787262281E+02  0.19999960046E+02 0.  0.
        -12    1    1    2    0    0  0.15895931986E+02 -0.14815972835E+02  0.37569007569E+02  0.43400737719E+02  0.00000000000E+00 0.  1.
         11    1    3    3    0    0 -0.51064826457E+01  0.92717718744E+01 -0.12864808961E+02  0.16659688730E+02  0.51100000000E-03 0. -1.
        -11    1    3    3    0    0 -0.12572489304E+00 -0.21584071138E+01  0.89992395801E+00  0.23418777527E+01  0.51100000000E-03 0.  1.
        -12    1    3    3    0    0 -0.10663724447E+02  0.77026080748E+01 -0.25604122566E+02  0.28785695799E+02  0.00000000000E+00 0.  1.
</event>
<event>
 7    1  0.2110035E-010  0.4778727E+02  0.7816164E-02  0.1312668E+00
        -11   -1    0    0    0    0  0.00000000000E+00  0.00000000000E+00  0.45593999997E+02  0.45594000000E+02  0.51100000000E-03 0.  1.
         11   -1    0    0    0    0 -0.00000000000E+00 -0.00000000000E+00 -0.45593999997E+02  0.45594000000E+02  0.51100000000E-03 0. -1.
    9900012    2    1    2    0    0 -0.32832730815E+01  0.18395266378E+02 -0.39172152105E+02  0.47787271806E+02  0.20000003472E+02 0.  0.
        -12    1    1    2    0    0  0.32832730815E+01 -0.18395266378E+02  0.39172152105E+02  0.43400728194E+02  0.00000000000E+00 0.  1.
         11    1    3    3    0    0 -0.22083933248E+01  0.53792803879E+01 -0.25239471856E+02  0.25900667914E+02  0.51100000000E-03 0. -1.
        -11    1    3    3    0    0 -0.23830007658E+01  0.77152130448E+01 -0.14291598156E+02  0.16415023091E+02  0.51100000000E-03 0.  1.
        -12    1    3    3    0    0  0.13081210091E+01  0.53007729456E+01  0.35891790712E+00  0.54715808008E+01  0.00000000000E+00 0.  1.
</event>
<event>
 7    1  0.2110035E-010  0.4778727E+02  0.7816164E-02  0.1312668E+00
        -11   -1    0    0    0    0  0.00000000000E+00  0.00000000000E+00  0.45593999997E+02  0.45594000000E+02  0.51100000000E-03 0. -1.
         11   -1    0    0    0    0 -0.00000000000E+00 -0.00000000000E+00 -0.45593999997E+02  0.45594000000E+02  0.51100000000E-03 0.  1.
    9900012    2    1    2    0    0 -0.97716261329E+01 -0.16819300388E+02  0.38797550910E+02  0.47787268446E+02  0.19999988154E+02 0.  0.
        -12    1    1    2    0    0  0.97716261329E+01  0.16819300388E+02 -0.38797550910E+02  0.43400731554E+02  0.00000000000E+00 0.  1.
         11    1    3    3    0    0  0.17946054438E+01 -0.57772521000E+01  0.19237609220E+02  0.20166379430E+02  0.51100000000E-03 0. -1.
        -11    1    3    3    0    0 -0.13415568508E+01 -0.42470295705E+01 -0.85816464479E-01  0.44547053419E+01  0.51100000000E-03 0.  1.
         12    1    3    3    0    0 -0.10224674726E+02 -0.67950187174E+01  0.19645758154E+02  0.23166183675E+02  0.00000000000E+00 0. -1.
</event>
<event>
 7    1  0.2110035E-010  0.4778727E+02  0.7816164E-02  0.1312668E+00
        -11   -1    0    0    0    0  0.00000000000E+00  0.00000000000E+00  0.45593999997E+02  0.45594000000E+02  0.51100000000E-03 0.  1.
         11   -1    0    0    0    0 -0.00000000000E+00 -0.00000000000E+00 -0.45593999997E+02  0.45594000000E+02  0.51100000000E-03 0. -1.
    9900012    2    1    2    0    0 -0.75322690240E+01 -0.33992591135E+02 -0.25911238809E+02  0.47787266995E+02  0.19999981537E+02 0.  0.
        -12    1    1    2    0    0  0.75322690240E+01  0.33992591135E+02  0.25911238809E+02  0.43400733005E+02  0.00000000000E+00 0.  1.
         11    1    3    3    0    0  0.10870482636E+01 -0.48227545845E+01 -0.67897671525E+01  0.83989031400E+01  0.51100000000E-03 0. -1.
        -11    1    3    3    0    0 -0.11015527288E+02 -0.94492759537E+01 -0.69591742507E+01  0.16095364675E+02  0.51100000000E-03 0.  1.
        -12    1    3    3    0    0  0.23962100008E+01 -0.19720560597E+02 -0.12162297406E+02  0.23292999181E+02  0.00000000000E+00 0.  1.
</event>
<event>
 7    1  0.2110035E-010  0.4778727E+02  0.7816164E-02  0.1312668E+00
        -11   -1    0    0    0    0  0.00000000000E+00  0.00000000000E+00  0.45593999997E+02  0.45594000000E+02  0.51100000000E-03 0.  1.
         11   -1    0    0    0    0 -0.00000000000E+00 -0.00000000000E+00 -0.45593999997E+02  0.45594000000E+02  0.51100000000E-03 0. -1.
    9900012    2    1    2    0    0 -0.17758442008E+02 -0.32598318007E+02 -0.22485793506E+02  0.47787268336E+02  0.19999987650E+02 0.  0.
        -12    1    1    2    0    0  0.17758442008E+02  0.32598318007E+02  0.22485793506E+02  0.43400731664E+02  0.00000000000E+00 0.  1.
         11    1    3    3    0    0 -0.87308248348E+01 -0.82019690184E+01 -0.70826794482E+01  0.13916319431E+02  0.51100000000E-03 0. -1.
        -11    1    3    3    0    0 -0.51708435384E+01 -0.11934954036E+02 -0.16231542729E+02  0.20800089672E+02  0.51100000000E-03 0.  1.
        -12    1    3    3    0    0 -0.38567736346E+01 -0.12461394952E+02  0.82842867110E+00  0.13070859233E+02  0.00000000000E+00 0.  1.
</event>
<event>
 7    1  0.2110035E-010  0.4778726E+02  0.7816164E-02  0.1312668E+00
        -11   -1    0    0    0    0  0.00000000000E+00  0.00000000000E+00  0.45593999997E+02  0.45594000000E+02  0.51100000000E-03 0.  1.
         11   -1    0    0    0    0 -0.00000000000E+00 -0.00000000000E+00 -0.45593999997E+02  0.45594000000E+02  0.51100000000E-03 0. -1.
    9900012    2    1    2    0    0  0.12340448010E+02  0.56899035321E+01 -0.41218470242E+02  0.47787263274E+02  0.19999964572E+02 0.  0.
        -12    1    1    2    0    0 -0.12340448010E+02 -0.56899035321E+01  0.41218470242E+02  0.43400736726E+02  0.00000000000E+00 0.  1.
         11    1    3    3    0    0  0.51874283262E+01  0.40854232963E+01 -0.14324348875E+02  0.15772985358E+02  0.51100000000E-03 0. -1.
        -11    1    3    3    0    0  0.34444421263E+01 -0.26781070103E+01  0.16724646158E+00  0.43662810675E+01  0.51100000000E-03 0.  1.
        -12    1    3    3    0    0  0.37085775571E+01  0.42825872461E+01 -0.27061367828E+02  0.27647996848E+02  0.00000000000E+00 0.  1.
</event>
<event>
 7    1  0.2110035E-010  0.4778727E+02  0.7816164E-02  0.1312668E+00
        -11   -1    0    0    0    0  0.00000000000E+00  0.00000000000E+00  0.45593999997E+02  0.45594000000E+02  0.51100000000E-03 0.  1.
         11   -1    0    0    0    0 -0.00000000000E+00 -0.00000000000E+00 -0.45593999997E+02  0.45594000000E+02  0.51100000000E-03 0. -1.
    9900012    2    1    2    0    0  0.40298774005E+02  0.12322371370E+02 -0.10382265396E+02  0.47787268932E+02  0.19999990367E+02 0.  0.
        -12    1    1    2    0    0 -0.40298774005E+02 -0.12322371370E+02  0.10382265396E+02  0.43400731068E+02  0.00000000000E+00 0.  1.
         11    1    3    3    0    0  0.14704580105E+02  0.82075329198E+01 -0.76182911134E+01  0.18483144550E+02  0.51100000000E-03 0. -1.
        -11    1    3    3    0    0  0.12988380461E+02  0.29968364513E+01 -0.80692636338E+01  0.15581786533E+02  0.51100000000E-03 0.  1.
         12    1    3    3    0    0  0.12605813439E+02  0.11180019984E+01  0.53052893514E+01  0.13722337848E+02  0.00000000000E+00 0. -1.
</event>
<event>
 7    1  0.2708549E-010  0.4778728E+02  0.7816164E-02  0.1312668E+00
        -11   -1    0    0    0    0  0.00000000000E+00  0.00000000000E+00  0.45593999997E+02  0.45594000000E+02  0.51100000000E-03 0.  1.
         11   -1    0    0    0    0 -0.00000000000E+00 -0.00000000000E+00 -0.45593999997E+02  0.45594000000E+02  0.51100000000E-03 0. -1.
    9900012    2    1    2    0    0 -0.40614479719E+02  0.36971241348E+01 -0.14846481347E+02  0.47787277678E+02  0.20000030245E+02 0.  0.
        -12    1    1    2    0    0  0.40614479719E+02 -0.36971241348E+01  0.14846481347E+02  0.43400722322E+02  0.00000000000E+00 0.  1.
         11    1    3    3    0    0 -0.26227853983E+02  0.12024857122E+01 -0.11107965020E+02  0.28508475645E+02  0.51100000000E-03 0. -1.
        -11    1    3    3    0    0 -0.24094511664E+01 -0.21209436058E+01 -0.54544273767E+01  0.63288731202E+01  0.51100000000E-03 0.  1.
        -12    1    3    3    0    0 -0.11977174569E+02  0.46155820284E+01  0.17159110500E+01  0.12949928913E+02  0.00000000000E+00 0.  1.
</event>
<event>
 7    1  0.2110035E-010  0.4778727E+02  0.7816164E-02  0.1312668E+00
        -11   -1    0    0    0    0  0.00000000000E+00  0.00000000000E+00  0.45593999997E+02  0.45594000000E+02  0.51100000000E-03 0.  1.
         11   -1    0    0    0    0 -0.00000000000E+00 -0.00000000000E+00 -0.45593999997E+02  0.45594000000E+02  0.51100000000E-03 0. -1.
    9900012    2    1    2    0    0  0.36092611918E+01 -0.50526198138E+01 -0.42954250506E+02  0.47787269939E+02  0.19999994959E+02 0.  0.
        -12    1    1    2    0    0 -0.36092611918E+01  0.50526198138E+01  0.42954250506E+02  0.43400730061E+02  0.00000000000E+00 0.  1.
         11    1    3    3    0    0  0.95232679840E+01  0.17626065578E+01 -0.13998543563E+02  0.17022298232E+02  0.51100000000E-03 0.  1.
        -11    1    3    3    0    0 -0.28640104704E+01 -0.10300715854E+01 -0.15598512570E+02  0.15892677499E+02  0.51100000000E-03 0. -1.
         12    1    3    3    0    0 -0.30499963218E+01 -0.57851547863E+01 -0.13357194373E+02  0.14872294207E+02  0.00000000000E+00 0. -1.
</event>
<event>
 7    1  0.2110035E-010  0.4778727E+02  0.7816164E-02  0.1312668E+00
        -11   -1    0    0    0    0  0.00000000000E+00  0.00000000000E+00  0.45593999997E+02  0.45594000000E+02  0.51100000000E-03 0.  1.
         11   -1    0    0    0    0 -0.00000000000E+00 -0.00000000000E+00 -0.45593999997E+02  0.45594000000E+02  0.51100000000E-03 0. -1.
    9900012    2    1    2    0    0  0.25488529094E+02  0.20822366410E+02 -0.28291117695E+02  0.47787269606E+02  0.19999993441E+02 0.  0.
        -12    1    1    2    0    0 -0.25488529094E+02 -0.20822366410E+02  0.28291117695E+02  0.43400730394E+02  0.00000000000E+00 0.  1.
         11    1    3    3    0    0  0.56660868212E+01  0.75202381601E+00 -0.91862334225E+01  0.10819286688E+02  0.51100000000E-03 0.  1.
        -11    1    3    3    0    0  0.18694791751E+02  0.15066387556E+02 -0.90108395074E+01  0.25645399226E+02  0.51100000000E-03 0. -1.
         12    1    3    3    0    0  0.11276505218E+01  0.50039550383E+01 -0.10094044765E+02  0.11322583691E+02  0.00000000000E+00 0. -1.
</event>
<event>
 7    1  0.2110035E-010  0.4778727E+02  0.7816164E-02  0.1312668E+00
        -11   -1    0    0    0    0  0.00000000000E+00  0.00000000000E+00  0.45593999997E+02  0.45594000000E+02  0.51100000000E-03 0. -1.
         11   -1    0    0    0    0 -0.00000000000E+00 -0.00000000000E+00 -0.45593999997E+02  0.45594000000E+02  0.51100000000E-03 0.  1.
    9900012    2    1    2    0    0 -0.10722511595E+02 -0.14059538406E+02  0.39635595841E+02  0.47787270366E+02  0.19999996906E+02 0.  0.
        -12    1    1    2    0    0  0.10722511595E+02  0.14059538406E+02 -0.39635595841E+02  0.43400729634E+02  0.00000000000E+00 0.  1.
         11    1    3    3    0    0 -0.64001163448E+01 -0.11203490790E+01  0.29032774226E+02  0.29750943696E+02  0.51100000000E-03 0. -1.
        -11    1    3    3    0    0 -0.20299355171E+01 -0.27461067879E+01  0.40877080281E+00  0.34393072739E+01  0.51100000000E-03 0.  1.
         12    1    3    3    0    0 -0.22924597329E+01 -0.10193082539E+02  0.10194050813E+02  0.14597019396E+02  0.00000000000E+00 0. -1.
</event>
<event>
 7    1  0.2110035E-010  0.4778727E+02  0.7816164E-02  0.1312668E+00
        -11   -1    0    0    0    0  0.00000000000E+00  0.00000000000E+00  0.45593999997E+02  0.45594000000E+02  0.51100000000E-03 0.  1.
         11   -1    0    0    0    0 -0.00000000000E+00 -0.00000000000E+00 -0.45593999997E+02  0.45594000000E+02  0.51100000000E-03 0. -1.
    9900012    2    1    2    0    0 -0.38772172606E+02 -0.11170812405E+02 -0.15986085838E+02  0.47787270067E+02  0.19999995542E+02 0.  0.
        -12    1    1    2    0    0  0.38772172606E+02  0.11170812405E+02  0.15986085838E+02  0.43400729933E+02  0.00000000000E+00 0.  1.
         11    1    3    3    0    0 -0.29965186810E+02 -0.13911212596E+02 -0.10478423703E+02  0.34658788496E+02  0.51100000000E-03 0. -1.
        -11    1    3    3    0    0 -0.90377625422E+01  0.25175993115E+01 -0.19828665750E+01  0.95891197812E+01  0.51100000000E-03 0.  1.
        -12    1    3    3    0    0  0.23077674701E+00  0.22280087917E+00 -0.35247955596E+01  0.35393617893E+01  0.00000000000E+00 0.  1.
</event>
<event>
 7    1  0.2110035E-010  0.4778728E+02  0.7816164E-02  0.1312668E+00
        -11   -1    0    0    0    0  0.00000000000E+00  0.00000000000E+00  0.45593999997E+02  0.45594000000E+02  0.51100000000E-03 0.  1.
         11   -1    0    0    0    0 -0.00000000000E+00 -0.00000000000E+00 -0.45593999997E+02  0.45594000000E+02  0.51100000000E-03 0. -1.
    9900012    2    1    2    0    0 -0.56069262506E+01 -0.80309387975E+01 -0.42281067337E+02  0.47787282782E+02  0.20000053514E+02 0.  0.
        -12    1    1    2    0    0  0.56069262506E+01  0.80309387975E+01  0.42281067337E+02  0.43400717218E+02  0.00000000000E+00 0.  1.
         11    1    3    3    0    0  0.36389574107E+01 -0.16350856121E+01 -0.88109509933E+01  0.96720408220E+01  0.51100000000E-03 0. -1.
        -11    1    3    3    0    0  0.15708172547E+01 -0.17827338299E+01  0.26363568323E+00  0.23906297895E+01  0.51100000000E-03 0.  1.
         12    1    3    3    0    0 -0.10816700916E+02 -0.46131193555E+01 -0.33733752027E+02  0.35724612170E+02  0.00000000000E+00 0. -1.
</event>
<event>
 7    1  0.2110035E-010  0.4778725E+02  0.7816164E-02  0.1312668E+00
        -11   -1    0    0    0    0  0.00000000000E+00  0.00000000000E+00  0.45593999997E+02  0.45594000000E+02  0.51100000000E-03 0. -1.
         11   -1    0    0    0    0 -0.00000000000E+00 -0.00000000000E+00 -0.45593999997E+02  0.45594000000E+02  0.51100000000E-03 0.  1.
    9900012    2    1    2    0    0  0.27421418956E+02 -0.51733540362E+01  0.33240447049E+02  0.47787249666E+02  0.19999902527E+02 0.  0.
        -12    1    1    2    0    0 -0.27421418956E+02  0.51733540362E+01 -0.33240447049E+02  0.43400750334E+02  0.00000000000E+00 0.  1.
         11    1    3    3    0    0  0.10679584313E+02 -0.10886391324E+02  0.10313126716E+02  0.18409986966E+02  0.51100000000E-03 0. -1.
        -11    1    3    3    0    0  0.33741008014E+00 -0.95895178433E-03 -0.24483434265E+00  0.41688199557E+00  0.51100000000E-03 0.  1.
         12    1    3    3    0    0  0.16404424563E+02  0.57139962393E+01  0.23172154675E+02  0.28960380705E+02  0.00000000000E+00 0. -1.
</event>
<event>
 7    1  0.2110035E-010  0.4778727E+02  0.7816164E-02  0.1312668E+00
        -11   -1    0    0    0    0  0.00000000000E+00  0.00000000000E+00  0.45593999997E+02  0.45594000000E+02  0.51100000000E-03 0.  1.
         11   -1    0    0    0    0 -0.00000000000E+00 -0.00000000000E+00 -0.45593999997E+02  0.45594000000E+02  0.51100000000E-03 0. -1.
    9900012    2    1    2    0    0  0.16615491819E+02 -0.39275015642E+02 -0.80636130364E+01  0.47787271005E+02  0.19999999819E+02 0.  0.
        -12    1    1    2    0    0 -0.16615491819E+02  0.39275015642E+02  0.80636130364E+01  0.43400728995E+02  0.00000000000E+00 0.  1.
         11    1    3    3    0    0  0.16394129364E+02 -0.21575548881E+02 -0.62913627579E+01  0.27818214046E+02  0.51100000000E-03 0. -1.
        -11    1    3    3    0    0 -0.12403777261E+00 -0.41973261332E+01 -0.45374502014E+01  0.61823447517E+01  0.51100000000E-03 0.  1.
        -12    1    3    3    0    0  0.34540022857E+00 -0.13502140628E+02  0.27651999228E+01  0.13786712207E+02  0.00000000000E+00 0.  1.
</event>
<event>
 7    1  0.2110035E-010  0.4778727E+02  0.7816164E-02  0.1312668E+00
        -11   -1    0    0    0    0  0.00000000000E+00  0.00000000000E+00  0.45593999997E+02  0.45594000000E+02  0.51100000000E-03 0.  1.
         11   -1    0    0    0    0 -0.00000000000E+00 -0.00000000000E+00 -0.45593999997E+02  0.45594000000E+02  0.51100000000E-03 0. -1.
    9900012    2    1    2    0    0 -0.40505746733E+02 -0.10126133724E+02 -0.11847741020E+02  0.47787273395E+02  0.20000010717E+02 0.  0.
        -12    1    1    2    0    0  0.40505746733E+02  0.10126133724E+02  0.11847741020E+02  0.43400726605E+02  0.00000000000E+00 0.  1.
         11    1    3    3    0    0 -0.34968509721E+01  0.30453057754E+01 -0.24707186536E+01  0.52541702402E+01  0.51100000000E-03 0. -1.
        -11    1    3    3    0    0 -0.24593841435E+02 -0.56079366793E+01  0.15870244559E-01  0.25225111347E+02  0.51100000000E-03 0.  1.
        -12    1    3    3    0    0 -0.12415054325E+02 -0.75635028205E+01 -0.93928926109E+01  0.17307991808E+02  0.00000000000E+00 0.  1.
</event>
<event>
 7    1  0.2110035E-010  0.4778727E+02  0.7816164E-02  0.1312668E+00
        -11   -1    0    0    0    0  0.00000000000E+00  0.00000000000E+00  0.45593999997E+02  0.45594000000E+02  0.51100000000E-03 0.  1.
         11   -1    0    0    0    0 -0.00000000000E+00 -0.00000000000E+00 -0.45593999997E+02  0.45594000000E+02  0.51100000000E-03 0. -1.
    9900012    2    1    2    0    0 -0.49989763172E+01  0.43108174379E+02  0.56484900278E+00  0.47787268244E+02  0.19999987234E+02 0.  0.
        -12    1    1    2    0    0  0.49989763172E+01 -0.43108174379E+02 -0.56484900278E+00  0.43400731756E+02  0.00000000000E+00 0.  1.
         11    1    3    3    0    0 -0.59616187020E+01  0.21801551710E+02  0.58174275163E+01  0.23338616447E+02  0.51100000000E-03 0. -1.
        -11    1    3    3    0    0  0.12135759932E+01 -0.31433835497E+00 -0.23082268424E+01  0.26266874024E+01  0.51100000000E-03 0.  1.
        -12    1    3    3    0    0 -0.25093360832E+00  0.21620961024E+02 -0.29443516711E+01  0.21821964395E+02  0.00000000000E+00 0.  1.
</event>
<event>
 7    1  0.2110035E-010  0.4778727E+02  0.7816164E-02  0.1312668E+00
        -11   -1    0    0    0    0  0.00000000000E+00  0.00000000000E+00  0.45593999997E+02  0.45594000000E+02  0.51100000000E-03 0.  1.
         11   -1    0    0    0    0 -0.00000000000E+00 -0.00000000000E+00 -0.45593999997E+02  0.45594000000E+02  0.51100000000E-03 0. -1.
    9900012    2    1    2    0    0  0.27197121600E+02  0.31395610540E+02 -0.12579963242E+02  0.47787271208E+02  0.20000000746E+02 0.  0.
        -12    1    1    2    0    0 -0.27197121600E+02 -0.31395610540E+02  0.12579963242E+02  0.43400728792E+02  0.00000000000E+00 0.  1.
         11    1    3    3    0    0  0.11671571487E+02  0.12437519678E+02 -0.15256276477E+01  0.17124398287E+02  0.51100000000E-03 0. -1.
        -11    1    3    3    0    0  0.12676804550E+02  0.17003656264E+02 -0.23999837073E+01  0.21344451785E+02  0.51100000000E-03 0.  1.
        -12    1    3    3    0    0  0.28487455631E+01  0.19544345981E+01 -0.86543518870E+01  0.93184211359E+01  0.00000000000E+00 0.  1.
</event>
<event>
 7    1  0.2110035E-010  0.4778727E+02  0.7816164E-02  0.1312668E+00
        -11   -1    0    0    0    0  0.00000000000E+00  0.00000000000E+00  0.45593999997E+02  0.45594000000E+02  0.51100000000E-03 0.  1.
         11   -1    0    0    0    0 -0.00000000000E+00 -0.00000000000E+00 -0.45593999997E+02  0.45594000000E+02  0.51100000000E-03 0. -1.
    9900012    2    1    2    0    0 -0.23240124818E+02  0.13243785862E+02 -0.34177799444E+02  0.47787271431E+02  0.20000001761E+02 0.  0.
        -12    1    1    2    0    0  0.23240124818E+02 -0.13243785862E+02  0.34177799444E+02  0.43400728569E+02  0.00000000000E+00 0.  1.
         11    1    3    3    0    0 -0.14020079081E+02  0.13806304617E+02 -0.18338979680E+02  0.26897859405E+02  0.51100000000E-03 0. -1.
        -11    1    3    3    0    0 -0.65704144009E+01 -0.18934361431E+01 -0.25884396245E+01  0.73113244886E+01  0.51100000000E-03 0.  1.
        -12    1    3    3    0    0 -0.26496313361E+01  0.13309173876E+01 -0.13250380139E+02  0.13578087537E+02  0.00000000000E+00 0.  1.
</event>
<event>
 7    1  0.2110035E-010  0.4778727E+02  0.7816164E-02  0.1312668E+00
        -11   -1    0    0    0    0  0.00000000000E+00  0.00000000000E+00  0.45593999997E+02  0.45594000000E+02  0.51100000000E-03 0. -1.
         11   -1    0    0    0    0 -0.00000000000E+00 -0.00000000000E+00 -0.45593999997E+02  0.45594000000E+02  0.51100000000E-03 0.  1.
    9900012    2    1    2    0    0  0.92726736772E+01 -0.23133187060E+02  0.35531627228E+02  0.47787270120E+02  0.19999995783E+02 0.  0.
        -12    1    1    2    0    0 -0.92726736772E+01  0.23133187060E+02 -0.35531627228E+02  0.43400729880E+02  0.00000000000E+00 0.  1.
         11    1    3    3    0    0  0.72827706551E+01 -0.36965507486E+01  0.83402499793E+01  0.11673174625E+02  0.51100000000E-03 0.  1.
        -11    1    3    3    0    0 -0.15701724905E+01 -0.11166913725E+02  0.24077380574E+02  0.26587321402E+02  0.51100000000E-03 0. -1.
         12    1    3    3    0    0  0.35600755125E+01 -0.82697225864E+01  0.31139966751E+01  0.95267740922E+01  0.00000000000E+00 0. -1.
</event>
<event>
 7    1  0.2110035E-010  0.4778727E+02  0.7816164E-02  0.1312668E+00
        -11   -1    0    0    0    0  0.00000000000E+00  0.00000000000E+00  0.45593999997E+02  0.45594000000E+02  0.51100000000E-03 0. -1.
         11   -1    0    0    0    0 -0.00000000000E+00 -0.00000000000E+00 -0.45593999997E+02  0.45594000000E+02  0.51100000000E-03 0.  1.
    9900012    2    1    2    0    0 -0.16708322763E+02  0.14471574406E+02  0.37350083438E+02  0.47787271340E+02  0.20000001349E+02 0.  0.
        -12    1    1    2    0    0  0.16708322763E+02 -0.14471574406E+02 -0.37350083438E+02  0.43400728660E+02  0.00000000000E+00 0.  1.
         11    1    3    3    0    0 -0.71206977145E+01  0.23742092074E+01  0.12776896554E+02  0.14818579254E+02  0.51100000000E-03 0. -1.
        -11    1    3    3    0    0 -0.14031810698E+01  0.26684099959E+00 -0.21723147963E+01  0.25998217379E+01  0.51100000000E-03 0.  1.
        -12    1    3    3    0    0 -0.81844439789E+01  0.11830524199E+02  0.26745501681E+02  0.30368870348E+02  0.00000000000E+00 0.  1.
</event>
<event>
 7    1  0.2110035E-010  0.4778727E+02  0.7816164E-02  0.1312668E+00
        -11   -1    0    0    0    0  0.00000000000E+00  0.00000000000E+00  0.45593999997E+02  0.45594000000E+02  0.51100000000E-03 0.  1.
         11   -1    0    0    0    0 -0.00000000000E+00 -0.00000000000E+00 -0.45593999997E+02  0.45594000000E+02  0.51100000000E-03 0. -1.
    9900012    2    1    2    0    0 -0.30243932961E+02  0.29420945141E+02 -0.10165442821E+02  0.47787265886E+02  0.19999976480E+02 0.  0.
        -12    1    1    2    0    0  0.30243932961E+02 -0.29420945141E+02  0.10165442821E+02  0.43400734114E+02  0.00000000000E+00 0.  1.
         11    1    3    3    0    0 -0.28540830840E+01  0.72300072101E+01 -0.77132512220E+01  0.10950481231E+02  0.51100000000E-03 0. -1.
        -11    1    3    3    0    0 -0.74408866604E+01  0.12090588626E+02  0.90666944591E+00  0.14225722385E+02  0.51100000000E-03 0.  1.
         12    1    3    3    0    0 -0.19948963216E+02  0.10100349304E+02 -0.33588610450E+01  0.22611062270E+02  0.00000000000E+00 0. -1.
</event>
<event>
 7    1  0.2110035E-010  0.4778728E+02  0.7816164E-02  0.1312668E+00
        -11   -1    0    0    0    0  0.00000000000E+00  0.00000000000E+00  0.45593999997E+02  0.45594000000E+02  0.51100000000E-03 0.  1.
         11   -1    0    0    0    0 -0.00000000000E+00 -0.00000000000E+00 -0.45593999997E+02  0.45594000000E+02  0.51100000000E-03 0. -1.
    9900012    2    1    2    0    0  0.14707006356E+01 -0.43369704064E+02  0.72698742402E+00  0.47787277636E+02  0.20000030055E+02 0.  0.
        -12    1    1    2    0    0 -0.14707006356E+01  0.43369704064E+02 -0.72698742402E+00  0.43400722364E+02  0.00000000000E+00 0.  1.
         11    1    3    3    0    0  0.47377529402E+01 -0.17325462944E+02 -0.79399839786E+01  0.19638261506E+02  0.51100000000E-03 0. -1.
        -11    1    3    3    0    0  0.11217451312E+01 -0.76507230353E+01  0.38364037476E+01  0.86319099322E+01  0.51100000000E-03 0.  1.
         12    1    3    3    0    0 -0.43887974358E+01 -0.18393518085E+02  0.48305676550E+01  0.19517106198E+02  0.00000000000E+00 0. -1.
</event>
<event>
 7    1  0.2110035E-010  0.4778727E+02  0.7816164E-02  0.1312668E+00
        -11   -1    0    0    0    0  0.00000000000E+00  0.00000000000E+00  0.45593999997E+02  0.45594000000E+02  0.51100000000E-03 0. -1.
         11   -1    0    0    0    0 -0.00000000000E+00 -0.00000000000E+00 -0.45593999997E+02  0.45594000000E+02  0.51100000000E-03 0.  1.
    9900012    2    1    2    0    0  0.27470936461E+02  0.18635635305E+02 -0.27958608379E+02  0.47787273788E+02  0.20000012508E+02 0.  0.
        -12    1    1    2    0    0 -0.27470936461E+02 -0.18635635305E+02  0.27958608379E+02  0.43400726212E+02  0.00000000000E+00 0.  1.
         11    1    3    3    0    0  0.10596567978E+02  0.68015819437E+01 -0.69724336333E+01  0.14393178971E+02  0.51100000000E-03 0. -1.
        -11    1    3    3    0    0 -0.17287642850E+01 -0.71580786567E+00  0.87484545400E+00  0.20655172919E+01  0.51100000000E-03 0.  1.
        -12    1    3    3    0    0  0.18603132768E+02  0.12549861227E+02 -0.21861020199E+02  0.31328577525E+02  0.00000000000E+00 0.  1.
</event>
<event>
 7    1  0.2110035E-010  0.4778726E+02  0.7816164E-02  0.1312668E+00
        -11   -1    0    0    0    0  0.00000000000E+00  0.00000000000E+00  0.45593999997E+02  0.45594000000E+02  0.51100000000E-03 0.  1.
         11   -1    0    0    0    0 -0.00000000000E+00 -0.00000000000E+00 -0.45593999997E+02  0.45594000000E+02  0.51100000000E-03 0. -1.
    9900012    2    1    2    0    0 -0.24252973170E+02  0.34739286464E+02  0.94127289373E+01  0.47787260402E+02  0.19999951476E+02 0.  0.
        -12    1    1    2    0    0  0.24252973170E+02 -0.34739286464E+02 -0.94127289373E+01  0.43400739598E+02  0.00000000000E+00 0.  1.
         11    1    3    3    0    0 -0.27574991076E+01  0.15155494232E+00 -0.46795675889E+00  0.28010273148E+01  0.51100000000E-03 0. -1.
        -11    1    3    3    0    0 -0.49716820992E+01  0.66462722127E+01 -0.45456634883E+01  0.94632771296E+01  0.51100000000E-03 0.  1.
         12    1    3    3    0    0 -0.16523791963E+02  0.27941459309E+02  0.14426349184E+02  0.35522955958E+02  0.00000000000E+00 0. -1.
</event>
<event>
 7    1  0.2110035E-010  0.4778728E+02  0.7816164E-02  0.1312668E+00
        -11   -1    0    0    0    0  0.00000000000E+00  0.00000000000E+00  0.45593999997E+02  0.45594000000E+02  0.51100000000E-03 0.  1.
         11   -1    0    0    0    0 -0.00000000000E+00 -0.00000000000E+00 -0.45593999997E+02  0.45594000000E+02  0.51100000000E-03 0. -1.
    9900012    2    1    2    0    0 -0.41973307444E+02 -0.10885167745E+02  0.18376301570E+01  0.47787282273E+02  0.20000051198E+02 0.  0.
        -12    1    1    2    0    0  0.41973307444E+02  0.10885167745E+02 -0.18376301570E+01  0.43400717727E+02  0.00000000000E+00 0.  1.
         11    1    3    3    0    0 -0.93052709777E+01  0.18270128408E+01 -0.80054684556E-01  0.94832722677E+01  0.51100000000E-03 0. -1.
        -11    1    3    3    0    0 -0.77830307205E+01  0.27822186496E+01 -0.25527558571E+01  0.86505994323E+01  0.51100000000E-03 0.  1.
        -12    1    3    3    0    0 -0.24885005745E+02 -0.15494399235E+02  0.44704406987E+01  0.29653410574E+02  0.00000000000E+00 0.  1.
</event>
<event>
 7    1  0.2248989E-010  0.4778727E+02  0.7816164E-02  0.1312668E+00
        -11   -1    0    0    0    0  0.00000000000E+00  0.00000000000E+00  0.45593999997E+02  0.45594000000E+02  0.51100000000E-03 0.  1.
         11   -1    0    0    0    0 -0.00000000000E+00 -0.00000000000E+00 -0.45593999997E+02  0.45594000000E+02  0.51100000000E-03 0. -1.
    9900012    2    1    2    0    0  0.13972826182E+02 -0.38920527035E+02 -0.13174820106E+02  0.47787272114E+02  0.20000004877E+02 0.  0.
        -12    1    1    2    0    0 -0.13972826182E+02  0.38920527035E+02  0.13174820106E+02  0.43400727886E+02  0.00000000000E+00 0.  1.
         11    1    3    3    0    0  0.59213201773E+01 -0.15858412055E+02 -0.96072545638E+01  0.19464085030E+02  0.51100000000E-03 0. -1.
        -11    1    3    3    0    0  0.38885627214E+01 -0.39263005874E+01 -0.64889356500E+01  0.85230887870E+01  0.51100000000E-03 0.  1.
        -12    1    3    3    0    0  0.41629432828E+01 -0.19135814393E+02  0.29213701081E+01  0.19800098297E+02  0.00000000000E+00 0.  1.
</event>
<event>
 7    1  0.2110035E-010  0.4778727E+02  0.7816164E-02  0.1312668E+00
        -11   -1    0    0    0    0  0.00000000000E+00  0.00000000000E+00  0.45593999997E+02  0.45594000000E+02  0.51100000000E-03 0. -1.
         11   -1    0    0    0    0 -0.00000000000E+00 -0.00000000000E+00 -0.45593999997E+02  0.45594000000E+02  0.51100000000E-03 0.  1.
    9900012    2    1    2    0    0 -0.32407889683E+02  0.26810924877E+02  0.10701699676E+02  0.47787269795E+02  0.19999994301E+02 0.  0.
        -12    1    1    2    0    0  0.32407889683E+02 -0.26810924877E+02 -0.10701699676E+02  0.43400730205E+02  0.00000000000E+00 0.  1.
         11    1    3    3    0    0 -0.97645949701E+01  0.10702225035E+02  0.69272881503E+01  0.16058401446E+02  0.51100000000E-03 0. -1.
        -11    1    3    3    0    0 -0.14448467647E+02  0.12164484815E+01  0.20440296213E+01  0.14642951261E+02  0.51100000000E-03 0.  1.
        -12    1    3    3    0    0 -0.81948270652E+01  0.14892251360E+02  0.17303819040E+01  0.17085917088E+02  0.00000000000E+00 0.  1.
</event>
<event>
 7    1  0.2110035E-010  0.4778731E+02  0.7816164E-02  0.1312668E+00
        -11   -1    0    0    0    0  0.00000000000E+00  0.00000000000E+00  0.45593999997E+02  0.45594000000E+02  0.51100000000E-03 0. -1.
         11   -1    0    0    0    0 -0.00000000000E+00 -0.00000000000E+00 -0.45593999997E+02  0.45594000000E+02  0.51100000000E-03 0.  1.
    9900012    2    1    2    0    0 -0.36228419187E+02  0.14220422329E+02  0.19206809750E+02  0.47787305204E+02  0.20000155745E+02 0.  0.
        -12    1    1    2    0    0  0.36228419187E+02 -0.14220422329E+02 -0.19206809750E+02  0.43400694796E+02  0.00000000000E+00 0.  1.
         11    1    3    3    0    0 -0.29107302894E+02  0.98851935594E+01  0.16113090399E+02  0.34707114774E+02  0.51100000000E-03 0. -1.
        -11    1    3    3    0    0 -0.47243181881E+01  0.74185802367E+01  0.19198392650E+01  0.90022385069E+01  0.51100000000E-03 0.  1.
        -12    1    3    3    0    0 -0.23967981055E+01 -0.30833514673E+01  0.11738800868E+01  0.40779519231E+01  0.00000000000E+00 0.  1.
</event>
<event>
 7    1  0.2110035E-010  0.4778729E+02  0.7816164E-02  0.1312668E+00
        -11   -1    0    0    0    0  0.00000000000E+00  0.00000000000E+00  0.45593999997E+02  0.45594000000E+02  0.51100000000E-03 0. -1.
         11   -1    0    0    0    0 -0.00000000000E+00 -0.00000000000E+00 -0.45593999997E+02  0.45594000000E+02  0.51100000000E-03 0.  1.
    9900012    2    1    2    0    0 -0.84779188130E+01 -0.37467887952E+02  0.20196622480E+02  0.47787293847E+02  0.20000103966E+02 0.  0.
        -12    1    1    2    0    0  0.84779188130E+01  0.37467887952E+02 -0.20196622480E+02  0.43400706153E+02  0.00000000000E+00 0.  1.
         11    1    3    3    0    0 -0.67986896194E+01 -0.33104267644E+02  0.18547943122E+02  0.38550498195E+02  0.51100000000E-03 0. -1.
        -11    1    3    3    0    0  0.87608941454E+00 -0.10037819934E+01  0.41305277467E+01  0.43400887871E+01  0.51100000000E-03 0.  1.
         12    1    3    3    0    0 -0.25553186081E+01 -0.33598383151E+01 -0.24818483893E+01  0.48967068648E+01  0.00000000000E+00 0. -1.
</event>
<event>
 7    1  0.2110035E-010  0.4778727E+02  0.7816164E-02  0.1312668E+00
        -11   -1    0    0    0    0  0.00000000000E+00  0.00000000000E+00  0.45593999997E+02  0.45594000000E+02  0.51100000000E-03 0.  1.
         11   -1    0    0    0    0 -0.00000000000E+00 -0.00000000000E+00 -0.45593999997E+02  0.45594000000E+02  0.51100000000E-03 0. -1.
    9900012    2    1    2    0    0  0.21250066789E+02 -0.32714513531E+02 -0.19021524826E+02  0.47787272578E+02  0.20000006992E+02 0.  0.
        -12    1    1    2    0    0 -0.21250066789E+02  0.32714513531E+02  0.19021524826E+02  0.43400727422E+02  0.00000000000E+00 0.  1.
         11    1    3    3    0    0  0.14360531915E+01 -0.78847778040E+00 -0.38383309378E+00  0.16826390237E+01  0.51100000000E-03 0. -1.
        -11    1    3    3    0    0  0.15389458257E+02 -0.33700721283E+02 -0.14474393450E+02  0.39775395742E+02  0.51100000000E-03 0.  1.
        -12    1    3    3    0    0  0.44245553403E+01  0.17746855327E+01 -0.41632982817E+01  0.63292378120E+01  0.00000000000E+00 0.  1.
</event>
<event>
 7    1  0.2110035E-010  0.4778726E+02  0.7816164E-02  0.1312668E+00
        -11   -1    0    0    0    0  0.00000000000E+00  0.00000000000E+00  0.45593999997E+02  0.45594000000E+02  0.51100000000E-03 0.  1.
         11   -1    0    0    0    0 -0.00000000000E+00 -0.00000000000E+00 -0.45593999997E+02  0.45594000000E+02  0.51100000000E-03 0. -1.
    9900012    2    1    2    0    0  0.15246896623E+02  0.14946901007E+02 -0.37785530235E+02  0.47787262662E+02  0.19999961783E+02 0.  0.
        -12    1    1    2    0    0 -0.15246896623E+02 -0.14946901007E+02  0.37785530235E+02  0.43400737338E+02  0.00000000000E+00 0.  1.
         11    1    3    3    0    0  0.68964237928E+01  0.16907375956E+01 -0.13833457351E+02  0.15549398615E+02  0.51100000000E-03 0. -1.
        -11    1    3    3    0    0  0.52757467251E+01  0.15446368080E+02 -0.13690179171E+02  0.21303633408E+02  0.51100000000E-03 0.  1.
        -12    1    3    3    0    0  0.30747261054E+01 -0.21902046689E+01 -0.10261893712E+02  0.10934230639E+02  0.00000000000E+00 0.  1.
</event>
<event>
 7    1  0.2110035E-010  0.4778727E+02  0.7816164E-02  0.1312668E+00
        -11   -1    0    0    0    0  0.00000000000E+00  0.00000000000E+00  0.45593999997E+02  0.45594000000E+02  0.51100000000E-03 0.  1.
         11   -1    0    0    0    0 -0.00000000000E+00 -0.00000000000E+00 -0.45593999997E+02  0.45594000000E+02  0.51100000000E-03 0. -1.
    9900012    2    1    2    0    0  0.17605029904E+02  0.33646579806E+02 -0.21014133494E+02  0.47787271699E+02  0.20000002983E+02 0.  0.
        -12    1    1    2    0    0 -0.17605029904E+02 -0.33646579806E+02  0.21014133494E+02  0.43400728301E+02  0.00000000000E+00 0.  1.
         11    1    3    3    0    0  0.95852038658E+00  0.12172246881E+02 -0.40158032473E+01  0.12853366541E+02  0.51100000000E-03 0. -1.
        -11    1    3    3    0    0  0.68163614094E+01  0.14119554097E+02 -0.24032485854E+01  0.15861910187E+02  0.51100000000E-03 0.  1.
         12    1    3    3    0    0  0.98301481077E+01  0.73547788277E+01 -0.14595081662E+02  0.19071994970E+02  0.00000000000E+00 0. -1.
</event>
<event>
 7    1  0.2110035E-010  0.4778727E+02  0.7816164E-02  0.1312668E+00
        -11   -1    0    0    0    0  0.00000000000E+00  0.00000000000E+00  0.45593999997E+02  0.45594000000E+02  0.51100000000E-03 0. -1.
         11   -1    0    0    0    0 -0.00000000000E+00 -0.00000000000E+00 -0.45593999997E+02  0.45594000000E+02  0.51100000000E-03 0.  1.
    9900012    2    1    2    0    0  0.42308689936E+02  0.39709334231E+01 -0.88221245236E+01  0.47787269160E+02  0.19999991408E+02 0.  0.
        -12    1    1    2    0    0 -0.42308689936E+02 -0.39709334231E+01  0.88221245236E+01  0.43400730840E+02  0.00000000000E+00 0.  1.
         11    1    3    3    0    0  0.18039889862E+02  0.20909886091E+01 -0.93682749475E+01  0.20434638126E+02  0.51100000000E-03 0. -1.
        -11    1    3    3    0    0  0.24374662555E+02  0.39654448959E+01  0.20488447398E+01  0.24779965556E+02  0.51100000000E-03 0.  1.
         12    1    3    3    0    0 -0.10586248137E+00 -0.20855000819E+01 -0.15026943159E+01  0.25726654784E+01  0.00000000000E+00 0. -1.
</event>
<event>
 7    1  0.2110035E-010  0.4778728E+02  0.7816164E-02  0.1312668E+00
        -11   -1    0    0    0    0  0.00000000000E+00  0.00000000000E+00  0.45593999997E+02  0.45594000000E+02  0.51100000000E-03 0.  1.
         11   -1    0    0    0    0 -0.00000000000E+00 -0.00000000000E+00 -0.45593999997E+02  0.45594000000E+02  0.51100000000E-03 0. -1.
    9900012    2    1    2    0    0  0.19763176173E+02 -0.36245885201E+02 -0.13389362750E+02  0.47787281558E+02  0.20000047934E+02 0.  0.
        -12    1    1    2    0    0 -0.19763176173E+02  0.36245885201E+02  0.13389362750E+02  0.43400718442E+02  0.00000000000E+00 0.  1.
         11    1    3    3    0    0  0.32046830842E+01 -0.76080997815E+00 -0.20411319290E+01  0.38749252000E+01  0.51100000000E-03 0. -1.
        -11    1    3    3    0    0 -0.23832873404E+01 -0.65209917693E+01 -0.54029682718E+01  0.87974688751E+01  0.51100000000E-03 0.  1.
         12    1    3    3    0    0  0.18941780429E+02 -0.28964083454E+02 -0.59452625490E+01  0.35114887483E+02  0.00000000000E+00 0. -1.
</event>
<event>
 7    1  0.2110035E-010  0.4778726E+02  0.7816164E-02  0.1312668E+00
        -11   -1    0    0    0    0  0.00000000000E+00  0.00000000000E+00  0.45593999997E+02  0.45594000000E+02  0.51100000000E-03 0. -1.
         11   -1    0    0    0    0 -0.00000000000E+00 -0.00000000000E+00 -0.45593999997E+02  0.45594000000E+02  0.51100000000E-03 0.  1.
    9900012    2    1    2    0    0  0.23004042972E+02  0.18844780632E+02  0.31611906253E+02  0.47787258450E+02  0.19999942579E+02 0.  0.
        -12    1    1    2    0    0 -0.23004042972E+02 -0.18844780632E+02 -0.31611906253E+02  0.43400741550E+02  0.00000000000E+00 0.  1.
         11    1    3    3    0    0  0.25516374470E+01  0.57522808466E+01  0.57767417421E+01  0.85422674985E+01  0.51100000000E-03 0. -1.
        -11    1    3    3    0    0  0.19140316225E+02  0.31479984221E+01  0.18627907432E+02  0.26893503581E+02  0.51100000000E-03 0.  1.
        -12    1    3    3    0    0  0.13120892993E+01  0.99445013629E+01  0.72072570786E+01  0.12351487371E+02  0.00000000000E+00 0.  1.
</event>
<event>
 7    1  0.2110035E-010  0.4778727E+02  0.7816164E-02  0.1312668E+00
        -11   -1    0    0    0    0  0.00000000000E+00  0.00000000000E+00  0.45593999997E+02  0.45594000000E+02  0.51100000000E-03 0.  1.
         11   -1    0    0    0    0 -0.00000000000E+00 -0.00000000000E+00 -0.45593999997E+02  0.45594000000E+02  0.51100000000E-03 0. -1.
    9900012    2    1    2    0    0 -0.17218040683E+02  0.13275783685E+02 -0.37562160005E+02  0.47787271646E+02  0.20000002743E+02 0.  0.
        -12    1    1    2    0    0  0.17218040683E+02 -0.13275783685E+02  0.37562160005E+02  0.43400728354E+02  0.00000000000E+00 0.  1.
         11    1    3    3    0    0 -0.18139081805E+02  0.14173098229E+02 -0.32958843915E+02  0.40201845662E+02  0.51100000000E-03 0. -1.
        -11    1    3    3    0    0  0.16445512693E+01  0.15865064225E+01 -0.44396538893E+01  0.49932032228E+01  0.51100000000E-03 0.  1.
         12    1    3    3    0    0 -0.72351014739E+00 -0.24838209667E+01 -0.16366220012E+00  0.25922227612E+01  0.00000000000E+00 0. -1.
</event>
<event>
 7    1  0.2110035E-010  0.4778726E+02  0.7816164E-02  0.1312668E+00
        -11   -1    0    0    0    0  0.00000000000E+00  0.00000000000E+00  0.45593999997E+02  0.45594000000E+02  0.51100000000E-03 0.  1.
         11   -1    0    0    0    0 -0.00000000000E+00 -0.00000000000E+00 -0.45593999997E+02  0.45594000000E+02  0.51100000000E-03 0. -1.
    9900012    2    1    2    0    0  0.25420969311E+02  0.43527439776E+01 -0.34906334308E+02  0.47787259964E+02  0.19999949482E+02 0.  0.
        -12    1    1    2    0    0 -0.25420969311E+02 -0.43527439776E+01  0.34906334308E+02  0.43400740036E+02  0.00000000000E+00 0.  1.
         11    1    3    3    0    0  0.24822525542E+02  0.48700612448E+01 -0.31166337058E+02  0.40139953123E+02  0.51100000000E-03 0. -1.
        -11    1    3    3    0    0  0.31324187186E+00  0.28319026094E+01 -0.34532324186E+00  0.28700246100E+01  0.51100000000E-03 0.  1.
        -12    1    3    3    0    0  0.28520189692E+00 -0.33492198766E+01 -0.33946740077E+01  0.47772822318E+01  0.00000000000E+00 0.  1.
</event>
<event>
 7    1  0.2110035E-010  0.4778728E+02  0.7816164E-02  0.1312668E+00
        -11   -1    0    0    0    0  0.00000000000E+00  0.00000000000E+00  0.45593999997E+02  0.45594000000E+02  0.51100000000E-03 0.  1.
         11   -1    0    0    0    0 -0.00000000000E+00 -0.00000000000E+00 -0.45593999997E+02  0.45594000000E+02  0.51100000000E-03 0. -1.
    9900012    2    1    2    0    0  0.37007982300E+02  0.83594903043E+01 -0.21074888971E+02  0.47787276766E+02  0.20000026087E+02 0.  0.
        -12    1    1    2    0    0 -0.37007982300E+02 -0.83594903043E+01  0.21074888971E+02  0.43400723234E+02  0.00000000000E+00 0.  1.
         11    1    3    3    0    0 -0.84363928514E-01  0.46372892828E+00  0.69539337032E+00  0.84007975334E+00  0.51100000000E-03 0. -1.
        -11    1    3    3    0    0  0.17737556848E+02  0.38866749359E+01 -0.86759269569E+00  0.18179105653E+02  0.51100000000E-03 0.  1.
         12    1    3    3    0    0  0.19354789381E+02  0.40090864401E+01 -0.20902689646E+02  0.28768091360E+02  0.00000000000E+00 0. -1.
</event>
<event>
 7    1  0.2110035E-010  0.4778727E+02  0.7816164E-02  0.1312668E+00
        -11   -1    0    0    0    0  0.00000000000E+00  0.00000000000E+00  0.45593999997E+02  0.45594000000E+02  0.51100000000E-03 0.  1.
         11   -1    0    0    0    0 -0.00000000000E+00 -0.00000000000E+00 -0.45593999997E+02  0.45594000000E+02  0.51100000000E-03 0. -1.
    9900012    2    1    2    0    0  0.23016100773E+02  0.77342051882E+01 -0.35973106082E+02  0.47787272058E+02  0.20000004623E+02 0.  0.
        -12    1    1    2    0    0 -0.23016100773E+02 -0.77342051882E+01  0.35973106082E+02  0.43400727942E+02  0.00000000000E+00 0.  1.
         11    1    3    3    0    0  0.39182538830E+01 -0.10490002695E+01  0.23918949819E+00  0.40632901613E+01  0.51100000000E-03 0. -1.
        -11    1    3    3    0    0  0.74481313404E+01  0.12216911797E+01 -0.24238568635E+02  0.25386520036E+02  0.51100000000E-03 0.  1.
         12    1    3    3    0    0  0.11649715550E+02  0.75615142780E+01 -0.11973726945E+02  0.18337461861E+02  0.00000000000E+00 0. -1.
</event>
<event>
 7    1  0.2110035E-010  0.4778727E+02  0.7816164E-02  0.1312668E+00
        -11   -1    0    0    0    0  0.00000000000E+00  0.00000000000E+00  0.45593999997E+02  0.45594000000E+02  0.51100000000E-03 0.  1.
         11   -1    0    0    0    0 -0.00000000000E+00 -0.00000000000E+00 -0.45593999997E+02  0.45594000000E+02  0.51100000000E-03 0. -1.
    9900012    2    1    2    0    0  0.13892201239E+02  0.14644345196E+02 -0.38420998016E+02  0.47787272010E+02  0.20000004403E+02 0.  0.
        -12    1    1    2    0    0 -0.13892201239E+02 -0.14644345196E+02  0.38420998016E+02  0.43400727990E+02  0.00000000000E+00 0.  1.
         11    1    3    3    0    0  0.38603551110E+01  0.17254308408E+02 -0.24544315422E+02  0.30249577187E+02  0.51100000000E-03 0. -1.
        -11    1    3    3    0    0  0.47507356514E+01  0.19634669032E-01 -0.51787964931E+01  0.70277882813E+01  0.51100000000E-03 0.  1.
         12    1    3    3    0    0  0.52811104769E+01 -0.26295978809E+01 -0.86978861013E+01  0.10509906542E+02  0.00000000000E+00 0. -1.
</event>
<event>
 7    1  0.2110035E-010  0.4778723E+02  0.7816164E-02  0.1312668E+00
        -11   -1    0    0    0    0  0.00000000000E+00  0.00000000000E+00  0.45593999997E+02  0.45594000000E+02  0.51100000000E-03 0.  1.
         11   -1    0    0    0    0 -0.00000000000E+00 -0.00000000000E+00 -0.45593999997E+02  0.45594000000E+02  0.51100000000E-03 0. -1.
    9900012    2    1    2    0    0  0.33795060066E+02 -0.24513730977E+02  0.11857381558E+02  0.47787232856E+02  0.19999825882E+02 0.  0.
        -12    1    1    2    0    0 -0.33795060066E+02  0.24513730977E+02 -0.11857381558E+02  0.43400767144E+02  0.00000000000E+00 0.  1.
         11    1    3    3    0    0  0.16844269552E+02 -0.15279486437E+02  0.47706385258E+01  0.23236848210E+02  0.51100000000E-03 0. -1.
        -11    1    3    3    0    0  0.64240420353E+01 -0.20307648573E+01  0.94218644489E+01  0.11582912066E+02  0.51100000000E-03 0.  1.
         12    1    3    3    0    0  0.10526748479E+02 -0.72034796827E+01 -0.23351214167E+01  0.12967472580E+02  0.00000000000E+00 0. -1.
</event>
<event>
 7    1  0.2110035E-010  0.4778728E+02  0.7816164E-02  0.1312668E+00
        -11   -1    0    0    0    0  0.00000000000E+00  0.00000000000E+00  0.45593999997E+02  0.45594000000E+02  0.51100000000E-03 0.  1.
         11   -1    0    0    0    0 -0.00000000000E+00 -0.00000000000E+00 -0.45593999997E+02  0.45594000000E+02  0.51100000000E-03 0. -1.
    9900012    2    1    2    0    0 -0.21828745731E+02 -0.17930533716E+02 -0.32948817322E+02  0.47787277167E+02  0.20000027914E+02 0.  0.
        -12    1    1    2    0    0  0.21828745731E+02  0.17930533716E+02  0.32948817322E+02  0.43400722833E+02  0.00000000000E+00 0.  1.
         11    1    3    3    0    0 -0.13493552865E+02 -0.53920131463E+01 -0.91684143594E+01  0.17181664553E+02  0.51100000000E-03 0. -1.
        -11    1    3    3    0    0 -0.54162738947E+01 -0.14149913253E+02 -0.15480557374E+02  0.21661110887E+02  0.51100000000E-03 0.  1.
         12    1    3    3    0    0 -0.29189189708E+01  0.16113926836E+01 -0.82998455891E+01  0.89445017268E+01  0.00000000000E+00 0. -1.
</event>
<event>
 7    1  0.2815622E-010  0.4778727E+02  0.7816164E-02  0.1312668E+00
        -11   -1    0    0    0    0  0.00000000000E+00  0.00000000000E+00  0.45593999997E+02  0.45594000000E+02  0.51100000000E-03 0.  1.
         11   -1    0    0    0    0 -0.00000000000E+00 -0.00000000000E+00 -0.45593999997E+02  0.45594000000E+02  0.51100000000E-03 0. -1.
    9900012    2    1    2    0    0 -0.37518439116E+02 -0.21517041316E+02  0.36064673296E+01  0.47787274807E+02  0.20000017153E+02 0.  0.
        -12    1    1    2    0    0  0.37518439116E+02  0.21517041316E+02 -0.36064673296E+01  0.43400725193E+02  0.00000000000E+00 0.  1.
         11    1    3    3    0    0 -0.19584114544E+02 -0.17565086007E+02  0.10342557786E+01  0.26327542122E+02  0.51100000000E-03 0. -1.
        -11    1    3    3    0    0  0.13256872303E+01 -0.90630076831E+00  0.10118424588E+01  0.18980656306E+01  0.51100000000E-03 0.  1.
        -12    1    3    3    0    0 -0.19260011803E+02 -0.30456545403E+01  0.15603690921E+01  0.19561667054E+02  0.00000000000E+00 0.  1.
</event>
<event>
 7    1  0.2110035E-010  0.4778727E+02  0.7816164E-02  0.1312668E+00
        -11   -1    0    0    0    0  0.00000000000E+00  0.00000000000E+00  0.45593999997E+02  0.45594000000E+02  0.51100000000E-03 0. -1.
         11   -1    0    0    0    0 -0.00000000000E+00 -0.00000000000E+00 -0.45593999997E+02  0.45594000000E+02  0.51100000000E-03 0.  1.
    9900012    2    1    2    0    0  0.85008981955E+01  0.31435679533E+02  0.28690702528E+02  0.47787266949E+02  0.19999981328E+02 0.  0.
        -12    1    1    2    0    0 -0.85008981955E+01 -0.31435679533E+02 -0.28690702528E+02  0.43400733051E+02  0.00000000000E+00 0.  1.
         11    1    3    3    0    0  0.69789567674E+01  0.19441742599E+02  0.11473101551E+02  0.23628780169E+02  0.51100000000E-03 0. -1.
        -11    1    3    3    0    0  0.24638306485E+01  0.12331486647E+02  0.80383099590E+01  0.14924826688E+02  0.51100000000E-03 0.  1.
         12    1    3    3    0    0 -0.94188922036E+00 -0.33754971280E+00  0.91792910180E+01  0.92336600926E+01  0.00000000000E+00 0. -1.
</event>
<event>
 7    1  0.2110035E-010  0.4778726E+02  0.7816164E-02  0.1312668E+00
        -11   -1    0    0    0    0  0.00000000000E+00  0.00000000000E+00  0.45593999997E+02  0.45594000000E+02  0.51100000000E-03 0. -1.
         11   -1    0    0    0    0 -0.00000000000E+00 -0.00000000000E+00 -0.45593999997E+02  0.45594000000E+02  0.51100000000E-03 0.  1.
    9900012    2    1    2    0    0 -0.35110487795E+02  0.23601783102E+02  0.96867630381E+01  0.47787263866E+02  0.19999967273E+02 0.  0.
        -12    1    1    2    0    0  0.35110487795E+02 -0.23601783102E+02 -0.96867630381E+01  0.43400736134E+02  0.00000000000E+00 0.  1.
         11    1    3    3    0    0 -0.22195295504E+01  0.15964732820E+01 -0.27201867583E+01  0.38567414518E+01  0.51100000000E-03 0. -1.
        -11    1    3    3    0    0 -0.23570154936E+02  0.12408288245E+02  0.15164224411E+01  0.26679905512E+02  0.51100000000E-03 0.  1.
         12    1    3    3    0    0 -0.93208033085E+01  0.95970215751E+01  0.10890527355E+02  0.17250616902E+02  0.00000000000E+00 0. -1.
</event>
<event>
 7    1  0.2110035E-010  0.4778727E+02  0.7816164E-02  0.1312668E+00
        -11   -1    0    0    0    0  0.00000000000E+00  0.00000000000E+00  0.45593999997E+02  0.45594000000E+02  0.51100000000E-03 0. -1.
         11   -1    0    0    0    0 -0.00000000000E+00 -0.00000000000E+00 -0.45593999997E+02  0.45594000000E+02  0.51100000000E-03 0.  1.
    9900012    2    1    2    0    0 -0.31644014711E+02  0.29688937988E+02  0.92020334905E+00  0.47787268669E+02  0.19999989168E+02 0.  0.
        -12    1    1    2    0    0  0.31644014711E+02 -0.29688937988E+02 -0.92020334905E+00  0.43400731331E+02  0.00000000000E+00 0.  1.
         11    1    3    3    0    0 -0.10195119558E+02  0.15299780948E+02  0.27956086436E+01  0.18596752077E+02  0.51100000000E-03 0. -1.
        -11    1    3    3    0    0 -0.21303924141E+01 -0.26189796275E+01  0.86465185373E-01  0.33771441510E+01  0.51100000000E-03 0.  1.
         12    1    3    3    0    0 -0.19318502739E+02  0.17008136667E+02 -0.19618704799E+01  0.25813372441E+02  0.00000000000E+00 0. -1.
</event>
<event>
 7    1  0.2110035E-010  0.4778727E+02  0.7816164E-02  0.1312668E+00
        -11   -1    0    0    0    0  0.00000000000E+00  0.00000000000E+00  0.45593999997E+02  0.45594000000E+02  0.51100000000E-03 0.  1.
         11   -1    0    0    0    0 -0.00000000000E+00 -0.00000000000E+00 -0.45593999997E+02  0.45594000000E+02  0.51100000000E-03 0. -1.
    9900012    2    1    2    0    0  0.32026898153E+02  0.31727901145E+01 -0.29117600472E+02  0.47787268904E+02  0.19999990242E+02 0.  0.
        -12    1    1    2    0    0 -0.32026898153E+02 -0.31727901145E+01  0.29117600472E+02  0.43400731096E+02  0.00000000000E+00 0.  1.
         11    1    3    3    0    0  0.49400077228E+01 -0.38890224379E+01 -0.10824285144E+02  0.12517720279E+02  0.51100000000E-03 0. -1.
        -11    1    3    3    0    0  0.21343040875E+02  0.66964305431E+00 -0.14860724489E+02  0.26015667360E+02  0.51100000000E-03 0.  1.
        -12    1    3    3    0    0  0.57438495557E+01  0.63921694981E+01 -0.34325908382E+01  0.92538812654E+01  0.00000000000E+00 0.  1.
</event>
<event>
 7    1  0.2110035E-010  0.4778727E+02  0.7816164E-02  0.1312668E+00
        -11   -1    0    0    0    0  0.00000000000E+00  0.00000000000E+00  0.45593999997E+02  0.45594000000E+02  0.51100000000E-03 0.  1.
         11   -1    0    0    0    0 -0.00000000000E+00 -0.00000000000E+00 -0.45593999997E+02  0.45594000000E+02  0.51100000000E-03 0. -1.
    9900012    2    1    2    0    0  0.35321358077E+02 -0.23037708220E+02  0.10261046558E+02  0.47787269443E+02  0.19999992699E+02 0.  0.
        -12    1    1    2    0    0 -0.35321358077E+02  0.23037708220E+02 -0.10261046558E+02  0.43400730557E+02  0.00000000000E+00 0.  1.
         11    1    3    3    0    0  0.30429763241E+00 -0.34583905899E+00  0.13525795270E+01  0.14288713524E+01  0.51100000000E-03 0. -1.
        -11    1    3    3    0    0  0.22841859750E+01 -0.57858383005E+01 -0.39145335358E+01  0.73496260771E+01  0.51100000000E-03 0.  1.
         12    1    3    3    0    0  0.32732874469E+02 -0.16906030861E+02  0.12823000567E+02  0.39008772014E+02  0.00000000000E+00 0. -1.
</event>
<event>
 7    1  0.2110035E-010  0.4778729E+02  0.7816164E-02  0.1312668E+00
        -11   -1    0    0    0    0  0.00000000000E+00  0.00000000000E+00  0.45593999997E+02  0.45594000000E+02  0.51100000000E-03 0. -1.
         11   -1    0    0    0    0 -0.00000000000E+00 -0.00000000000E+00 -0.45593999997E+02  0.45594000000E+02  0.51100000000E-03 0.  1.
    9900012    2    1    2    0    0 -0.10975469777E+02 -0.30316777050E+02  0.29052607808E+02  0.47787286550E+02  0.20000070696E+02 0.  0.
        -12    1    1    2    0    0  0.10975469777E+02  0.30316777050E+02 -0.29052607808E+02  0.43400713450E+02  0.00000000000E+00 0.  1.
         11    1    3    3    0    0 -0.25561342439E+00 -0.14573183182E+02  0.56896762613E+01  0.15646578619E+02  0.51100000000E-03 0. -1.
        -11    1    3    3    0    0 -0.83409053610E+01 -0.16697465019E+02  0.16865185863E+02  0.25155725686E+02  0.51100000000E-03 0.  1.
        -12    1    3    3    0    0 -0.23789509916E+01  0.95387115102E+00  0.64977456834E+01  0.69849822447E+01  0.00000000000E+00 0.  1.
</event>
<event>
 7    1  0.2110035E-010  0.4778727E+02  0.7816164E-02  0.1312668E+00
        -11   -1    0    0    0    0  0.00000000000E+00  0.00000000000E+00  0.45593999997E+02  0.45594000000E+02  0.51100000000E-03 0.  1.
         11   -1    0    0    0    0 -0.00000000000E+00 -0.00000000000E+00 -0.45593999997E+02  0.45594000000E+02  0.51100000000E-03 0. -1.
    9900012    2    1    2    0    0 -0.16814585154E+02  0.30887492094E+02 -0.25433365864E+02  0.47787267968E+02  0.19999985972E+02 0.  0.
        -12    1    1    2    0    0  0.16814585154E+02 -0.30887492094E+02  0.25433365864E+02  0.43400732032E+02  0.00000000000E+00 0.  1.
         11    1    3    3    0    0  0.14153770895E+01  0.11509598971E+02 -0.32467858131E+01  0.12042249755E+02  0.51100000000E-03 0.  1.
        -11    1    3    3    0    0 -0.63143652274E+01  0.28896330601E+01 -0.23489814267E+01  0.73306821954E+01  0.51100000000E-03 0. -1.
        -12    1    3    3    0    0 -0.11915597016E+02  0.16488260063E+02 -0.19837598624E+02  0.28414336018E+02  0.00000000000E+00 0.  1.
</event>
<event>
 7    1  0.2110035E-010  0.4778727E+02  0.7816164E-02  0.1312668E+00
        -11   -1    0    0    0    0  0.00000000000E+00  0.00000000000E+00  0.45593999997E+02  0.45594000000E+02  0.51100000000E-03 0. -1.
         11   -1    0    0    0    0 -0.00000000000E+00 -0.00000000000E+00 -0.45593999997E+02  0.45594000000E+02  0.51100000000E-03 0.  1.
    9900012    2    1    2    0    0 -0.23551152639E+02 -0.24691963951E+02  0.26819270179E+02  0.47787272733E+02  0.20000007700E+02 0.  0.
        -12    1    1    2    0    0  0.23551152639E+02  0.24691963951E+02 -0.26819270179E+02  0.43400727267E+02  0.00000000000E+00 0.  1.
         11    1    3    3    0    0 -0.31400596741E+01 -0.11188776524E+02  0.38019177840E+01  0.12227153142E+02  0.51100000000E-03 0. -1.
        -11    1    3    3    0    0 -0.17194889423E+02 -0.15424826523E+02  0.17927867811E+02  0.29240347810E+02  0.51100000000E-03 0.  1.
        -12    1    3    3    0    0 -0.32162035416E+01  0.19216390964E+01  0.50894845837E+01  0.63197717811E+01  0.00000000000E+00 0.  1.
</event>
<event>
 7    1  0.2110035E-010  0.4778728E+02  0.7816164E-02  0.1312668E+00
        -11   -1    0    0    0    0  0.00000000000E+00  0.00000000000E+00  0.45593999997E+02  0.45594000000E+02  0.51100000000E-03 0.  1.
         11   -1    0    0    0    0 -0.00000000000E+00 -0.00000000000E+00 -0.45593999997E+02  0.45594000000E+02  0.51100000000E-03 0. -1.
    9900012    2    1    2    0    0 -0.36407764853E+02 -0.19193352707E+02 -0.13773617000E+02  0.47787278175E+02  0.20000032509E+02 0.  0.
        -12    1    1    2    0    0  0.36407764853E+02  0.19193352707E+02  0.13773617000E+02  0.43400721825E+02  0.00000000000E+00 0.  1.
         11    1    3    3    0    0 -0.70266965057E+00 -0.33960476963E+01 -0.56304136881E+01  0.66127485325E+01  0.51100000000E-03 0. -1.
        -11    1    3    3    0    0 -0.81293899890E+01 -0.17415005706E+01  0.20951711354E+01  0.85737709427E+01  0.51100000000E-03 0.  1.
         12    1    3    3    0    0 -0.27575705213E+02 -0.14055804440E+02 -0.10238374448E+02  0.32600758699E+02  0.00000000000E+00 0. -1.
</event>
<event>
 7    1  0.2110035E-010  0.4778727E+02  0.7816164E-02  0.1312668E+00
        -11   -1    0    0    0    0  0.00000000000E+00  0.00000000000E+00  0.45593999997E+02  0.45594000000E+02  0.51100000000E-03 0.  1.
         11   -1    0    0    0    0 -0.00000000000E+00 -0.00000000000E+00 -0.45593999997E+02  0.45594000000E+02  0.51100000000E-03 0. -1.
    9900012    2    1    2    0    0 -0.13036680199E+00 -0.95713883110E+01 -0.42331962362E+02  0.47787268357E+02  0.19999987749E+02 0.  0.
        -12    1    1    2    0    0  0.13036680199E+00  0.95713883110E+01  0.42331962362E+02  0.43400731643E+02  0.00000000000E+00 0.  1.
         11    1    3    3    0    0  0.70375244489E+00  0.18255300223E+01  0.56019969320E+00  0.20351047451E+01  0.51100000000E-03 0. -1.
        -11    1    3    3    0    0  0.24534480771E+00 -0.39798927664E+01 -0.25804325149E+01  0.47495655309E+01  0.51100000000E-03 0.  1.
         12    1    3    3    0    0 -0.10794640546E+01 -0.74170255669E+01 -0.40311729540E+02  0.41002598081E+02  0.00000000000E+00 0. -1.
</event>
<event>
 7    1  0.2110035E-010  0.4778728E+02  0.7816164E-02  0.1312668E+00
        -11   -1    0    0    0    0  0.00000000000E+00  0.00000000000E+00  0.45593999997E+02  0.45594000000E+02  0.51100000000E-03 0. -1.
         11   -1    0    0    0    0 -0.00000000000E+00 -0.00000000000E+00 -0.45593999997E+02  0.45594000000E+02  0.51100000000E-03 0.  1.
    9900012    2    1    2    0    0 -0.34823733184E+02 -0.21871532600E+02  0.13876824149E+02  0.47787279042E+02  0.20000036465E+02 0.  0.
        -12    1    1    2    0    0  0.34823733184E+02  0.21871532600E+02 -0.13876824149E+02  0.43400720958E+02  0.00000000000E+00 0.  1.
         11    1    3    3    0    0 -0.87951974718E+01 -0.38341625083E+01  0.75671289098E+01  0.12219563859E+02  0.51100000000E-03 0. -1.
        -11    1    3    3    0    0 -0.20383817091E+02 -0.56523687778E+01  0.58595746375E+01  0.21949576014E+02  0.51100000000E-03 0.  1.
        -12    1    3    3    0    0 -0.56447186215E+01 -0.12385001314E+02  0.45012060178E+00  0.13618139169E+02  0.00000000000E+00 0.  1.
</event>
<event>
 7    1  0.2110035E-010  0.4778727E+02  0.7816164E-02  0.1312668E+00
        -11   -1    0    0    0    0  0.00000000000E+00  0.00000000000E+00  0.45593999997E+02  0.45594000000E+02  0.51100000000E-03 0. -1.
         11   -1    0    0    0    0 -0.00000000000E+00 -0.00000000000E+00 -0.45593999997E+02  0.45594000000E+02  0.51100000000E-03 0.  1.
    9900012    2    1    2    0    0 -0.42917020811E+02 -0.62463713675E+01 -0.16538187557E+01  0.47787274810E+02  0.20000017170E+02 0.  0.
        -12    1    1    2    0    0  0.42917020811E+02  0.62463713675E+01  0.16538187557E+01  0.43400725190E+02  0.00000000000E+00 0.  1.
         11    1    3    3    0    0 -0.20108546683E+02 -0.10536813375E+02  0.39334976074E+01  0.23040192914E+02  0.51100000000E-03 0. -1.
        -11    1    3    3    0    0 -0.27853994484E+01  0.32900512415E+00 -0.31070650708E+01  0.41857553768E+01  0.51100000000E-03 0.  1.
         12    1    3    3    0    0 -0.20023074679E+02  0.39614368835E+01 -0.24802512922E+01  0.20561326520E+02  0.00000000000E+00 0. -1.
</event>
<event>
 7    1  0.2110035E-010  0.4778727E+02  0.7816164E-02  0.1312668E+00
        -11   -1    0    0    0    0  0.00000000000E+00  0.00000000000E+00  0.45593999997E+02  0.45594000000E+02  0.51100000000E-03 0. -1.
         11   -1    0    0    0    0 -0.00000000000E+00 -0.00000000000E+00 -0.45593999997E+02  0.45594000000E+02  0.51100000000E-03 0.  1.
    9900012    2    1    2    0    0  0.42215613175E+02  0.77662296654E+00  0.10043016226E+02  0.47787270584E+02  0.19999997900E+02 0.  0.
        -12    1    1    2    0    0 -0.42215613175E+02 -0.77662296654E+00 -0.10043016226E+02  0.43400729416E+02  0.00000000000E+00 0.  1.
         11    1    3    3    0    0  0.38734840995E+02  0.15257365750E+01  0.72137743819E+01  0.39430373066E+02  0.51100000000E-03 0. -1.
        -11    1    3    3    0    0  0.27437617977E+01 -0.27245519274E+01  0.43025142494E+01  0.57847248107E+01  0.51100000000E-03 0.  1.
        -12    1    3    3    0    0  0.73701038148E+00  0.19754383189E+01 -0.14732724055E+01  0.25721727071E+01  0.00000000000E+00 0.  1.
</event>
<event>
 7    1  0.2110035E-010  0.4778727E+02  0.7816164E-02  0.1312668E+00
        -11   -1    0    0    0    0  0.00000000000E+00  0.00000000000E+00  0.45593999997E+02  0.45594000000E+02  0.51100000000E-03 0.  1.
         11   -1    0    0    0    0 -0.00000000000E+00 -0.00000000000E+00 -0.45593999997E+02  0.45594000000E+02  0.51100000000E-03 0. -1.
    9900012    2    1    2    0    0  0.37158372370E+02  0.44578865095E+01 -0.21977391933E+02  0.47787272524E+02  0.20000006745E+02 0.  0.
        -12    1    1    2    0    0 -0.37158372370E+02 -0.44578865095E+01  0.21977391933E+02  0.43400727476E+02  0.00000000000E+00 0.  1.
         11    1    3    3    0    0 -0.76875424820E-02  0.21560695554E+01 -0.13603365609E+01  0.25493549863E+01  0.51100000000E-03 0. -1.
        -11    1    3    3    0    0  0.24722103121E+02 -0.49990802381E+01 -0.92308233607E+01  0.26858542144E+02  0.51100000000E-03 0.  1.
         12    1    3    3    0    0  0.12443956791E+02  0.73008971922E+01 -0.11386232011E+02  0.18379375393E+02  0.00000000000E+00 0. -1.
</event>
<event>
 7    1  0.2110035E-010  0.4778728E+02  0.7816164E-02  0.1312668E+00
        -11   -1    0    0    0    0  0.00000000000E+00  0.00000000000E+00  0.45593999997E+02  0.45594000000E+02  0.51100000000E-03 0.  1.
         11   -1    0    0    0    0 -0.00000000000E+00 -0.00000000000E+00 -0.45593999997E+02  0.45594000000E+02  0.51100000000E-03 0. -1.
    9900012    2    1    2    0    0  0.57628500825E+01 -0.42090821069E+02 -0.88755193845E+01  0.47787279917E+02  0.20000040455E+02 0.  0.
        -12    1    1    2    0    0 -0.57628500825E+01  0.42090821069E+02  0.88755193845E+01  0.43400720083E+02  0.00000000000E+00 0.  1.
         11    1    3    3    0    0  0.31107965676E+01 -0.18734036581E+02 -0.10223313336E+02  0.21567506062E+02  0.51100000000E-03 0. -1.
        -11    1    3    3    0    0  0.66569641835E+01 -0.87180487347E+01  0.12752833863E+01  0.11042911476E+02  0.51100000000E-03 0.  1.
        -12    1    3    3    0    0 -0.40049106686E+01 -0.14638735753E+02  0.72510564965E-01  0.15176862380E+02  0.00000000000E+00 0.  1.
</event>
<event>
 7    1  0.2110035E-010  0.4778727E+02  0.7816164E-02  0.1312668E+00
        -11   -1    0    0    0    0  0.00000000000E+00  0.00000000000E+00  0.45593999997E+02  0.45594000000E+02  0.51100000000E-03 0. -1.
         11   -1    0    0    0    0 -0.00000000000E+00 -0.00000000000E+00 -0.45593999997E+02  0.45594000000E+02  0.51100000000E-03 0.  1.
    9900012    2    1    2    0    0  0.20832398213E+02  0.34374530556E+02  0.16371505271E+02  0.47787270155E+02  0.19999995944E+02 0.  0.
        -12    1    1    2    0    0 -0.20832398213E+02 -0.34374530556E+02 -0.16371505271E+02  0.43400729845E+02  0.00000000000E+00 0.  1.
         11    1    3    3    0    0  0.86038522348E+01  0.16075362114E+02  0.14935939694E+02  0.23569595567E+02  0.51100000000E-03 0. -1.
        -11    1    3    3    0    0  0.42571802470E+01  0.46772219993E-01  0.31259311131E+00  0.42688975169E+01  0.51100000000E-03 0.  1.
        -12    1    3    3    0    0  0.79713657311E+01  0.18252396223E+02  0.11229724651E+01  0.19948777071E+02  0.00000000000E+00 0.  1.
</event>
<event>
 7    1  0.2110035E-010  0.4778726E+02  0.7816164E-02  0.1312668E+00
        -11   -1    0    0    0    0  0.00000000000E+00  0.00000000000E+00  0.45593999997E+02  0.45594000000E+02  0.51100000000E-03 0. -1.
         11   -1    0    0    0    0 -0.00000000000E+00 -0.00000000000E+00 -0.45593999997E+02  0.45594000000E+02  0.51100000000E-03 0.  1.
    9900012    2    1    2    0    0 -0.22452356291E+02 -0.24436812775E+02  0.27970660631E+02  0.47787262936E+02  0.19999963028E+02 0.  0.
        -12    1    1    2    0    0  0.22452356291E+02  0.24436812775E+02 -0.27970660631E+02  0.43400737064E+02  0.00000000000E+00 0.  1.
         11    1    3    3    0    0 -0.95217404781E+01 -0.10774103009E+02  0.14705458909E+02  0.20566850983E+02  0.51100000000E-03 0. -1.
        -11    1    3    3    0    0  0.11834108459E+01 -0.73842379210E+01  0.11023247296E+01  0.75592692091E+01  0.51100000000E-03 0.  1.
         12    1    3    3    0    0 -0.14114026659E+02 -0.62784718447E+01  0.12162876992E+02  0.19661142743E+02  0.00000000000E+00 0. -1.
</event>
<event>
 7    1  0.2110035E-010  0.4778728E+02  0.7816164E-02  0.1312668E+00
        -11   -1    0    0    0    0  0.00000000000E+00  0.00000000000E+00  0.45593999997E+02  0.45594000000E+02  0.51100000000E-03 0. -1.
         11   -1    0    0    0    0 -0.00000000000E+00 -0.00000000000E+00 -0.45593999997E+02  0.45594000000E+02  0.51100000000E-03 0.  1.
    9900012    2    1    2    0    0 -0.19041665229E+02  0.36196301595E+02 -0.14521210601E+02  0.47787276260E+02  0.20000023782E+02 0.  0.
        -12    1    1    2    0    0  0.19041665229E+02 -0.36196301595E+02  0.14521210601E+02  0.43400723740E+02  0.00000000000E+00 0.  1.
         11    1    3    3    0    0 -0.55674699437E+01  0.64231328082E+01  0.43532035547E+01  0.95500648215E+01  0.51100000000E-03 0. -1.
        -11    1    3    3    0    0 -0.25380849733E+01  0.10785733838E+02 -0.86529666430E+01  0.14058725466E+02  0.51100000000E-03 0.  1.
         12    1    3    3    0    0 -0.10936110312E+02  0.18987434949E+02 -0.10221447512E+02  0.24178485973E+02  0.00000000000E+00 0. -1.
</event>
<event>
 7    1  0.2110035E-010  0.4778727E+02  0.7816164E-02  0.1312668E+00
        -11   -1    0    0    0    0  0.00000000000E+00  0.00000000000E+00  0.45593999997E+02  0.45594000000E+02  0.51100000000E-03 0. -1.
         11   -1    0    0    0    0 -0.00000000000E+00 -0.00000000000E+00 -0.45593999997E+02  0.45594000000E+02  0.51100000000E-03 0.  1.
    9900012    2    1    2    0    0  0.21964833453E+02  0.82701619492E+01  0.36507175076E+02  0.47787270521E+02  0.19999997614E+02 0.  0.
        -12    1    1    2    0    0 -0.21964833453E+02 -0.82701619492E+01 -0.36507175076E+02  0.43400729479E+02  0.00000000000E+00 0.  1.
         11    1    3    3    0    0  0.75391756402E+01  0.71454231445E+01  0.16998936427E+02  0.19921347373E+02  0.51100000000E-03 0. -1.
        -11    1    3    3    0    0 -0.19984988539E+00  0.46827970615E+01  0.62145653923E+01  0.77839162106E+01  0.51100000000E-03 0.  1.
        -12    1    3    3    0    0  0.14625507698E+02 -0.35580582568E+01  0.13293673256E+02  0.20082006937E+02  0.00000000000E+00 0.  1.
</event>
<event>
 7    1  0.2110035E-010  0.4778727E+02  0.7816164E-02  0.1312668E+00
        -11   -1    0    0    0    0  0.00000000000E+00  0.00000000000E+00  0.45593999997E+02  0.45594000000E+02  0.51100000000E-03 0. -1.
         11   -1    0    0    0    0 -0.00000000000E+00 -0.00000000000E+00 -0.45593999997E+02  0.45594000000E+02  0.51100000000E-03 0.  1.
    9900012    2    1    2    0    0  0.90706792382E+01 -0.39725962138E+02  0.14939677738E+02  0.47787271198E+02  0.20000000700E+02 0.  0.
        -12    1    1    2    0    0 -0.90706792382E+01  0.39725962138E+02 -0.14939677738E+02  0.43400728802E+02  0.00000000000E+00 0.  1.
         11    1    3    3    0    0  0.75558133019E+01 -0.84722818864E+01  0.79389247631E+01  0.13852667673E+02  0.51100000000E-03 0. -1.
        -11    1    3    3    0    0 -0.25329371990E+01 -0.24200883223E+01 -0.11701700423E+01  0.36934938109E+01  0.51100000000E-03 0.  1.
         12    1    3    3    0    0  0.40478031353E+01 -0.28833591929E+02  0.81709230172E+01  0.30241109714E+02  0.00000000000E+00 0. -1.
</event>
<event>
 7    1  0.2110035E-010  0.4778727E+02  0.7816164E-02  0.1312668E+00
        -11   -1    0    0    0    0  0.00000000000E+00  0.00000000000E+00  0.45593999997E+02  0.45594000000E+02  0.51100000000E-03 0.  1.
         11   -1    0    0    0    0 -0.00000000000E+00 -0.00000000000E+00 -0.45593999997E+02  0.45594000000E+02  0.51100000000E-03 0. -1.
    9900012    2    1    2    0    0  0.37447152041E+02  0.19335665674E+02  0.10366583190E+02  0.47787271780E+02  0.20000003353E+02 0.  0.
        -12    1    1    2    0    0 -0.37447152041E+02 -0.19335665674E+02 -0.10366583190E+02  0.43400728220E+02  0.00000000000E+00 0.  1.
         11    1    3    3    0    0  0.13951979198E+02  0.94201805632E+01  0.18141551883E+01  0.16931883673E+02  0.51100000000E-03 0. -1.
        -11    1    3    3    0    0  0.11100156639E+02  0.51279015234E+00  0.10360715014E+02  0.15192789310E+02  0.51100000000E-03 0.  1.
        -12    1    3    3    0    0  0.12395016203E+02  0.94026949584E+01 -0.18082870130E+01  0.15662598797E+02  0.00000000000E+00 0.  1.
</event>
<event>
 7    1  0.2110035E-010  0.4778727E+02  0.7816164E-02  0.1312668E+00
        -11   -1    0    0    0    0  0.00000000000E+00  0.00000000000E+00  0.45593999997E+02  0.45594000000E+02  0.51100000000E-03 0. -1.
         11   -1    0    0    0    0 -0.00000000000E+00 -0.00000000000E+00 -0.45593999997E+02  0.45594000000E+02  0.51100000000E-03 0.  1.
    9900012    2    1    2    0    0 -0.35637784045E+02  0.23247798965E+01  0.24661050217E+02  0.47787266699E+02  0.19999980189E+02 0.  0.
        -12    1    1    2    0    0  0.35637784045E+02 -0.23247798965E+01 -0.24661050217E+02  0.43400733301E+02  0.00000000000E+00 0.  1.
         11    1    3    3    0    0  0.21385556652E+01 -0.81657012656E+00  0.16919175376E+01  0.28465404125E+01  0.51100000000E-03 0. -1.
        -11    1    3    3    0    0 -0.16780358500E+02 -0.16359636950E+01  0.76470223335E+01  0.18513069962E+02  0.51100000000E-03 0.  1.
         12    1    3    3    0    0 -0.20995981210E+02  0.47773137180E+01  0.15322110346E+02  0.26427656325E+02  0.00000000000E+00 0. -1.
</event>
<event>
 7    1  0.2110035E-010  0.4778728E+02  0.7816164E-02  0.1312668E+00
        -11   -1    0    0    0    0  0.00000000000E+00  0.00000000000E+00  0.45593999997E+02  0.45594000000E+02  0.51100000000E-03 0. -1.
         11   -1    0    0    0    0 -0.00000000000E+00 -0.00000000000E+00 -0.45593999997E+02  0.45594000000E+02  0.51100000000E-03 0.  1.
    9900012    2    1    2    0    0  0.28893988036E+02 -0.31460212922E+02  0.76821457887E+01  0.47787275286E+02  0.20000019341E+02 0.  0.
        -12    1    1    2    0    0 -0.28893988036E+02  0.31460212922E+02 -0.76821457887E+01  0.43400724714E+02  0.00000000000E+00 0.  1.
         11    1    3    3    0    0  0.16918284337E+02 -0.23324290587E+02 -0.17357790650E+01  0.28866309177E+02  0.51100000000E-03 0. -1.
        -11    1    3    3    0    0  0.19504472091E+01 -0.56288844029E+01  0.45597665765E+01  0.75020034278E+01  0.51100000000E-03 0.  1.
         12    1    3    3    0    0  0.10025256489E+02 -0.25070379328E+01  0.48581582772E+01  0.11418962682E+02  0.00000000000E+00 0. -1.
</event>
<event>
 7    1  0.2110035E-010  0.4778727E+02  0.7816164E-02  0.1312668E+00
        -11   -1    0    0    0    0  0.00000000000E+00  0.00000000000E+00  0.45593999997E+02  0.45594000000E+02  0.51100000000E-03 0.  1.
         11   -1    0    0    0    0 -0.00000000000E+00 -0.00000000000E+00 -0.45593999997E+02  0.45594000000E+02  0.51100000000E-03 0. -1.
    9900012    2    1    2    0    0 -0.33332028926E+02 -0.17370943331E+02 -0.21699060228E+02  0.47787273747E+02  0.20000012320E+02 0.  0.
        -12    1    1    2    0    0  0.33332028926E+02  0.17370943331E+02  0.21699060228E+02  0.43400726253E+02  0.00000000000E+00 0.  1.
         11    1    3    3    0    0 -0.28598263461E+02 -0.11161791843E+02 -0.22422941169E+02  0.38016240754E+02  0.51100000000E-03 0. -1.
        -11    1    3    3    0    0  0.62634096388E-01  0.10369015826E+01 -0.93459313604E-01  0.10429874527E+01  0.51100000000E-03 0.  1.
        -12    1    3    3    0    0 -0.47963995617E+01 -0.72460530705E+01  0.81734025445E+00  0.87280455400E+01  0.00000000000E+00 0.  1.
</event>
<event>
 7    1  0.2110035E-010  0.4778727E+02  0.7816164E-02  0.1312668E+00
        -11   -1    0    0    0    0  0.00000000000E+00  0.00000000000E+00  0.45593999997E+02  0.45594000000E+02  0.51100000000E-03 0.  1.
         11   -1    0    0    0    0 -0.00000000000E+00 -0.00000000000E+00 -0.45593999997E+02  0.45594000000E+02  0.51100000000E-03 0. -1.
    9900012    2    1    2    0    0  0.30649280832E+02  0.43594090780E+01 -0.30417765050E+02  0.47787270816E+02  0.19999998961E+02 0.  0.
        -12    1    1    2    0    0 -0.30649280832E+02 -0.43594090780E+01  0.30417765050E+02  0.43400729184E+02  0.00000000000E+00 0.  1.
         11    1    3    3    0    0  0.43450975681E+01 -0.57193886590E+01 -0.27954233193E+01  0.77075074638E+01  0.51100000000E-03 0. -1.
        -11    1    3    3    0    0  0.13800108850E+02  0.15964880029E+01 -0.14276152849E+02  0.19919847355E+02  0.51100000000E-03 0.  1.
         12    1    3    3    0    0  0.12504074414E+02  0.84823097340E+01 -0.13346188882E+02  0.20159915998E+02  0.00000000000E+00 0. -1.
</event>
<event>
 7    1  0.2110035E-010  0.4778727E+02  0.7816164E-02  0.1312668E+00
        -11   -1    0    0    0    0  0.00000000000E+00  0.00000000000E+00  0.45593999997E+02  0.45594000000E+02  0.51100000000E-03 0.  1.
         11   -1    0    0    0    0 -0.00000000000E+00 -0.00000000000E+00 -0.45593999997E+02  0.45594000000E+02  0.51100000000E-03 0. -1.
    9900012    2    1    2    0    0  0.92019057182E+01 -0.80998117368E+01 -0.41633416084E+02  0.47787270123E+02  0.19999995798E+02 0.  0.
        -12    1    1    2    0    0 -0.92019057182E+01  0.80998117368E+01  0.41633416084E+02  0.43400729877E+02  0.00000000000E+00 0.  1.
         11    1    3    3    0    0  0.58098546187E+01 -0.26442477799E+01 -0.10323144083E+02  0.12137288043E+02  0.51100000000E-03 0. -1.
        -11    1    3    3    0    0 -0.56463374184E+01 -0.36153338305E+01 -0.72134570356E+01  0.98481332045E+01  0.51100000000E-03 0.  1.
        -12    1    3    3    0    0  0.90383885179E+01 -0.18402301264E+01 -0.24096814965E+02  0.25801848875E+02  0.00000000000E+00 0.  1.
</event>
<event>
 7    1  0.2110035E-010  0.4778727E+02  0.7816164E-02  0.1312668E+00
        -11   -1    0    0    0    0  0.00000000000E+00  0.00000000000E+00  0.45593999997E+02  0.45594000000E+02  0.51100000000E-03 0.  1.
         11   -1    0    0    0    0 -0.00000000000E+00 -0.00000000000E+00 -0.45593999997E+02  0.45594000000E+02  0.51100000000E-03 0. -1.
    9900012    2    1    2    0    0 -0.21089820150E+02  0.20809810927E+02 -0.31714264426E+02  0.47787270596E+02  0.19999997954E+02 0.  0.
        -12    1    1    2    0    0  0.21089820150E+02 -0.20809810927E+02  0.31714264426E+02  0.43400729404E+02  0.00000000000E+00 0.  1.
         11    1    3    3    0    0 -0.27204932073E+00  0.93712369993E+01 -0.72563093759E+01  0.11855299227E+02  0.51100000000E-03 0. -1.
        -11    1    3    3    0    0 -0.82781364156E+01  0.36194456891E+01 -0.17288488623E+02  0.19506915921E+02  0.51100000000E-03 0.  1.
         12    1    3    3    0    0 -0.12539634413E+02  0.78191282388E+01 -0.71694664266E+01  0.16425055448E+02  0.00000000000E+00 0. -1.
</event>
<event>
 7    1  0.2110035E-010  0.4778727E+02  0.7816164E-02  0.1312668E+00
        -11   -1    0    0    0    0  0.00000000000E+00  0.00000000000E+00  0.45593999997E+02  0.45594000000E+02  0.51100000000E-03 0. -1.
         11   -1    0    0    0    0 -0.00000000000E+00 -0.00000000000E+00 -0.45593999997E+02  0.45594000000E+02  0.51100000000E-03 0.  1.
    9900012    2    1    2    0    0  0.27409542551E+02  0.33542958075E+02  0.26851306642E+01  0.47787274361E+02  0.20000015124E+02 0.  0.
        -12    1    1    2    0    0 -0.27409542551E+02 -0.33542958075E+02 -0.26851306642E+01  0.43400725639E+02  0.00000000000E+00 0.  1.
         11    1    3    3    0    0  0.17527719886E+02  0.23305873448E+02  0.97355909529E+01  0.30743559212E+02  0.51100000000E-03 0. -1.
        -11    1    3    3    0    0  0.22624340627E+01 -0.38846285812E+00 -0.19396150260E+01  0.30052650449E+01  0.51100000000E-03 0.  1.
        -12    1    3    3    0    0  0.76193886019E+01  0.10625547485E+02 -0.51108452628E+01  0.14038450104E+02  0.00000000000E+00 0.  1.
</event>
<event>
 7    1  0.2110035E-010  0.4778727E+02  0.7816164E-02  0.1312668E+00
        -11   -1    0    0    0    0  0.00000000000E+00  0.00000000000E+00  0.45593999997E+02  0.45594000000E+02  0.51100000000E-03 0. -1.
         11   -1    0    0    0    0 -0.00000000000E+00 -0.00000000000E+00 -0.45593999997E+02  0.45594000000E+02  0.51100000000E-03 0.  1.
    9900012    2    1    2    0    0  0.12035761505E+02  0.38133875214E+02 -0.16869231742E+02  0.47787274506E+02  0.20000015784E+02 0.  0.
        -12    1    1    2    0    0 -0.12035761505E+02 -0.38133875214E+02  0.16869231742E+02  0.43400725494E+02  0.00000000000E+00 0.  1.
         11    1    3    3    0    0  0.65731148935E+01  0.65491849635E+01 -0.12429623709E+01  0.93617636589E+01  0.51100000000E-03 0.  1.
        -11    1    3    3    0    0  0.31949113075E+01  0.32476040057E+02 -0.14966091930E+02  0.35901038201E+02  0.51100000000E-03 0. -1.
         12    1    3    3    0    0  0.22677353042E+01 -0.89134980619E+00 -0.66017744042E+00  0.25244726459E+01  0.00000000000E+00 0. -1.
</event>
<event>
 7    1  0.2110035E-010  0.4778727E+02  0.7816164E-02  0.1312668E+00
        -11   -1    0    0    0    0  0.00000000000E+00  0.00000000000E+00  0.45593999997E+02  0.45594000000E+02  0.51100000000E-03 0.  1.
         11   -1    0    0    0    0 -0.00000000000E+00 -0.00000000000E+00 -0.45593999997E+02  0.45594000000E+02  0.51100000000E-03 0. -1.
    9900012    2    1    2    0    0  0.17890512844E+02  0.99168899425E+01 -0.38278040509E+02  0.47787267965E+02  0.19999985960E+02 0.  0.
        -12    1    1    2    0    0 -0.17890512844E+02 -0.99168899425E+01  0.38278040509E+02  0.43400732035E+02  0.00000000000E+00 0.  1.
         11    1    3    3    0    0  0.82272232444E+01  0.66693963017E+01 -0.12539416351E+02  0.16413561832E+02  0.51100000000E-03 0. -1.
        -11    1    3    3    0    0  0.17464899711E+01  0.51399367738E+01 -0.12540110454E+01  0.55715097793E+01  0.51100000000E-03 0.  1.
         12    1    3    3    0    0  0.79167996287E+01 -0.18924431330E+01 -0.24484613113E+02  0.25802196354E+02  0.00000000000E+00 0. -1.
</event>
<event>
 7    1  0.2110035E-010  0.4778727E+02  0.7816164E-02  0.1312668E+00
        -11   -1    0    0    0    0  0.00000000000E+00  0.00000000000E+00  0.45593999997E+02  0.45594000000E+02  0.51100000000E-03 0.  1.
         11   -1    0    0    0    0 -0.00000000000E+00 -0.00000000000E+00 -0.45593999997E+02  0.45594000000E+02  0.51100000000E-03 0. -1.
    9900012    2    1    2    0    0 -0.24735051862E+02  0.11451853725E+02 -0.33773590831E+02  0.47787272103E+02  0.20000004826E+02 0.  0.
        -12    1    1    2    0    0  0.24735051862E+02 -0.11451853725E+02  0.33773590831E+02  0.43400727897E+02  0.00000000000E+00 0.  1.
         11    1    3    3    0    0 -0.13964739851E+02  0.10581555121E+02 -0.28685369537E+02  0.33612998879E+02  0.51100000000E-03 0. -1.
        -11    1    3    3    0    0 -0.21065551318E+01 -0.30134807925E+01 -0.20271783042E+01  0.41985822783E+01  0.51100000000E-03 0.  1.
        -12    1    3    3    0    0 -0.86637568794E+01  0.38837793958E+01 -0.30610429902E+01  0.99756909459E+01  0.00000000000E+00 0.  1.
</event>
<event>
 7    1  0.2110035E-010  0.4778727E+02  0.7816164E-02  0.1312668E+00
        -11   -1    0    0    0    0  0.00000000000E+00  0.00000000000E+00  0.45593999997E+02  0.45594000000E+02  0.51100000000E-03 0.  1.
         11   -1    0    0    0    0 -0.00000000000E+00 -0.00000000000E+00 -0.45593999997E+02  0.45594000000E+02  0.51100000000E-03 0. -1.
    9900012    2    1    2    0    0  0.32025676368E+02  0.11345324621E+02 -0.27004865850E+02  0.47787272851E+02  0.20000008235E+02 0.  0.
        -12    1    1    2    0    0 -0.32025676368E+02 -0.11345324621E+02  0.27004865850E+02  0.43400727149E+02  0.00000000000E+00 0.  1.
         11    1    3    3    0    0  0.17680510323E+02  0.15837330414E+01 -0.15738737700E+02  0.23723754346E+02  0.51100000000E-03 0. -1.
        -11    1    3    3    0    0 -0.16146783096E+01  0.26063725790E+01 -0.41992074306E+01  0.51993949042E+01  0.51100000000E-03 0.  1.
         12    1    3    3    0    0  0.15959844354E+02  0.71552190002E+01 -0.70669207188E+01  0.18864123600E+02  0.00000000000E+00 0. -1.
</event>
<event>
 7    1  0.2110035E-010  0.4778727E+02  0.7816164E-02  0.1312668E+00
        -11   -1    0    0    0    0  0.00000000000E+00  0.00000000000E+00  0.45593999997E+02  0.45594000000E+02  0.51100000000E-03 0.  1.
         11   -1    0    0    0    0 -0.00000000000E+00 -0.00000000000E+00 -0.45593999997E+02  0.45594000000E+02  0.51100000000E-03 0. -1.
    9900012    2    1    2    0    0  0.18270798180E+02 -0.36244443875E+02  0.15366897587E+02  0.47787270520E+02  0.19999997610E+02 0.  0.
        -12    1    1    2    0    0 -0.18270798180E+02  0.36244443875E+02 -0.15366897587E+02  0.43400729480E+02  0.00000000000E+00 0.  1.
         11    1    3    3    0    0  0.14562911602E+02 -0.33021661082E+02  0.10770575785E+02  0.37663162346E+02  0.51100000000E-03 0. -1.
        -11    1    3    3    0    0  0.50192305845E+01 -0.33512399781E+01  0.57773086578E+01  0.83546861485E+01  0.51100000000E-03 0.  1.
         12    1    3    3    0    0 -0.13113440069E+01  0.12845718495E+00 -0.11809868552E+01  0.17694220256E+01  0.00000000000E+00 0. -1.
</event>
<event>
 7    1  0.2110035E-010  0.4778727E+02  0.7816164E-02  0.1312668E+00
        -11   -1    0    0    0    0  0.00000000000E+00  0.00000000000E+00  0.45593999997E+02  0.45594000000E+02  0.51100000000E-03 0.  1.
         11   -1    0    0    0    0 -0.00000000000E+00 -0.00000000000E+00 -0.45593999997E+02  0.45594000000E+02  0.51100000000E-03 0. -1.
    9900012    2    1    2    0    0  0.38817036955E+02 -0.13972459124E+02  0.13477075398E+02  0.47787268056E+02  0.19999986376E+02 0.  0.
        -12    1    1    2    0    0 -0.38817036955E+02  0.13972459124E+02 -0.13477075398E+02  0.43400731944E+02  0.00000000000E+00 0.  1.
         11    1    3    3    0    0  0.96150767360E+01 -0.80246904157E+01  0.99808856737E+01  0.16014475827E+02  0.51100000000E-03 0. -1.
        -11    1    3    3    0    0  0.20289923551E+01  0.18423815185E+01 -0.14108057472E+01  0.30824588812E+01  0.51100000000E-03 0.  1.
         12    1    3    3    0    0  0.27172967864E+02 -0.77901502272E+01  0.49069954714E+01  0.28690333349E+02  0.00000000000E+00 0. -1.
</event>
<event>
 7    1  0.2110035E-010  0.4778728E+02  0.7816164E-02  0.1312668E+00
        -11   -1    0    0    0    0  0.00000000000E+00  0.00000000000E+00  0.45593999997E+02  0.45594000000E+02  0.51100000000E-03 0. -1.
         11   -1    0    0    0    0 -0.00000000000E+00 -0.00000000000E+00 -0.45593999997E+02  0.45594000000E+02  0.51100000000E-03 0.  1.
    9900012    2    1    2    0    0 -0.64890657751E+01  0.40824624515E+02  0.13223651327E+02  0.47787275400E+02  0.20000019859E+02 0.  0.
        -12    1    1    2    0    0  0.64890657751E+01 -0.40824624515E+02 -0.13223651327E+02  0.43400724600E+02  0.00000000000E+00 0.  1.
         11    1    3    3    0    0 -0.37556641240E+00  0.20702631631E+02  0.41070328070E+01  0.21109422666E+02  0.51100000000E-03 0. -1.
        -11    1    3    3    0    0  0.38817257045E+01  0.20097983860E+01  0.19262347348E+01  0.47767629742E+01  0.51100000000E-03 0.  1.
         12    1    3    3    0    0 -0.99952250672E+01  0.18112194498E+02  0.71903837854E+01  0.21901089759E+02  0.00000000000E+00 0. -1.
</event>
<event>
 7    1  0.2110035E-010  0.4778727E+02  0.7816164E-02  0.1312668E+00
        -11   -1    0    0    0    0  0.00000000000E+00  0.00000000000E+00  0.45593999997E+02  0.45594000000E+02  0.51100000000E-03 0.  1.
         11   -1    0    0    0    0 -0.00000000000E+00 -0.00000000000E+00 -0.45593999997E+02  0.45594000000E+02  0.51100000000E-03 0. -1.
    9900012    2    1    2    0    0  0.31176369219E+02  0.21569125402E+02 -0.21128886058E+02  0.47787274265E+02  0.20000014684E+02 0.  0.
        -12    1    1    2    0    0 -0.31176369219E+02 -0.21569125402E+02  0.21128886058E+02  0.43400725735E+02  0.00000000000E+00 0.  1.
         11    1    3    3    0    0  0.16469304263E+02  0.89577065091E+01 -0.67691378074E+01  0.19932378577E+02  0.51100000000E-03 0. -1.
        -11    1    3    3    0    0 -0.56326216799E+00 -0.15156762451E+01  0.10834667672E+01  0.19463913395E+01  0.51100000000E-03 0.  1.
         12    1    3    3    0    0  0.15270327124E+02  0.14127095138E+02 -0.15443215017E+02  0.25908504349E+02  0.00000000000E+00 0. -1.
</event>
<event>
 7    1  0.2110035E-010  0.4778727E+02  0.7816164E-02  0.1312668E+00
        -11   -1    0    0    0    0  0.00000000000E+00  0.00000000000E+00  0.45593999997E+02  0.45594000000E+02  0.51100000000E-03 0.  1.
         11   -1    0    0    0    0 -0.00000000000E+00 -0.00000000000E+00 -0.45593999997E+02  0.45594000000E+02  0.51100000000E-03 0. -1.
    9900012    2    1    2    0    0  0.12279400666E+02 -0.16358079885E+02 -0.38278627047E+02  0.47787265596E+02  0.19999975157E+02 0.  0.
        -12    1    1    2    0    0 -0.12279400666E+02  0.16358079885E+02  0.38278627047E+02  0.43400734404E+02  0.00000000000E+00 0.  1.
         11    1    3    3    0    0  0.46532304077E+01 -0.16697806885E+02 -0.30390196511E+02  0.34986188021E+02  0.51100000000E-03 0. -1.
        -11    1    3    3    0    0  0.14066966342E+01  0.21842154121E+01 -0.51328126765E+01  0.57528565618E+01  0.51100000000E-03 0.  1.
        -12    1    3    3    0    0  0.62194736240E+01 -0.18444884124E+01 -0.27556178595E+01  0.70482210132E+01  0.00000000000E+00 0.  1.
</event>
<event>
 7    1  0.2110035E-010  0.4778727E+02  0.7816164E-02  0.1312668E+00
        -11   -1    0    0    0    0  0.00000000000E+00  0.00000000000E+00  0.45593999997E+02  0.45594000000E+02  0.51100000000E-03 0.  1.
         11   -1    0    0    0    0 -0.00000000000E+00 -0.00000000000E+00 -0.45593999997E+02  0.45594000000E+02  0.51100000000E-03 0. -1.
    9900012    2    1    2    0    0  0.25854773412E+02 -0.17006140965E+02 -0.30429346941E+02  0.47787270813E+02  0.19999998943E+02 0.  0.
        -12    1    1    2    0    0 -0.25854773412E+02  0.17006140965E+02  0.30429346941E+02  0.43400729187E+02  0.00000000000E+00 0.  1.
         11    1    3    3    0    0  0.19358032885E+02 -0.16866169103E+02 -0.13029526497E+02  0.28791833189E+02  0.51100000000E-03 0. -1.
        -11    1    3    3    0    0  0.16885765591E+01  0.15793257779E+01 -0.35725409228E+01  0.42554212030E+01  0.51100000000E-03 0.  1.
         12    1    3    3    0    0  0.48081639682E+01 -0.17192976399E+01 -0.13827279521E+02  0.14740016420E+02  0.00000000000E+00 0. -1.
</event>
<event>
 7    1  0.2110035E-010  0.4778727E+02  0.7816164E-02  0.1312668E+00
        -11   -1    0    0    0    0  0.00000000000E+00  0.00000000000E+00  0.45593999997E+02  0.45594000000E+02  0.51100000000E-03 0.  1.
         11   -1    0    0    0    0 -0.00000000000E+00 -0.00000000000E+00 -0.45593999997E+02  0.45594000000E+02  0.51100000000E-03 0. -1.
    9900012    2    1    2    0    0 -0.26709885241E+02 -0.32708918601E+02  0.10016582536E+02  0.47787271304E+02  0.20000001184E+02 0.  0.
        -12    1    1    2    0    0  0.26709885241E+02  0.32708918601E+02 -0.10016582536E+02  0.43400728696E+02  0.00000000000E+00 0.  1.
         11    1    3    3    0    0 -0.12156940069E+02 -0.14559479418E+02  0.27803635994E+01  0.19170290942E+02  0.51100000000E-03 0. -1.
        -11    1    3    3    0    0 -0.16723783202E+02 -0.18446389467E+02  0.48306691722E+01  0.25363153863E+02  0.51100000000E-03 0.  1.
        -12    1    3    3    0    0  0.21708380297E+01  0.29695028479E+00  0.24055497644E+01  0.32538264999E+01  0.00000000000E+00 0.  1.
</event>
<event>
 7    1  0.2110035E-010  0.4778727E+02  0.7816164E-02  0.1312668E+00
        -11   -1    0    0    0    0  0.00000000000E+00  0.00000000000E+00  0.45593999997E+02  0.45594000000E+02  0.51100000000E-03 0.  1.
         11   -1    0    0    0    0 -0.00000000000E+00 -0.00000000000E+00 -0.45593999997E+02  0.45594000000E+02  0.51100000000E-03 0. -1.
    9900012    2    1    2    0    0  0.23126824417E+02  0.26887207740E+02 -0.25017018650E+02  0.47787272244E+02  0.20000005467E+02 0.  0.
        -12    1    1    2    0    0 -0.23126824417E+02 -0.26887207740E+02  0.25017018650E+02  0.43400727756E+02  0.00000000000E+00 0.  1.
         11    1    3    3    0    0  0.21819961750E+02  0.27190386860E+02 -0.25622240054E+02  0.43265772315E+02  0.51100000000E-03 0. -1.
        -11    1    3    3    0    0  0.12456741782E+01 -0.13420267717E+01 -0.13713958278E+01  0.22876771608E+01  0.51100000000E-03 0.  1.
        -12    1    3    3    0    0  0.61188489573E-01  0.10388476520E+01  0.19766172326E+01  0.22338227681E+01  0.00000000000E+00 0.  1.
</event>
<event>
 7    1  0.2569458E-010  0.4778726E+02  0.7816164E-02  0.1312668E+00
        -11   -1    0    0    0    0  0.00000000000E+00  0.00000000000E+00  0.45593999997E+02  0.45594000000E+02  0.51100000000E-03 0.  1.
         11   -1    0    0    0    0 -0.00000000000E+00 -0.00000000000E+00 -0.45593999997E+02  0.45594000000E+02  0.51100000000E-03 0. -1.
    9900012    2    1    2    0    0  0.24033482961E+02 -0.34565118164E+02 -0.10548382461E+02  0.47787261878E+02  0.19999958208E+02 0.  0.
        -12    1    1    2    0    0 -0.24033482961E+02  0.34565118164E+02  0.10548382461E+02  0.43400738122E+02  0.00000000000E+00 0.  1.
         11    1    3    3    0    0  0.73688024920E+01 -0.88600741294E+01 -0.55670920594E+00  0.11537334577E+02  0.51100000000E-03 0. -1.
        -11    1    3    3    0    0  0.24110848937E+01 -0.17504175983E+01 -0.77293731147E+01  0.82837492200E+01  0.51100000000E-03 0.  1.
        -12    1    3    3    0    0  0.14253595575E+02 -0.23954626437E+02 -0.22623001404E+01  0.27966178081E+02  0.00000000000E+00 0.  1.
</event>
<event>
 7    1  0.2110035E-010  0.4778727E+02  0.7816164E-02  0.1312668E+00
        -11   -1    0    0    0    0  0.00000000000E+00  0.00000000000E+00  0.45593999997E+02  0.45594000000E+02  0.51100000000E-03 0.  1.
         11   -1    0    0    0    0 -0.00000000000E+00 -0.00000000000E+00 -0.45593999997E+02  0.45594000000E+02  0.51100000000E-03 0. -1.
    9900012    2    1    2    0    0  0.37157836188E+02  0.28678283539E+01 -0.22241710984E+02  0.47787274924E+02  0.20000017687E+02 0.  0.
        -12    1    1    2    0    0 -0.37157836188E+02 -0.28678283539E+01  0.22241710984E+02  0.43400725076E+02  0.00000000000E+00 0.  1.
         11    1    3    3    0    0  0.41206400492E+01 -0.23406641685E+01 -0.68678621162E+01  0.83442143712E+01  0.51100000000E-03 0. -1.
        -11    1    3    3    0    0  0.37344883950E+01 -0.38509691203E+01 -0.59591708301E+00  0.53973589995E+01  0.51100000000E-03 0.  1.
        -12    1    3    3    0    0  0.29302707744E+02  0.90594616427E+01 -0.14777931785E+02  0.34045701553E+02  0.00000000000E+00 0.  1.
</event>
<event>
 7    1  0.2110035E-010  0.4778727E+02  0.7816164E-02  0.1312668E+00
        -11   -1    0    0    0    0  0.00000000000E+00  0.00000000000E+00  0.45593999997E+02  0.45594000000E+02  0.51100000000E-03 0. -1.
         11   -1    0    0    0    0 -0.00000000000E+00 -0.00000000000E+00 -0.45593999997E+02  0.45594000000E+02  0.51100000000E-03 0.  1.
    9900012    2    1    2    0    0  0.42593714564E+02  0.54774208385E+01  0.62766902669E+01  0.47787268438E+02  0.19999988116E+02 0.  0.
        -12    1    1    2    0    0 -0.42593714564E+02 -0.54774208385E+01 -0.62766902669E+01  0.43400731562E+02  0.00000000000E+00 0.  1.
         11    1    3    3    0    0  0.19395962420E+02  0.82241819852E+01  0.66306734187E+00  0.21077954978E+02  0.51100000000E-03 0. -1.
        -11    1    3    3    0    0 -0.11097232843E+01 -0.12527601167E+01 -0.15910659647E+00  0.16811332035E+01  0.51100000000E-03 0.  1.
        -12    1    3    3    0    0  0.24307475429E+02 -0.14940010300E+01  0.57727295215E+01  0.25028180256E+02  0.00000000000E+00 0.  1.
</event>
<event>
 7    1  0.2110035E-010  0.4778727E+02  0.7816164E-02  0.1312668E+00
        -11   -1    0    0    0    0  0.00000000000E+00  0.00000000000E+00  0.45593999997E+02  0.45594000000E+02  0.51100000000E-03 0.  1.
         11   -1    0    0    0    0 -0.00000000000E+00 -0.00000000000E+00 -0.45593999997E+02  0.45594000000E+02  0.51100000000E-03 0. -1.
    9900012    2    1    2    0    0  0.42620654484E+02 -0.80601276859E+01 -0.14621151549E+01  0.47787266968E+02  0.19999981415E+02 0.  0.
        -12    1    1    2    0    0 -0.42620654484E+02  0.80601276859E+01  0.14621151549E+01  0.43400733032E+02  0.00000000000E+00 0.  1.
         11    1    3    3    0    0  0.26176905113E+02 -0.25954805389E+01 -0.66802357896E+01  0.27140236384E+02  0.51100000000E-03 0. -1.
        -11    1    3    3    0    0  0.20918086619E+01  0.17802925687E+01 -0.16058597413E+01  0.31818062289E+01  0.51100000000E-03 0.  1.
        -12    1    3    3    0    0  0.14351940709E+02 -0.72449397156E+01  0.68239803760E+01  0.17465224355E+02  0.00000000000E+00 0.  1.
</event>
<event>
 7    1  0.2110035E-010  0.4778727E+02  0.7816164E-02  0.1312668E+00
        -11   -1    0    0    0    0  0.00000000000E+00  0.00000000000E+00  0.45593999997E+02  0.45594000000E+02  0.51100000000E-03 0.  1.
         11   -1    0    0    0    0 -0.00000000000E+00 -0.00000000000E+00 -0.45593999997E+02  0.45594000000E+02  0.51100000000E-03 0. -1.
    9900012    2    1    2    0    0 -0.20441458227E+02 -0.43278451361E+01 -0.38039978358E+02  0.47787269460E+02  0.19999992775E+02 0.  0.
        -12    1    1    2    0    0  0.20441458227E+02  0.43278451361E+01  0.38039978358E+02  0.43400730540E+02  0.00000000000E+00 0.  1.
         11    1    3    3    0    0 -0.80119523757E+01 -0.38756893864E+01 -0.22476289242E+02  0.24174282357E+02  0.51100000000E-03 0. -1.
        -11    1    3    3    0    0 -0.72815129355E+01 -0.54236169115E+01 -0.13306255918E+02  0.16108770836E+02  0.51100000000E-03 0.  1.
        -12    1    3    3    0    0 -0.51479929154E+01  0.49714611618E+01 -0.22574331972E+01  0.75042162669E+01  0.00000000000E+00 0.  1.
</event>
<event>
 7    1  0.2110035E-010  0.4778727E+02  0.7816164E-02  0.1312668E+00
        -11   -1    0    0    0    0  0.00000000000E+00  0.00000000000E+00  0.45593999997E+02  0.45594000000E+02  0.51100000000E-03 0.  1.
         11   -1    0    0    0    0 -0.00000000000E+00 -0.00000000000E+00 -0.45593999997E+02  0.45594000000E+02  0.51100000000E-03 0. -1.
    9900012    2    1    2    0    0  0.41098885845E+02  0.22548208989E+01 -0.13763020178E+02  0.47787270059E+02  0.19999995509E+02 0.  0.
        -12    1    1    2    0    0 -0.41098885845E+02 -0.22548208989E+01  0.13763020178E+02  0.43400729941E+02  0.00000000000E+00 0.  1.
         11    1    3    3    0    0  0.22319960488E+02  0.14052714486E+01 -0.10557810166E+01  0.22389062014E+02  0.51100000000E-03 0. -1.
        -11    1    3    3    0    0  0.15694463048E+02  0.53087039487E+01 -0.96677172656E+01  0.19182368607E+02  0.51100000000E-03 0.  1.
         12    1    3    3    0    0  0.30844623079E+01 -0.44591544984E+01 -0.30395218958E+01  0.62158394384E+01  0.00000000000E+00 0. -1.
</event>
<event>
 7    1  0.2110035E-010  0.4778727E+02  0.7816164E-02  0.1312668E+00
        -11   -1    0    0    0    0  0.00000000000E+00  0.00000000000E+00  0.45593999997E+02  0.45594000000E+02  0.51100000000E-03 0.  1.
         11   -1    0    0    0    0 -0.00000000000E+00 -0.00000000000E+00 -0.45593999997E+02  0.45594000000E+02  0.51100000000E-03 0. -1.
    9900012    2    1    2    0    0  0.41640355169E+02 -0.12224412643E+02 -0.51738974368E+00  0.47787272642E+02  0.20000007284E+02 0.  0.
        -12    1    1    2    0    0 -0.41640355169E+02  0.12224412643E+02  0.51738974368E+00  0.43400727358E+02  0.00000000000E+00 0.  1.
         11    1    3    3    0    0  0.17669503028E+02 -0.32332153472E+01 -0.37622597059E+01  0.18352646052E+02  0.51100000000E-03 0. -1.
        -11    1    3    3    0    0  0.15498642656E+02 -0.54858020678E+01  0.88668680249E+01  0.18679488679E+02  0.51100000000E-03 0.  1.
        -12    1    3    3    0    0  0.84722094853E+01 -0.35053952282E+01 -0.56219980627E+01  0.10755137911E+02  0.00000000000E+00 0.  1.
</event>
<event>
 7    1  0.2110035E-010  0.4778726E+02  0.7816164E-02  0.1312668E+00
        -11   -1    0    0    0    0  0.00000000000E+00  0.00000000000E+00  0.45593999997E+02  0.45594000000E+02  0.51100000000E-03 0. -1.
         11   -1    0    0    0    0 -0.00000000000E+00 -0.00000000000E+00 -0.45593999997E+02  0.45594000000E+02  0.51100000000E-03 0.  1.
    9900012    2    1    2    0    0  0.19514734078E+02 -0.29709637387E+02  0.24902541472E+02  0.47787263007E+02  0.19999963352E+02 0.  0.
        -12    1    1    2    0    0 -0.19514734078E+02  0.29709637387E+02 -0.24902541472E+02  0.43400736993E+02  0.00000000000E+00 0.  1.
         11    1    3    3    0    0 -0.21603231413E+01 -0.37377576451E+01  0.66875758366E+01  0.79599936633E+01  0.51100000000E-03 0. -1.
        -11    1    3    3    0    0  0.25328311453E+01  0.16997783549E+00  0.32861907891E+01  0.41524903658E+01  0.51100000000E-03 0.  1.
         12    1    3    3    0    0  0.19142226074E+02 -0.26141857578E+02  0.14928774846E+02  0.35674778977E+02  0.00000000000E+00 0. -1.
</event>
<event>
 7    1  0.2110035E-010  0.4778727E+02  0.7816164E-02  0.1312668E+00
        -11   -1    0    0    0    0  0.00000000000E+00  0.00000000000E+00  0.45593999997E+02  0.45594000000E+02  0.51100000000E-03 0. -1.
         11   -1    0    0    0    0 -0.00000000000E+00 -0.00000000000E+00 -0.45593999997E+02  0.45594000000E+02  0.51100000000E-03 0.  1.
    9900012    2    1    2    0    0 -0.10325466025E+02 -0.22866530855E+01  0.42092505899E+02  0.47787273234E+02  0.20000009982E+02 0.  0.
        -12    1    1    2    0    0  0.10325466025E+02  0.22866530855E+01 -0.42092505899E+02  0.43400726766E+02  0.00000000000E+00 0.  1.
         11    1    3    3    0    0 -0.58282977987E+01  0.53638561144E+01  0.68465688353E+01  0.10469742725E+02  0.51100000000E-03 0. -1.
        -11    1    3    3    0    0 -0.89697996240E+00 -0.49540124375E+01  0.64996194597E+01  0.82214272280E+01  0.51100000000E-03 0.  1.
         12    1    3    3    0    0 -0.36001882641E+01 -0.26964967624E+01  0.28746317604E+02  0.29096103281E+02  0.00000000000E+00 0. -1.
</event>
<event>
 7    1  0.2110035E-010  0.4778727E+02  0.7816164E-02  0.1312668E+00
        -11   -1    0    0    0    0  0.00000000000E+00  0.00000000000E+00  0.45593999997E+02  0.45594000000E+02  0.51100000000E-03 0.  1.
         11   -1    0    0    0    0 -0.00000000000E+00 -0.00000000000E+00 -0.45593999997E+02  0.45594000000E+02  0.51100000000E-03 0. -1.
    9900012    2    1    2    0    0  0.42974609725E+02  0.59972318931E+01  0.91620494730E+00  0.47787270710E+02  0.19999998476E+02 0.  0.
        -12    1    1    2    0    0 -0.42974609725E+02 -0.59972318931E+01 -0.91620494730E+00  0.43400729290E+02  0.00000000000E+00 0.  1.
         11    1    3    3    0    0  0.29791179294E+01 -0.45071926136E+01 -0.13290779123E+01  0.55638455452E+01  0.51100000000E-03 0. -1.
        -11    1    3    3    0    0  0.14881474215E+02  0.44115925549E+01  0.48204288954E+01  0.16252906161E+02  0.51100000000E-03 0.  1.
         12    1    3    3    0    0  0.25114017580E+02  0.60928319518E+01 -0.25751460359E+01  0.25970519004E+02  0.00000000000E+00 0. -1.
</event>
<event>
 7    1  0.2110035E-010  0.4778727E+02  0.7816164E-02  0.1312668E+00
        -11   -1    0    0    0    0  0.00000000000E+00  0.00000000000E+00  0.45593999997E+02  0.45594000000E+02  0.51100000000E-03 0. -1.
         11   -1    0    0    0    0 -0.00000000000E+00 -0.00000000000E+00 -0.45593999997E+02  0.45594000000E+02  0.51100000000E-03 0.  1.
    9900012    2    1    2    0    0  0.34244535742E+02  0.26120202527E+02 -0.53544433139E+01  0.47787271072E+02  0.20000000128E+02 0.  0.
        -12    1    1    2    0    0 -0.34244535742E+02 -0.26120202527E+02  0.53544433139E+01  0.43400728928E+02  0.00000000000E+00 0.  1.
         11    1    3    3    0    0  0.21327141254E+01  0.95287817691E+01 -0.18862791560E+01  0.99450591179E+01  0.51100000000E-03 0. -1.
        -11    1    3    3    0    0  0.15139035454E+02  0.66518830357E+01  0.36334187299E+01  0.16930436330E+02  0.51100000000E-03 0.  1.
        -12    1    3    3    0    0  0.16972786163E+02  0.99395377220E+01 -0.71015828878E+01  0.20911775625E+02  0.00000000000E+00 0.  1.
</event>
<event>
 7    1  0.2110035E-010  0.4778727E+02  0.7816164E-02  0.1312668E+00
        -11   -1    0    0    0    0  0.00000000000E+00  0.00000000000E+00  0.45593999997E+02  0.45594000000E+02  0.51100000000E-03 0.  1.
         11   -1    0    0    0    0 -0.00000000000E+00 -0.00000000000E+00 -0.45593999997E+02  0.45594000000E+02  0.51100000000E-03 0. -1.
    9900012    2    1    2    0    0 -0.86550081305E+01  0.22281028616E+02 -0.36225265549E+02  0.47787271135E+02  0.20000000413E+02 0.  0.
        -12    1    1    2    0    0  0.86550081305E+01 -0.22281028616E+02  0.36225265549E+02  0.43400728865E+02  0.00000000000E+00 0.  1.
         11    1    3    3    0    0 -0.37082100442E+01  0.20790760957E+02 -0.31214410495E+02  0.37687477837E+02  0.51100000000E-03 0. -1.
        -11    1    3    3    0    0  0.10067237314E+01  0.16911980408E+01  0.44961141407E+00  0.20188596210E+01  0.51100000000E-03 0.  1.
         12    1    3    3    0    0 -0.59535218177E+01 -0.20093038124E+00 -0.54604664681E+01  0.80809336776E+01  0.00000000000E+00 0. -1.
</event>
<event>
 7    1  0.2110035E-010  0.4778727E+02  0.7816164E-02  0.1312668E+00
        -11   -1    0    0    0    0  0.00000000000E+00  0.00000000000E+00  0.45593999997E+02  0.45594000000E+02  0.51100000000E-03 0. -1.
         11   -1    0    0    0    0 -0.00000000000E+00 -0.00000000000E+00 -0.45593999997E+02  0.45594000000E+02  0.51100000000E-03 0.  1.
    9900012    2    1    2    0    0 -0.38104689419E+02 -0.10240931094E+02  0.18077037156E+02  0.47787270769E+02  0.19999998745E+02 0.  0.
        -12    1    1    2    0    0  0.38104689419E+02  0.10240931094E+02 -0.18077037156E+02  0.43400729231E+02  0.00000000000E+00 0.  1.
         11    1    3    3    0    0 -0.96000019743E+01  0.11238057290E+01  0.25601452645E+01  0.99988659987E+01  0.51100000000E-03 0. -1.
        -11    1    3    3    0    0 -0.56096336579E+01 -0.83388130210E+01  0.15427012247E+00  0.10051248276E+02  0.51100000000E-03 0.  1.
         12    1    3    3    0    0 -0.22895053787E+02 -0.30259238016E+01  0.15362621769E+02  0.27737156494E+02  0.00000000000E+00 0. -1.
</event>
<event>
 7    1  0.2110035E-010  0.4778727E+02  0.7816164E-02  0.1312668E+00
        -11   -1    0    0    0    0  0.00000000000E+00  0.00000000000E+00  0.45593999997E+02  0.45594000000E+02  0.51100000000E-03 0.  1.
         11   -1    0    0    0    0 -0.00000000000E+00 -0.00000000000E+00 -0.45593999997E+02  0.45594000000E+02  0.51100000000E-03 0. -1.
    9900012    2    1    2    0    0  0.36083264260E+01 -0.13471071707E+02 -0.41099070271E+02  0.47787269941E+02  0.19999994967E+02 0.  0.
        -12    1    1    2    0    0 -0.36083264260E+01  0.13471071707E+02  0.41099070271E+02  0.43400730059E+02  0.00000000000E+00 0.  1.
         11    1    3    3    0    0 -0.35971475123E+01 -0.99015518546E+00 -0.14494010987E+02  0.14966503675E+02  0.51100000000E-03 0. -1.
        -11    1    3    3    0    0  0.66495860323E+01 -0.43291739000E+00 -0.61128420837E+01  0.90427457373E+01  0.51100000000E-03 0.  1.
        -12    1    3    3    0    0  0.55588790595E+00 -0.12047999131E+02 -0.20492217201E+02  0.23778020528E+02  0.00000000000E+00 0.  1.
</event>
<event>
 7    1  0.2110035E-010  0.4778727E+02  0.7816164E-02  0.1312668E+00
        -11   -1    0    0    0    0  0.00000000000E+00  0.00000000000E+00  0.45593999997E+02  0.45594000000E+02  0.51100000000E-03 0.  1.
         11   -1    0    0    0    0 -0.00000000000E+00 -0.00000000000E+00 -0.45593999997E+02  0.45594000000E+02  0.51100000000E-03 0. -1.
    9900012    2    1    2    0    0 -0.39985230255E+02  0.15430131464E+01  0.16805468505E+02  0.47787270746E+02  0.19999998640E+02 0.  0.
        -12    1    1    2    0    0  0.39985230255E+02 -0.15430131464E+01 -0.16805468505E+02  0.43400729254E+02  0.00000000000E+00 0.  1.
         11    1    3    3    0    0 -0.17965164599E+02 -0.43327409043E+01  0.84652075587E+01  0.20326817805E+02  0.51100000000E-03 0. -1.
        -11    1    3    3    0    0 -0.16598604031E+02  0.62806045395E+01  0.11523880022E+02  0.21160327506E+02  0.51100000000E-03 0.  1.
        -12    1    3    3    0    0 -0.54214616249E+01 -0.40485048882E+00 -0.31836190761E+01  0.63001254345E+01  0.00000000000E+00 0.  1.
</event>
<event>
 7    1  0.2110035E-010  0.4778727E+02  0.7816164E-02  0.1312668E+00
        -11   -1    0    0    0    0  0.00000000000E+00  0.00000000000E+00  0.45593999997E+02  0.45594000000E+02  0.51100000000E-03 0. -1.
         11   -1    0    0    0    0 -0.00000000000E+00 -0.00000000000E+00 -0.45593999997E+02  0.45594000000E+02  0.51100000000E-03 0.  1.
    9900012    2    1    2    0    0  0.12756783089E+02  0.36207131029E+02  0.20246766344E+02  0.47787269596E+02  0.19999993398E+02 0.  0.
        -12    1    1    2    0    0 -0.12756783089E+02 -0.36207131029E+02 -0.20246766344E+02  0.43400730404E+02  0.00000000000E+00 0.  1.
         11    1    3    3    0    0  0.41015852968E+01  0.53095540982E+01 -0.44886021738E+00  0.67242726317E+01  0.51100000000E-03 0.  1.
        -11    1    3    3    0    0  0.58340268035E+00  0.17078066256E+02  0.32606642342E+01  0.17396339765E+02  0.51100000000E-03 0. -1.
        -12    1    3    3    0    0  0.80717951119E+01  0.13819510675E+02  0.17434962328E+02  0.23666657200E+02  0.00000000000E+00 0.  1.
</event>
<event>
 7    1  0.2110035E-010  0.4778727E+02  0.7816164E-02  0.1312668E+00
        -11   -1    0    0    0    0  0.00000000000E+00  0.00000000000E+00  0.45593999997E+02  0.45594000000E+02  0.51100000000E-03 0.  1.
         11   -1    0    0    0    0 -0.00000000000E+00 -0.00000000000E+00 -0.45593999997E+02  0.45594000000E+02  0.51100000000E-03 0. -1.
    9900012    2    1    2    0    0  0.42165071603E+01  0.19345227192E+02 -0.38621322796E+02  0.47787270487E+02  0.19999997460E+02 0.  0.
        -12    1    1    2    0    0 -0.42165071603E+01 -0.19345227192E+02  0.38621322796E+02  0.43400729513E+02  0.00000000000E+00 0.  1.
         11    1    3    3    0    0 -0.37741709396E+00  0.60721919836E+01 -0.24150742812E+02  0.24905267270E+02  0.51100000000E-03 0. -1.
        -11    1    3    3    0    0  0.56414240621E+01  0.14117772952E+01 -0.45668400090E+01  0.73942415776E+01  0.51100000000E-03 0.  1.
         12    1    3    3    0    0 -0.10474998078E+01  0.11861257913E+02 -0.99037399749E+01  0.15487761640E+02  0.00000000000E+00 0. -1.
</event>
<event>
 7    1  0.2110035E-010  0.4778727E+02  0.7816164E-02  0.1312668E+00
        -11   -1    0    0    0    0  0.00000000000E+00  0.00000000000E+00  0.45593999997E+02  0.45594000000E+02  0.51100000000E-03 0.  1.
         11   -1    0    0    0    0 -0.00000000000E+00 -0.00000000000E+00 -0.45593999997E+02  0.45594000000E+02  0.51100000000E-03 0. -1.
    9900012    2    1    2    0    0  0.18151115782E+02  0.24076894648E+02 -0.31216396361E+02  0.47787271184E+02  0.20000000635E+02 0.  0.
        -12    1    1    2    0    0 -0.18151115782E+02 -0.24076894648E+02  0.31216396361E+02  0.43400728816E+02  0.00000000000E+00 0.  1.
         11    1    3    3    0    0  0.18261942369E+02  0.12823785992E+02 -0.16775353458E+02  0.27917029036E+02  0.51100000000E-03 0. -1.
        -11    1    3    3    0    0 -0.98238072968E+00  0.13375302374E+01  0.65819520043E+00  0.17852955545E+01  0.51100000000E-03 0.  1.
        -12    1    3    3    0    0  0.87155414257E+00  0.99155784188E+01 -0.15099238103E+02  0.18084946593E+02  0.00000000000E+00 0.  1.
</event>
<event>
 7    1  0.2110035E-010  0.4778726E+02  0.7816164E-02  0.1312668E+00
        -11   -1    0    0    0    0  0.00000000000E+00  0.00000000000E+00  0.45593999997E+02  0.45594000000E+02  0.51100000000E-03 0. -1.
         11   -1    0    0    0    0 -0.00000000000E+00 -0.00000000000E+00 -0.45593999997E+02  0.45594000000E+02  0.51100000000E-03 0.  1.
    9900012    2    1    2    0    0 -0.28874376942E+02 -0.32396316737E+02  0.61126344677E+00  0.47787255480E+02  0.19999929035E+02 0.  0.
        -12    1    1    2    0    0  0.28874376942E+02  0.32396316737E+02 -0.61126344677E+00  0.43400744520E+02  0.00000000000E+00 0.  1.
         11    1    3    3    0    0 -0.19294797533E+02 -0.77744306981E+01  0.10584495170E+00  0.20802456296E+02  0.51100000000E-03 0. -1.
        -11    1    3    3    0    0 -0.27127678096E+00 -0.50894949100E+01 -0.13380457311E+01  0.52694322437E+01  0.51100000000E-03 0.  1.
         12    1    3    3    0    0 -0.93083026279E+01 -0.19532391128E+02  0.18434642261E+01  0.21715366940E+02  0.00000000000E+00 0. -1.
</event>
<event>
 7    1  0.2110035E-010  0.4778728E+02  0.7816164E-02  0.1312668E+00
        -11   -1    0    0    0    0  0.00000000000E+00  0.00000000000E+00  0.45593999997E+02  0.45594000000E+02  0.51100000000E-03 0. -1.
         11   -1    0    0    0    0 -0.00000000000E+00 -0.00000000000E+00 -0.45593999997E+02  0.45594000000E+02  0.51100000000E-03 0.  1.
    9900012    2    1    2    0    0 -0.40169194894E+02 -0.95117904976E+01  0.13400908708E+02  0.47787277297E+02  0.20000028510E+02 0.  0.
        -12    1    1    2    0    0  0.40169194894E+02  0.95117904976E+01 -0.13400908708E+02  0.43400722703E+02  0.00000000000E+00 0.  1.
         11    1    3    3    0    0 -0.44183388659E+01 -0.55153420666E+01  0.41223521757E+01  0.81813509988E+01  0.51100000000E-03 0. -1.
        -11    1    3    3    0    0 -0.15876516625E+01  0.26975001898E+01  0.27911867045E+01  0.41937892837E+01  0.51100000000E-03 0.  1.
        -12    1    3    3    0    0 -0.34163204366E+02 -0.66939486208E+01  0.64873698276E+01  0.35412137015E+02  0.00000000000E+00 0.  1.
</event>
<event>
 7    1  0.2110035E-010  0.4778727E+02  0.7816164E-02  0.1312668E+00
        -11   -1    0    0    0    0  0.00000000000E+00  0.00000000000E+00  0.45593999997E+02  0.45594000000E+02  0.51100000000E-03 0.  1.
         11   -1    0    0    0    0 -0.00000000000E+00 -0.00000000000E+00 -0.45593999997E+02  0.45594000000E+02  0.51100000000E-03 0. -1.
    9900012    2    1    2    0    0  0.95265274941E+01 -0.41344510547E+02 -0.91378358774E+01  0.47787270479E+02  0.19999997420E+02 0.  0.
        -12    1    1    2    0    0 -0.95265274941E+01  0.41344510547E+02  0.91378358774E+01  0.43400729521E+02  0.00000000000E+00 0.  1.
         11    1    3    3    0    0  0.51535644972E+01 -0.48126011140E+01  0.11228604692E+01  0.71401101114E+01  0.51100000000E-03 0. -1.
        -11    1    3    3    0    0  0.21436658240E+01 -0.84608152077E+00  0.17873749102E+01  0.29164818592E+01  0.51100000000E-03 0.  1.
         12    1    3    3    0    0  0.22292971730E+01 -0.35685827912E+02 -0.12048071257E+02  0.37730678508E+02  0.00000000000E+00 0. -1.
</event>
<event>
 7    1  0.2110035E-010  0.4778727E+02  0.7816164E-02  0.1312668E+00
        -11   -1    0    0    0    0  0.00000000000E+00  0.00000000000E+00  0.45593999997E+02  0.45594000000E+02  0.51100000000E-03 0.  1.
         11   -1    0    0    0    0 -0.00000000000E+00 -0.00000000000E+00 -0.45593999997E+02  0.45594000000E+02  0.51100000000E-03 0. -1.
    9900012    2    1    2    0    0  0.12575485243E+02 -0.11932597255E+02 -0.39788110991E+02  0.47787268640E+02  0.19999989037E+02 0.  0.
        -12    1    1    2    0    0 -0.12575485243E+02  0.11932597255E+02  0.39788110991E+02  0.43400731360E+02  0.00000000000E+00 0.  1.
         11    1    3    3    0    0  0.55352736141E+01  0.33322046193E+01 -0.16848713030E+02  0.18044998549E+02  0.51100000000E-03 0. -1.
        -11    1    3    3    0    0  0.55610792052E+01 -0.29269757135E+01 -0.99331183753E+01  0.11754132451E+02  0.51100000000E-03 0.  1.
        -12    1    3    3    0    0  0.14791324239E+01 -0.12337826161E+02 -0.13006279585E+02  0.17988137640E+02  0.00000000000E+00 0.  1.
</event>
<event>
 7    1  0.2110035E-010  0.4778727E+02  0.7816164E-02  0.1312668E+00
        -11   -1    0    0    0    0  0.00000000000E+00  0.00000000000E+00  0.45593999997E+02  0.45594000000E+02  0.51100000000E-03 0.  1.
         11   -1    0    0    0    0 -0.00000000000E+00 -0.00000000000E+00 -0.45593999997E+02  0.45594000000E+02  0.51100000000E-03 0. -1.
    9900012    2    1    2    0    0 -0.32986365754E+02 -0.62262331774E+01 -0.27509218543E+02  0.47787269475E+02  0.19999992845E+02 0.  0.
        -12    1    1    2    0    0  0.32986365754E+02  0.62262331774E+01  0.27509218543E+02  0.43400730525E+02  0.00000000000E+00 0.  1.
         11    1    3    3    0    0  0.12300675389E+01 -0.26934760511E+01 -0.28022798828E+01  0.40768434102E+01  0.51100000000E-03 0. -1.
        -11    1    3    3    0    0 -0.79427107897E+01 -0.25437321141E+01 -0.11695856302E+01  0.84217075801E+01  0.51100000000E-03 0.  1.
         12    1    3    3    0    0 -0.26273722504E+02 -0.98902501217E+00 -0.23537353030E+02  0.35288718485E+02  0.00000000000E+00 0. -1.
</event>
<event>
 7    1  0.2110035E-010  0.4778727E+02  0.7816164E-02  0.1312668E+00
        -11   -1    0    0    0    0  0.00000000000E+00  0.00000000000E+00  0.45593999997E+02  0.45594000000E+02  0.51100000000E-03 0.  1.
         11   -1    0    0    0    0 -0.00000000000E+00 -0.00000000000E+00 -0.45593999997E+02  0.45594000000E+02  0.51100000000E-03 0. -1.
    9900012    2    1    2    0    0 -0.17609704710E+02 -0.16244422966E+02 -0.36188957128E+02  0.47787267339E+02  0.19999983106E+02 0.  0.
        -12    1    1    2    0    0  0.17609704710E+02  0.16244422966E+02  0.36188957128E+02  0.43400732661E+02  0.00000000000E+00 0.  1.
         11    1    3    3    0    0 -0.93451524291E+01 -0.67311898440E+01 -0.45255834638E+01  0.12374235192E+02  0.51100000000E-03 0. -1.
        -11    1    3    3    0    0  0.42079493584E+00 -0.64554364571E+01 -0.10493391174E+02  0.12327245711E+02  0.51100000000E-03 0.  1.
        -12    1    3    3    0    0 -0.86853472169E+01 -0.30577966645E+01 -0.21169982490E+02  0.23085786436E+02  0.00000000000E+00 0.  1.
</event>
<event>
 7    1  0.2110035E-010  0.4778727E+02  0.7816164E-02  0.1312668E+00
        -11   -1    0    0    0    0  0.00000000000E+00  0.00000000000E+00  0.45593999997E+02  0.45594000000E+02  0.51100000000E-03 0.  1.
         11   -1    0    0    0    0 -0.00000000000E+00 -0.00000000000E+00 -0.45593999997E+02  0.45594000000E+02  0.51100000000E-03 0. -1.
    9900012    2    1    2    0    0  0.28618144759E+02  0.87615174018E+01 -0.31430255622E+02  0.47787269994E+02  0.19999995209E+02 0.  0.
        -12    1    1    2    0    0 -0.28618144759E+02 -0.87615174018E+01  0.31430255622E+02  0.43400730006E+02  0.00000000000E+00 0.  1.
         11    1    3    3    0    0  0.12019395436E+02  0.80792509675E+01 -0.15646559377E+02  0.21320295107E+02  0.51100000000E-03 0. -1.
        -11    1    3    3    0    0  0.10186361592E+02 -0.19846840539E+01 -0.16492539238E+02  0.19486015089E+02  0.51100000000E-03 0.  1.
         12    1    3    3    0    0  0.64123877300E+01  0.26669504881E+01  0.70884299285E+00  0.69809597975E+01  0.00000000000E+00 0. -1.
</event>
<event>
 7    1  0.2110035E-010  0.4778727E+02  0.7816164E-02  0.1312668E+00
        -11   -1    0    0    0    0  0.00000000000E+00  0.00000000000E+00  0.45593999997E+02  0.45594000000E+02  0.51100000000E-03 0.  1.
         11   -1    0    0    0    0 -0.00000000000E+00 -0.00000000000E+00 -0.45593999997E+02  0.45594000000E+02  0.51100000000E-03 0. -1.
    9900012    2    1    2    0    0  0.14938830785E+02 -0.61828531515E+01 -0.40276881466E+02  0.47787268221E+02  0.19999987126E+02 0.  0.
        -12    1    1    2    0    0 -0.14938830785E+02  0.61828531515E+01  0.40276881466E+02  0.43400731779E+02  0.00000000000E+00 0.  1.
         11    1    3    3    0    0 -0.16956428387E+01  0.31579415269E+01 -0.63415460058E+01  0.72844358278E+01  0.51100000000E-03 0. -1.
        -11    1    3    3    0    0  0.12446924239E+02 -0.13151415580E+01 -0.23961347627E+02  0.27033344238E+02  0.51100000000E-03 0.  1.
        -12    1    3    3    0    0  0.41875493849E+01 -0.80256531204E+01 -0.99739878334E+01  0.13469488155E+02  0.00000000000E+00 0.  1.
</event>
<event>
 7    1  0.2110035E-010  0.4778727E+02  0.7816164E-02  0.1312668E+00
        -11   -1    0    0    0    0  0.00000000000E+00  0.00000000000E+00  0.45593999997E+02  0.45594000000E+02  0.51100000000E-03 0. -1.
         11   -1    0    0    0    0 -0.00000000000E+00 -0.00000000000E+00 -0.45593999997E+02  0.45594000000E+02  0.51100000000E-03 0.  1.
    9900012    2    1    2    0    0  0.13703603416E+02 -0.40416665631E+02  0.78947696719E+01  0.47787274252E+02  0.20000014625E+02 0.  0.
        -12    1    1    2    0    0 -0.13703603416E+02  0.40416665631E+02 -0.78947696719E+01  0.43400725748E+02  0.00000000000E+00 0.  1.
         11    1    3    3    0    0  0.14735966183E+01 -0.24568139952E+02  0.18139226520E+01  0.24679045835E+02  0.51100000000E-03 0. -1.
        -11    1    3    3    0    0  0.58755858564E+01 -0.12840136622E+02  0.74197223741E+01  0.15951297690E+02  0.51100000000E-03 0.  1.
        -12    1    3    3    0    0  0.63544209410E+01 -0.30083890564E+01 -0.13388753542E+01  0.71569307265E+01  0.00000000000E+00 0.  1.
</event>
<event>
 7    1  0.2110035E-010  0.4778728E+02  0.7816164E-02  0.1312668E+00
        -11   -1    0    0    0    0  0.00000000000E+00  0.00000000000E+00  0.45593999997E+02  0.45594000000E+02  0.51100000000E-03 0.  1.
         11   -1    0    0    0    0 -0.00000000000E+00 -0.00000000000E+00 -0.45593999997E+02  0.45594000000E+02  0.51100000000E-03 0. -1.
    9900012    2    1    2    0    0 -0.35500898279E+01 -0.43252904798E+02  0.45377366232E+00  0.47787276253E+02  0.20000023748E+02 0.  0.
        -12    1    1    2    0    0  0.35500898279E+01  0.43252904798E+02 -0.45377366232E+00  0.43400723747E+02  0.00000000000E+00 0.  1.
         11    1    3    3    0    0 -0.31371996064E+01 -0.10822892405E+02  0.36097763883E+01  0.11832476800E+02  0.51100000000E-03 0. -1.
        -11    1    3    3    0    0  0.55415400729E+01 -0.25953938925E+02 -0.48964410558E+01  0.26986862496E+02  0.51100000000E-03 0.  1.
        -12    1    3    3    0    0 -0.59544302945E+01 -0.64760734673E+01  0.17404383298E+01  0.89679369571E+01  0.00000000000E+00 0.  1.
</event>
<event>
 7    1  0.2110035E-010  0.4778730E+02  0.7816164E-02  0.1312668E+00
        -11   -1    0    0    0    0  0.00000000000E+00  0.00000000000E+00  0.45593999997E+02  0.45594000000E+02  0.51100000000E-03 0.  1.
         11   -1    0    0    0    0 -0.00000000000E+00 -0.00000000000E+00 -0.45593999997E+02  0.45594000000E+02  0.51100000000E-03 0. -1.
    9900012    2    1    2    0    0 -0.32776338916E+02  0.19295925718E+02  0.20904536582E+02  0.47787299639E+02  0.20000130375E+02 0.  0.
        -12    1    1    2    0    0  0.32776338916E+02 -0.19295925718E+02 -0.20904536582E+02  0.43400700361E+02  0.00000000000E+00 0.  1.
         11    1    3    3    0    0 -0.14345719217E+02  0.15440823749E+02  0.79063899781E+01  0.22510657490E+02  0.51100000000E-03 0. -1.
        -11    1    3    3    0    0  0.82307313323E+00 -0.13549579054E+01  0.18130134310E+01  0.24083974485E+01  0.51100000000E-03 0.  1.
        -12    1    3    3    0    0 -0.19253692833E+02  0.52100598745E+01  0.11185133173E+02  0.22868244701E+02  0.00000000000E+00 0.  1.
</event>
<event>
 7    1  0.2110035E-010  0.4778727E+02  0.7816164E-02  0.1312668E+00
        -11   -1    0    0    0    0  0.00000000000E+00  0.00000000000E+00  0.45593999997E+02  0.45594000000E+02  0.51100000000E-03 0.  1.
         11   -1    0    0    0    0 -0.00000000000E+00 -0.00000000000E+00 -0.45593999997E+02  0.45594000000E+02  0.51100000000E-03 0. -1.
    9900012    2    1    2    0    0 -0.25143162984E+02  0.22546208272E+02  0.27260105785E+02  0.47787268213E+02  0.19999987090E+02 0.  0.
        -12    1    1    2    0    0  0.25143162984E+02 -0.22546208272E+02 -0.27260105785E+02  0.43400731787E+02  0.00000000000E+00 0.  1.
         11    1    3    3    0    0 -0.97749312484E+01  0.16326133494E+02  0.14530629111E+02  0.23942245057E+02  0.51100000000E-03 0. -1.
        -11    1    3    3    0    0 -0.86023246152E+01  0.66623198020E+01  0.18662491382E+01  0.11039446546E+02  0.51100000000E-03 0.  1.
         12    1    3    3    0    0 -0.67659071198E+01 -0.44224502389E+00  0.10863227536E+02  0.12805576610E+02  0.00000000000E+00 0. -1.
</event>
<event>
 7    1  0.2110035E-010  0.4778727E+02  0.7816164E-02  0.1312668E+00
        -11   -1    0    0    0    0  0.00000000000E+00  0.00000000000E+00  0.45593999997E+02  0.45594000000E+02  0.51100000000E-03 0.  1.
         11   -1    0    0    0    0 -0.00000000000E+00 -0.00000000000E+00 -0.45593999997E+02  0.45594000000E+02  0.51100000000E-03 0. -1.
    9900012    2    1    2    0    0 -0.37767994654E+02 -0.85545105042E+01 -0.19596482310E+02  0.47787272021E+02  0.20000004455E+02 0.  0.
        -12    1    1    2    0    0  0.37767994654E+02  0.85545105042E+01  0.19596482310E+02  0.43400727979E+02  0.00000000000E+00 0.  1.
         11    1    3    3    0    0 -0.28178431301E+02 -0.27256228612E+01 -0.10268646555E+02  0.30114749092E+02  0.51100000000E-03 0. -1.
        -11    1    3    3    0    0 -0.10453263888E+02 -0.76613120505E+01 -0.84005920527E+01  0.15444622862E+02  0.51100000000E-03 0.  1.
        -12    1    3    3    0    0  0.86370053561E+00  0.18324244075E+01 -0.92724370235E+00  0.22279000668E+01  0.00000000000E+00 0.  1.
</event>
<event>
 7    1  0.2110035E-010  0.4778727E+02  0.7816164E-02  0.1312668E+00
        -11   -1    0    0    0    0  0.00000000000E+00  0.00000000000E+00  0.45593999997E+02  0.45594000000E+02  0.51100000000E-03 0.  1.
         11   -1    0    0    0    0 -0.00000000000E+00 -0.00000000000E+00 -0.45593999997E+02  0.45594000000E+02  0.51100000000E-03 0. -1.
    9900012    2    1    2    0    0  0.30323233107E+02  0.45887942325E+00 -0.31046964336E+02  0.47787273844E+02  0.20000012765E+02 0.  0.
        -12    1    1    2    0    0 -0.30323233107E+02 -0.45887942325E+00  0.31046964336E+02  0.43400726156E+02  0.00000000000E+00 0.  1.
         11    1    3    3    0    0  0.33747855779E+01  0.29059815597E+01 -0.87222070149E+01  0.97934060467E+01  0.51100000000E-03 0.  1.
        -11    1    3    3    0    0  0.28242023994E+02 -0.39796298341E+01 -0.19582759167E+02  0.34596731490E+02  0.51100000000E-03 0. -1.
         12    1    3    3    0    0 -0.12935764658E+01  0.15325276977E+01 -0.27419981542E+01  0.33971363079E+01  0.00000000000E+00 0. -1.
</event>
<event>
 7    1  0.2110035E-010  0.4778726E+02  0.7816164E-02  0.1312668E+00
        -11   -1    0    0    0    0  0.00000000000E+00  0.00000000000E+00  0.45593999997E+02  0.45594000000E+02  0.51100000000E-03 0.  1.
         11   -1    0    0    0    0 -0.00000000000E+00 -0.00000000000E+00 -0.45593999997E+02  0.45594000000E+02  0.51100000000E-03 0. -1.
    9900012    2    1    2    0    0 -0.60187375523E+01  0.39643063351E+02 -0.16608017465E+02  0.47787263627E+02  0.19999966182E+02 0.  0.
        -12    1    1    2    0    0  0.60187375523E+01 -0.39643063351E+02  0.16608017465E+02  0.43400736373E+02  0.00000000000E+00 0.  1.
         11    1    3    3    0    0  0.44549446629E+01  0.86319928085E+01 -0.28014928643E+01  0.10109707925E+02  0.51100000000E-03 0. -1.
        -11    1    3    3    0    0  0.79658362216E+00  0.17232490981E+02 -0.64736852695E+01  0.18425577117E+02  0.51100000000E-03 0.  1.
        -12    1    3    3    0    0 -0.11270265837E+02  0.13778579562E+02 -0.73328393312E+01  0.19251978585E+02  0.00000000000E+00 0.  1.
</event>
<event>
 7    1  0.2110035E-010  0.4778727E+02  0.7816164E-02  0.1312668E+00
        -11   -1    0    0    0    0  0.00000000000E+00  0.00000000000E+00  0.45593999997E+02  0.45594000000E+02  0.51100000000E-03 0.  1.
         11   -1    0    0    0    0 -0.00000000000E+00 -0.00000000000E+00 -0.45593999997E+02  0.45594000000E+02  0.51100000000E-03 0. -1.
    9900012    2    1    2    0    0 -0.26093599000E+01 -0.42006839356E+02 -0.10594348357E+02  0.47787268106E+02  0.19999986603E+02 0.  0.
        -12    1    1    2    0    0  0.26093599000E+01  0.42006839356E+02  0.10594348357E+02  0.43400731894E+02  0.00000000000E+00 0.  1.
         11    1    3    3    0    0 -0.86343106008E+01 -0.90698110224E+01 -0.36986519465E+01  0.13057289842E+02  0.51100000000E-03 0. -1.
        -11    1    3    3    0    0  0.38010661397E+01 -0.68356997511E+01 -0.21034408188E+01  0.80993430860E+01  0.51100000000E-03 0.  1.
         12    1    3    3    0    0  0.22238845611E+01 -0.26101328583E+02 -0.47922555919E+01  0.26630635178E+02  0.00000000000E+00 0. -1.
</event>
<event>
 7    1  0.2110035E-010  0.4778727E+02  0.7816164E-02  0.1312668E+00
        -11   -1    0    0    0    0  0.00000000000E+00  0.00000000000E+00  0.45593999997E+02  0.45594000000E+02  0.51100000000E-03 0.  1.
         11   -1    0    0    0    0 -0.00000000000E+00 -0.00000000000E+00 -0.45593999997E+02  0.45594000000E+02  0.51100000000E-03 0. -1.
    9900012    2    1    2    0    0 -0.22929932534E+02 -0.36490105944E+02 -0.51296626247E+01  0.47787273319E+02  0.20000010369E+02 0.  0.
        -12    1    1    2    0    0  0.22929932534E+02  0.36490105944E+02  0.51296626247E+01  0.43400726681E+02  0.00000000000E+00 0.  1.
         11    1    3    3    0    0 -0.88670781344E+01 -0.15582230192E+02 -0.93892915999E+01  0.20238324274E+02  0.51100000000E-03 0. -1.
        -11    1    3    3    0    0  0.44128053890E+00 -0.14809291785E+01 -0.19830450650E+01  0.25140301782E+01  0.51100000000E-03 0.  1.
        -12    1    3    3    0    0 -0.14504134939E+02 -0.19426946573E+02  0.62426740403E+01  0.25034918867E+02  0.00000000000E+00 0.  1.
</event>
<event>
 7    1  0.2110035E-010  0.4778727E+02  0.7816164E-02  0.1312668E+00
        -11   -1    0    0    0    0  0.00000000000E+00  0.00000000000E+00  0.45593999997E+02  0.45594000000E+02  0.51100000000E-03 0.  1.
         11   -1    0    0    0    0 -0.00000000000E+00 -0.00000000000E+00 -0.45593999997E+02  0.45594000000E+02  0.51100000000E-03 0. -1.
    9900012    2    1    2    0    0 -0.16543116366E+02 -0.28410969391E+02 -0.28333120535E+02  0.47787267286E+02  0.19999982864E+02 0.  0.
        -12    1    1    2    0    0  0.16543116366E+02  0.28410969391E+02  0.28333120535E+02  0.43400732714E+02  0.00000000000E+00 0.  1.
         11    1    3    3    0    0 -0.69816722391E+00 -0.15794909215E+01 -0.75688273036E+01  0.77633353693E+01  0.51100000000E-03 0. -1.
        -11    1    3    3    0    0 -0.87039648739E+01 -0.52209172038E+01 -0.16098229699E+01  0.10276600179E+02  0.51100000000E-03 0.  1.
         12    1    3    3    0    0 -0.71409842687E+01 -0.21610561266E+02 -0.19154470262E+02  0.29747331738E+02  0.00000000000E+00 0. -1.
</event>
<event>
 7    1  0.2110035E-010  0.4778727E+02  0.7816164E-02  0.1312668E+00
        -11   -1    0    0    0    0  0.00000000000E+00  0.00000000000E+00  0.45593999997E+02  0.45594000000E+02  0.51100000000E-03 0.  1.
         11   -1    0    0    0    0 -0.00000000000E+00 -0.00000000000E+00 -0.45593999997E+02  0.45594000000E+02  0.51100000000E-03 0. -1.
    9900012    2    1    2    0    0 -0.42352718489E+02 -0.12424756278E+01  0.93982567700E+01  0.47787265681E+02  0.19999975545E+02 0.  0.
        -12    1    1    2    0    0  0.42352718489E+02  0.12424756278E+01 -0.93982567700E+01  0.43400734319E+02  0.00000000000E+00 0.  1.
         11    1    3    3    0    0  0.11873669133E+00 -0.72338835075E+00  0.10227078178E+01  0.12583006992E+01  0.51100000000E-03 0. -1.
        -11    1    3    3    0    0 -0.24637925749E+02 -0.25794518389E+01 -0.34793736380E+01  0.25015735012E+02  0.51100000000E-03 0.  1.
         12    1    3    3    0    0 -0.17833529432E+02  0.20603645619E+01  0.11854922590E+02  0.21513229970E+02  0.00000000000E+00 0. -1.
</event>
<event>
 7    1  0.2110035E-010  0.4778729E+02  0.7816164E-02  0.1312668E+00
        -11   -1    0    0    0    0  0.00000000000E+00  0.00000000000E+00  0.45593999997E+02  0.45594000000E+02  0.51100000000E-03 0. -1.
         11   -1    0    0    0    0 -0.00000000000E+00 -0.00000000000E+00 -0.45593999997E+02  0.45594000000E+02  0.51100000000E-03 0.  1.
    9900012    2    1    2    0    0  0.16202218127E+02  0.39307754178E+02  0.87184060002E+01  0.47787285559E+02  0.20000066178E+02 0.  0.
        -12    1    1    2    0    0 -0.16202218127E+02 -0.39307754178E+02 -0.87184060002E+01  0.43400714441E+02  0.00000000000E+00 0.  1.
         11    1    3    3    0    0  0.87107115887E+01  0.30196244145E+02  0.99445756783E+01  0.32963377292E+02  0.51100000000E-03 0.  1.
        -11    1    3    3    0    0  0.32659778738E+01  0.41224770921E+01  0.38737790944E+01  0.65320435991E+01  0.51100000000E-03 0. -1.
        -12    1    3    3    0    0  0.42255286646E+01  0.49890329417E+01 -0.50999487725E+01  0.82918646679E+01  0.00000000000E+00 0.  1.
</event>
<event>
 7    1  0.2110035E-010  0.4778727E+02  0.7816164E-02  0.1312668E+00
        -11   -1    0    0    0    0  0.00000000000E+00  0.00000000000E+00  0.45593999997E+02  0.45594000000E+02  0.51100000000E-03 0.  1.
         11   -1    0    0    0    0 -0.00000000000E+00 -0.00000000000E+00 -0.45593999997E+02  0.45594000000E+02  0.51100000000E-03 0. -1.
    9900012    2    1    2    0    0 -0.45443243609E+00  0.22386221924E+02 -0.37178943674E+02  0.47787270817E+02  0.19999998964E+02 0.  0.
        -12    1    1    2    0    0  0.45443243609E+00 -0.22386221924E+02  0.37178943674E+02  0.43400729183E+02  0.00000000000E+00 0.  1.
         11    1    3    3    0    0 -0.25993551785E+01  0.72592994385E+01 -0.33218210417E+01  0.83957471958E+01  0.51100000000E-03 0.  1.
        -11    1    3    3    0    0  0.33485990885E+01 -0.12498386822E+01 -0.79811526137E+01  0.87449419604E+01  0.51100000000E-03 0. -1.
        -12    1    3    3    0    0 -0.12036763460E+01  0.16376761168E+02 -0.25875970019E+02  0.30646581661E+02  0.00000000000E+00 0.  1.
</event>
<event>
 7    1  0.2110035E-010  0.4778728E+02  0.7816164E-02  0.1312668E+00
        -11   -1    0    0    0    0  0.00000000000E+00  0.00000000000E+00  0.45593999997E+02  0.45594000000E+02  0.51100000000E-03 0.  1.
         11   -1    0    0    0    0 -0.00000000000E+00 -0.00000000000E+00 -0.45593999997E+02  0.45594000000E+02  0.51100000000E-03 0. -1.
    9900012    2    1    2    0    0  0.81843457307E+01 -0.14477520648E+02 -0.40087909760E+02  0.47787278484E+02  0.20000033921E+02 0.  0.
        -12    1    1    2    0    0 -0.81843457307E+01  0.14477520648E+02  0.40087909760E+02  0.43400721516E+02  0.00000000000E+00 0.  1.
         11    1    3    3    0    0  0.97031616167E+01 -0.11602217889E+02 -0.21488979376E+02  0.26278109525E+02  0.51100000000E-03 0. -1.
        -11    1    3    3    0    0 -0.33472875183E+01 -0.59402525511E+01 -0.91681014932E+01  0.11425629932E+02  0.51100000000E-03 0.  1.
         12    1    3    3    0    0  0.18284716323E+01  0.30649497922E+01 -0.94308288912E+01  0.10083539027E+02  0.00000000000E+00 0. -1.
</event>
<event>
 7    1  0.2110035E-010  0.4778728E+02  0.7816164E-02  0.1312668E+00
        -11   -1    0    0    0    0  0.00000000000E+00  0.00000000000E+00  0.45593999997E+02  0.45594000000E+02  0.51100000000E-03 0.  1.
         11   -1    0    0    0    0 -0.00000000000E+00 -0.00000000000E+00 -0.45593999997E+02  0.45594000000E+02  0.51100000000E-03 0. -1.
    9900012    2    1    2    0    0 -0.36570366370E+02  0.18152263487E+02  0.14721613742E+02  0.47787282526E+02  0.20000052349E+02 0.  0.
        -12    1    1    2    0    0  0.36570366370E+02 -0.18152263487E+02 -0.14721613742E+02  0.43400717474E+02  0.00000000000E+00 0.  1.
         11    1    3    3    0    0 -0.20606998081E+01  0.42955962437E+00  0.66979336769E+01  0.70209202368E+01  0.51100000000E-03 0. -1.
        -11    1    3    3    0    0 -0.12149380220E+02  0.10643537549E+02  0.59213616992E+00  0.16163011996E+02  0.51100000000E-03 0.  1.
         12    1    3    3    0    0 -0.22360286342E+02  0.70791663131E+01  0.74315438955E+01  0.24603350293E+02  0.00000000000E+00 0. -1.
</event>
<event>
 7    1  0.2110035E-010  0.4778727E+02  0.7816164E-02  0.1312668E+00
        -11   -1    0    0    0    0  0.00000000000E+00  0.00000000000E+00  0.45593999997E+02  0.45594000000E+02  0.51100000000E-03 0.  1.
         11   -1    0    0    0    0 -0.00000000000E+00 -0.00000000000E+00 -0.45593999997E+02  0.45594000000E+02  0.51100000000E-03 0. -1.
    9900012    2    1    2    0    0 -0.32943714740E+02  0.22479481971E+02 -0.17117470165E+02  0.47787271488E+02  0.20000002024E+02 0.  0.
        -12    1    1    2    0    0  0.32943714740E+02 -0.22479481971E+02  0.17117470165E+02  0.43400728512E+02  0.00000000000E+00 0.  1.
         11    1    3    3    0    0 -0.79646997386E+01  0.10761494936E+01 -0.48718977784E+01  0.93984002832E+01  0.51100000000E-03 0. -1.
        -11    1    3    3    0    0 -0.11174542794E+02  0.47043330729E+01 -0.11498674989E+02  0.16709897757E+02  0.51100000000E-03 0.  1.
         12    1    3    3    0    0 -0.13804472207E+02  0.16698999404E+02 -0.74689739761E+00  0.21678973448E+02  0.00000000000E+00 0. -1.
</event>
<event>
 7    1  0.2110035E-010  0.4778727E+02  0.7816164E-02  0.1312668E+00
        -11   -1    0    0    0    0  0.00000000000E+00  0.00000000000E+00  0.45593999997E+02  0.45594000000E+02  0.51100000000E-03 0. -1.
         11   -1    0    0    0    0 -0.00000000000E+00 -0.00000000000E+00 -0.45593999997E+02  0.45594000000E+02  0.51100000000E-03 0.  1.
    9900012    2    1    2    0    0 -0.41625252930E+02 -0.72953528960E+01 -0.98863337782E+01  0.47787269004E+02  0.19999990699E+02 0.  0.
        -12    1    1    2    0    0  0.41625252930E+02  0.72953528960E+01  0.98863337782E+01  0.43400730996E+02  0.00000000000E+00 0.  1.
         11    1    3    3    0    0 -0.20053243999E+02 -0.95093663591E+01 -0.52885057492E+01  0.22815103260E+02  0.51100000000E-03 0. -1.
        -11    1    3    3    0    0  0.12930166184E+01 -0.70478211136E+00 -0.27509954966E-01  0.14728770684E+01  0.51100000000E-03 0.  1.
         12    1    3    3    0    0 -0.22865025549E+02  0.29187955745E+01 -0.45703180740E+01  0.23499288676E+02  0.00000000000E+00 0. -1.
</event>
<event>
 7    1  0.2110035E-010  0.4778727E+02  0.7816164E-02  0.1312668E+00
        -11   -1    0    0    0    0  0.00000000000E+00  0.00000000000E+00  0.45593999997E+02  0.45594000000E+02  0.51100000000E-03 0. -1.
         11   -1    0    0    0    0 -0.00000000000E+00 -0.00000000000E+00 -0.45593999997E+02  0.45594000000E+02  0.51100000000E-03 0.  1.
    9900012    2    1    2    0    0  0.35493648316E+02  0.19864629845E+02  0.15140039928E+02  0.47787269607E+02  0.19999993444E+02 0.  0.
        -12    1    1    2    0    0 -0.35493648316E+02 -0.19864629845E+02 -0.15140039928E+02  0.43400730393E+02  0.00000000000E+00 0.  1.
         11    1    3    3    0    0  0.88855195892E+01  0.12185338034E+00 -0.32214465776E+00  0.88921923089E+01  0.51100000000E-03 0. -1.
        -11    1    3    3    0    0  0.10646949209E+02  0.76607285942E+01 -0.74596831440E+00  0.13137760807E+02  0.51100000000E-03 0.  1.
        -12    1    3    3    0    0  0.15961179518E+02  0.12082047870E+02  0.16208152900E+02  0.25757316490E+02  0.00000000000E+00 0.  1.
</event>
<event>
 7    1  0.2110035E-010  0.4778725E+02  0.7816164E-02  0.1312668E+00
        -11   -1    0    0    0    0  0.00000000000E+00  0.00000000000E+00  0.45593999997E+02  0.45594000000E+02  0.51100000000E-03 0.  1.
         11   -1    0    0    0    0 -0.00000000000E+00 -0.00000000000E+00 -0.45593999997E+02  0.45594000000E+02  0.51100000000E-03 0. -1.
    9900012    2    1    2    0    0 -0.22745953881E+02  0.27951372820E+02 -0.24186092317E+02  0.47787254360E+02  0.19999923931E+02 0.  0.
        -12    1    1    2    0    0  0.22745953881E+02 -0.27951372820E+02  0.24186092317E+02  0.43400745640E+02  0.00000000000E+00 0.  1.
         11    1    3    3    0    0 -0.67572172306E+00  0.37210832898E+01  0.86152763208E+00  0.38788259588E+01  0.51100000000E-03 0. -1.
        -11    1    3    3    0    0 -0.48573851058E+01  0.16355591235E+02 -0.10481472560E+02  0.20024006143E+02  0.51100000000E-03 0.  1.
         12    1    3    3    0    0 -0.17212847053E+02  0.78746982958E+01 -0.14566147388E+02  0.23884422259E+02  0.00000000000E+00 0. -1.
</event>
<event>
 7    1  0.2110035E-010  0.4778727E+02  0.7816164E-02  0.1312668E+00
        -11   -1    0    0    0    0  0.00000000000E+00  0.00000000000E+00  0.45593999997E+02  0.45594000000E+02  0.51100000000E-03 0.  1.
         11   -1    0    0    0    0 -0.00000000000E+00 -0.00000000000E+00 -0.45593999997E+02  0.45594000000E+02  0.51100000000E-03 0. -1.
    9900012    2    1    2    0    0  0.24997184473E+02 -0.31407320476E+02 -0.16502861224E+02  0.47787269135E+02  0.19999991294E+02 0.  0.
        -12    1    1    2    0    0 -0.24997184473E+02  0.31407320476E+02  0.16502861224E+02  0.43400730865E+02  0.00000000000E+00 0.  1.
         11    1    3    3    0    0  0.14924888238E+01 -0.47377380364E+00 -0.24669020420E+01  0.29219155450E+01  0.51100000000E-03 0. -1.
        -11    1    3    3    0    0 -0.14498365358E-02  0.10224992645E+01  0.18650617515E+01  0.21269608473E+01  0.51100000000E-03 0.  1.
         12    1    3    3    0    0  0.23506145486E+02 -0.31956045937E+02 -0.15901020933E+02  0.42738392743E+02  0.00000000000E+00 0. -1.
</event>
<event>
 7    1  0.2110035E-010  0.4778727E+02  0.7816164E-02  0.1312668E+00
        -11   -1    0    0    0    0  0.00000000000E+00  0.00000000000E+00  0.45593999997E+02  0.45594000000E+02  0.51100000000E-03 0.  1.
         11   -1    0    0    0    0 -0.00000000000E+00 -0.00000000000E+00 -0.45593999997E+02  0.45594000000E+02  0.51100000000E-03 0. -1.
    9900012    2    1    2    0    0  0.15124180812E+02 -0.29256918111E+02 -0.28265087934E+02  0.47787270761E+02  0.19999998707E+02 0.  0.
        -12    1    1    2    0    0 -0.15124180812E+02  0.29256918111E+02  0.28265087934E+02  0.43400729239E+02  0.00000000000E+00 0.  1.
         11    1    3    3    0    0  0.58159775020E+01 -0.23719827504E+02 -0.20287283755E+02  0.31749483358E+02  0.51100000000E-03 0. -1.
        -11    1    3    3    0    0  0.24994037608E+01 -0.43724517065E+00 -0.70351877314E+01  0.74787745772E+01  0.51100000000E-03 0.  1.
        -12    1    3    3    0    0  0.68087995490E+01 -0.50998454368E+01 -0.94261644704E+00  0.85590128253E+01  0.00000000000E+00 0.  1.
</event>
<event>
 7    1  0.2110035E-010  0.4778728E+02  0.7816164E-02  0.1312668E+00
        -11   -1    0    0    0    0  0.00000000000E+00  0.00000000000E+00  0.45593999997E+02  0.45594000000E+02  0.51100000000E-03 0. -1.
         11   -1    0    0    0    0 -0.00000000000E+00 -0.00000000000E+00 -0.45593999997E+02  0.45594000000E+02  0.51100000000E-03 0.  1.
    9900012    2    1    2    0    0 -0.38149579826E+01 -0.19474319286E+02  0.38598183908E+02  0.47787276307E+02  0.20000023996E+02 0.  0.
        -12    1    1    2    0    0  0.38149579826E+01  0.19474319286E+02 -0.38598183908E+02  0.43400723693E+02  0.00000000000E+00 0.  1.
         11    1    3    3    0    0  0.31422802020E+01 -0.10851810292E+02  0.10579035269E+02  0.15477457769E+02  0.51100000000E-03 0. -1.
        -11    1    3    3    0    0 -0.28830241766E+01  0.93779478241E+00  0.74361485707E+00  0.31215782505E+01  0.51100000000E-03 0.  1.
         12    1    3    3    0    0 -0.40742140080E+01 -0.95603037757E+01  0.27275533782E+02  0.29188240288E+02  0.00000000000E+00 0. -1.
</event>
<event>
 7    1  0.2110035E-010  0.4778727E+02  0.7816164E-02  0.1312668E+00
        -11   -1    0    0    0    0  0.00000000000E+00  0.00000000000E+00  0.45593999997E+02  0.45594000000E+02  0.51100000000E-03 0. -1.
         11   -1    0    0    0    0 -0.00000000000E+00 -0.00000000000E+00 -0.45593999997E+02  0.45594000000E+02  0.51100000000E-03 0.  1.
    9900012    2    1    2    0    0  0.43416559347E+01 -0.19648145182E+02  0.38454172957E+02  0.47787274163E+02  0.20000014221E+02 0.  0.
        -12    1    1    2    0    0 -0.43416559347E+01  0.19648145182E+02 -0.38454172957E+02  0.43400725837E+02  0.00000000000E+00 0.  1.
         11    1    3    3    0    0 -0.42151516742E+00 -0.25299076626E+01  0.57328215626E+01  0.62803941873E+01  0.51100000000E-03 0. -1.
        -11    1    3    3    0    0  0.66335570609E+01 -0.59602490858E+01  0.27752559604E+02  0.29150183760E+02  0.51100000000E-03 0.  1.
         12    1    3    3    0    0 -0.18703859588E+01 -0.11157988433E+02  0.49687917906E+01  0.12356696216E+02  0.00000000000E+00 0. -1.
</event>
<event>
 7    1  0.2110035E-010  0.4778727E+02  0.7816164E-02  0.1312668E+00
        -11   -1    0    0    0    0  0.00000000000E+00  0.00000000000E+00  0.45593999997E+02  0.45594000000E+02  0.51100000000E-03 0.  1.
         11   -1    0    0    0    0 -0.00000000000E+00 -0.00000000000E+00 -0.45593999997E+02  0.45594000000E+02  0.51100000000E-03 0. -1.
    9900012    2    1    2    0    0 -0.71093284960E+01 -0.99627380580E+01 -0.41639215630E+02  0.47787274435E+02  0.20000015461E+02 0.  0.
        -12    1    1    2    0    0  0.71093284960E+01  0.99627380580E+01  0.41639215630E+02  0.43400725565E+02  0.00000000000E+00 0.  1.
         11    1    3    3    0    0 -0.62198649886E+01 -0.85798291533E+00 -0.76280700508E+01  0.98797929189E+01  0.51100000000E-03 0. -1.
        -11    1    3    3    0    0 -0.19162764199E+01  0.32545505494E+01 -0.43668403361E+01  0.57735179378E+01  0.51100000000E-03 0.  1.
         12    1    3    3    0    0  0.10268129125E+01 -0.12359305692E+02 -0.29644305243E+02  0.32133963579E+02  0.00000000000E+00 0. -1.
</event>
<event>
 7    1  0.2110035E-010  0.4778727E+02  0.7816164E-02  0.1312668E+00
        -11   -1    0    0    0    0  0.00000000000E+00  0.00000000000E+00  0.45593999997E+02  0.45594000000E+02  0.51100000000E-03 0.  1.
         11   -1    0    0    0    0 -0.00000000000E+00 -0.00000000000E+00 -0.45593999997E+02  0.45594000000E+02  0.51100000000E-03 0. -1.
    9900012    2    1    2    0    0 -0.14854037562E+02 -0.65273669009E+01 -0.40253873281E+02  0.47787271151E+02  0.20000000484E+02 0.  0.
        -12    1    1    2    0    0  0.14854037562E+02  0.65273669009E+01  0.40253873281E+02  0.43400728849E+02  0.00000000000E+00 0.  1.
         11    1    3    3    0    0 -0.89280830196E+01  0.15767415901E+01 -0.99159298322E+01  0.13435864138E+02  0.51100000000E-03 0. -1.
        -11    1    3    3    0    0 -0.84656483821E+00 -0.62744291559E+01 -0.40523455078E+01  0.75170897050E+01  0.51100000000E-03 0.  1.
         12    1    3    3    0    0 -0.50793897045E+01 -0.18296793351E+01 -0.26285597941E+02  0.26834317307E+02  0.00000000000E+00 0. -1.
</event>
<event>
 7    1  0.2110035E-010  0.4778727E+02  0.7816164E-02  0.1312668E+00
        -11   -1    0    0    0    0  0.00000000000E+00  0.00000000000E+00  0.45593999997E+02  0.45594000000E+02  0.51100000000E-03 0.  1.
         11   -1    0    0    0    0 -0.00000000000E+00 -0.00000000000E+00 -0.45593999997E+02  0.45594000000E+02  0.51100000000E-03 0. -1.
    9900012    2    1    2    0    0 -0.58541724422E+00 -0.16689012149E+02 -0.40059421720E+02  0.47787272951E+02  0.20000008691E+02 0.  0.
        -12    1    1    2    0    0  0.58541724422E+00  0.16689012149E+02  0.40059421720E+02  0.43400727049E+02  0.00000000000E+00 0.  1.
         11    1    3    3    0    0 -0.66564594719E+01 -0.57700431017E+01 -0.22727178992E+02  0.24374710568E+02  0.51100000000E-03 0. -1.
        -11    1    3    3    0    0  0.42060004793E+01 -0.69266229176E+01 -0.17189356489E+02  0.19003750205E+02  0.51100000000E-03 0.  1.
        -12    1    3    3    0    0  0.18650417484E+01 -0.39923461298E+01 -0.14288623978E+00  0.44088121780E+01  0.00000000000E+00 0.  1.
</event>
<event>
 7    1  0.2110035E-010  0.4778727E+02  0.7816164E-02  0.1312668E+00
        -11   -1    0    0    0    0  0.00000000000E+00  0.00000000000E+00  0.45593999997E+02  0.45594000000E+02  0.51100000000E-03 0.  1.
         11   -1    0    0    0    0 -0.00000000000E+00 -0.00000000000E+00 -0.45593999997E+02  0.45594000000E+02  0.51100000000E-03 0. -1.
    9900012    2    1    2    0    0 -0.10640144938E+02  0.15293706746E+02 -0.39198381731E+02  0.47787270967E+02  0.19999999645E+02 0.  0.
        -12    1    1    2    0    0  0.10640144938E+02 -0.15293706746E+02  0.39198381731E+02  0.43400729033E+02  0.00000000000E+00 0.  1.
         11    1    3    3    0    0 -0.31679938045E+01  0.14544675323E+02 -0.35981527771E+02  0.38939107668E+02  0.51100000000E-03 0. -1.
        -11    1    3    3    0    0 -0.19180876610E+01  0.84143265872E+00  0.51404959382E+00  0.21566910860E+01  0.51100000000E-03 0.  1.
         12    1    3    3    0    0 -0.55540634723E+01 -0.92401235764E-01 -0.37309035530E+01  0.66914722121E+01  0.00000000000E+00 0. -1.
</event>
<event>
 7    1  0.2110035E-010  0.4778727E+02  0.7816164E-02  0.1312668E+00
        -11   -1    0    0    0    0  0.00000000000E+00  0.00000000000E+00  0.45593999997E+02  0.45594000000E+02  0.51100000000E-03 0.  1.
         11   -1    0    0    0    0 -0.00000000000E+00 -0.00000000000E+00 -0.45593999997E+02  0.45594000000E+02  0.51100000000E-03 0. -1.
    9900012    2    1    2    0    0 -0.32952748052E+02  0.27828987380E+02  0.48256413514E+01  0.47787274692E+02  0.20000016631E+02 0.  0.
        -12    1    1    2    0    0  0.32952748052E+02 -0.27828987380E+02 -0.48256413514E+01  0.43400725308E+02  0.00000000000E+00 0.  1.
         11    1    3    3    0    0 -0.21393211264E+02  0.21771088848E+02 -0.50558166528E-01  0.30522980755E+02  0.51100000000E-03 0. -1.
        -11    1    3    3    0    0 -0.72627754713E+01  0.84205621589E+01  0.13010013424E+01  0.11195819728E+02  0.51100000000E-03 0.  1.
        -12    1    3    3    0    0 -0.42967613173E+01 -0.23626636269E+01  0.35751981755E+01  0.60684742091E+01  0.00000000000E+00 0.  1.
</event>
<event>
 7    1  0.2110035E-010  0.4778728E+02  0.7816164E-02  0.1312668E+00
        -11   -1    0    0    0    0  0.00000000000E+00  0.00000000000E+00  0.45593999997E+02  0.45594000000E+02  0.51100000000E-03 0.  1.
         11   -1    0    0    0    0 -0.00000000000E+00 -0.00000000000E+00 -0.45593999997E+02  0.45594000000E+02  0.51100000000E-03 0. -1.
    9900012    2    1    2    0    0  0.34404754831E+02  0.26456294919E+02  0.50127377329E-02  0.47787277415E+02  0.20000029044E+02 0.  0.
        -12    1    1    2    0    0 -0.34404754831E+02 -0.26456294919E+02 -0.50127377329E-02  0.43400722585E+02  0.00000000000E+00 0.  1.
         11    1    3    3    0    0  0.27292096871E+01  0.65391560365E+01  0.34391230241E+01  0.78763389098E+01  0.51100000000E-03 0. -1.
        -11    1    3    3    0    0  0.66595049548E+01  0.38555371545E+01  0.47923013317E+01  0.90653364696E+01  0.51100000000E-03 0.  1.
         12    1    3    3    0    0  0.25016040189E+02  0.16061601728E+02 -0.82264116180E+01  0.30845602035E+02  0.00000000000E+00 0. -1.
</event>
<event>
 7    1  0.2110035E-010  0.4778724E+02  0.7816164E-02  0.1312668E+00
        -11   -1    0    0    0    0  0.00000000000E+00  0.00000000000E+00  0.45593999997E+02  0.45594000000E+02  0.51100000000E-03 0. -1.
         11   -1    0    0    0    0 -0.00000000000E+00 -0.00000000000E+00 -0.45593999997E+02  0.45594000000E+02  0.51100000000E-03 0.  1.
    9900012    2    1    2    0    0  0.20188878306E+02  0.38212022393E+02  0.39845315943E+01  0.47787240160E+02  0.19999859186E+02 0.  0.
        -12    1    1    2    0    0 -0.20188878306E+02 -0.38212022393E+02 -0.39845315943E+01  0.43400759840E+02  0.00000000000E+00 0.  1.
         11    1    3    3    0    0  0.10227685387E+02  0.18593678984E+02 -0.40331164700E+01  0.21600844318E+02  0.51100000000E-03 0. -1.
        -11    1    3    3    0    0 -0.86493801346E+00  0.10731106438E+02  0.20400770613E+01  0.10957494140E+02  0.51100000000E-03 0.  1.
         12    1    3    3    0    0  0.10826130933E+02  0.88872369715E+01  0.59775710031E+01  0.15228901702E+02  0.00000000000E+00 0. -1.
</event>
<event>
 7    1  0.2110035E-010  0.4778727E+02  0.7816164E-02  0.1312668E+00
        -11   -1    0    0    0    0  0.00000000000E+00  0.00000000000E+00  0.45593999997E+02  0.45594000000E+02  0.51100000000E-03 0.  1.
         11   -1    0    0    0    0 -0.00000000000E+00 -0.00000000000E+00 -0.45593999997E+02  0.45594000000E+02  0.51100000000E-03 0. -1.
    9900012    2    1    2    0    0  0.35052829905E+02 -0.23700462111E+02 -0.96545587722E+01  0.47787270816E+02  0.19999998958E+02 0.  0.
        -12    1    1    2    0    0 -0.35052829905E+02  0.23700462111E+02  0.96545587722E+01  0.43400729184E+02  0.00000000000E+00 0.  1.
         11    1    3    3    0    0  0.43675206650E+01 -0.49466733986E+01  0.14197428284E+01  0.67498506969E+01  0.51100000000E-03 0. -1.
        -11    1    3    3    0    0  0.85801032606E+00 -0.17795699071E+01  0.32867764459E+01  0.38348338217E+01  0.51100000000E-03 0.  1.
         12    1    3    3    0    0  0.29827298914E+02 -0.16974218805E+02 -0.14361078047E+02  0.37202586297E+02  0.00000000000E+00 0. -1.
</event>
<event>
 7    1  0.2110035E-010  0.4778728E+02  0.7816164E-02  0.1312668E+00
        -11   -1    0    0    0    0  0.00000000000E+00  0.00000000000E+00  0.45593999997E+02  0.45594000000E+02  0.51100000000E-03 0.  1.
         11   -1    0    0    0    0 -0.00000000000E+00 -0.00000000000E+00 -0.45593999997E+02  0.45594000000E+02  0.51100000000E-03 0. -1.
    9900012    2    1    2    0    0  0.18340623829E+02  0.13707842423E+02 -0.36869212925E+02  0.47787282402E+02  0.20000051782E+02 0.  0.
        -12    1    1    2    0    0 -0.18340623829E+02 -0.13707842423E+02  0.36869212925E+02  0.43400717598E+02  0.00000000000E+00 0.  1.
         11    1    3    3    0    0  0.33130569153E+00  0.10116089226E+02 -0.21231403253E+02  0.23520576291E+02  0.51100000000E-03 0. -1.
        -11    1    3    3    0    0  0.24777849115E+01  0.64056685979E+00 -0.10876555700E+01  0.27807802627E+01  0.51100000000E-03 0.  1.
         12    1    3    3    0    0  0.15531533226E+02  0.29511863367E+01 -0.14550154102E+02  0.21485925848E+02  0.00000000000E+00 0. -1.
</event>
<event>
 7    1  0.2110035E-010  0.4778727E+02  0.7816164E-02  0.1312668E+00
        -11   -1    0    0    0    0  0.00000000000E+00  0.00000000000E+00  0.45593999997E+02  0.45594000000E+02  0.51100000000E-03 0.  1.
         11   -1    0    0    0    0 -0.00000000000E+00 -0.00000000000E+00 -0.45593999997E+02  0.45594000000E+02  0.51100000000E-03 0. -1.
    9900012    2    1    2    0    0 -0.33182985668E+02  0.10157326678E+02  0.26064180764E+02  0.47787270260E+02  0.19999996423E+02 0.  0.
        -12    1    1    2    0    0  0.33182985668E+02 -0.10157326678E+02 -0.26064180764E+02  0.43400729740E+02  0.00000000000E+00 0.  1.
         11    1    3    3    0    0 -0.14819168642E+02  0.24535559549E+01  0.16167711339E+01  0.15107668425E+02  0.51100000000E-03 0. -1.
        -11    1    3    3    0    0  0.22342616328E+00  0.15527106737E+01  0.43402959873E+01  0.46150838784E+01  0.51100000000E-03 0.  1.
         12    1    3    3    0    0 -0.18587243188E+02  0.61510600492E+01  0.20107113643E+02  0.28064517957E+02  0.00000000000E+00 0. -1.
</event>
<event>
 7    1  0.2110035E-010  0.4778727E+02  0.7816164E-02  0.1312668E+00
        -11   -1    0    0    0    0  0.00000000000E+00  0.00000000000E+00  0.45593999997E+02  0.45594000000E+02  0.51100000000E-03 0.  1.
         11   -1    0    0    0    0 -0.00000000000E+00 -0.00000000000E+00 -0.45593999997E+02  0.45594000000E+02  0.51100000000E-03 0. -1.
    9900012    2    1    2    0    0 -0.28215631093E+02 -0.32314055107E+02 -0.65805203514E+01  0.47787271394E+02  0.20000001594E+02 0.  0.
        -12    1    1    2    0    0  0.28215631093E+02  0.32314055107E+02  0.65805203514E+01  0.43400728606E+02  0.00000000000E+00 0.  1.
         11    1    3    3    0    0 -0.54058671449E+01 -0.12746921908E+02 -0.74287594923E+01  0.15712857333E+02  0.51100000000E-03 0.  1.
        -11    1    3    3    0    0 -0.10999131288E+02 -0.13560540592E+02 -0.40911900691E+01  0.17933404214E+02  0.51100000000E-03 0. -1.
        -12    1    3    3    0    0 -0.11810632661E+02 -0.60065926064E+01  0.49394292101E+01  0.14141009848E+02  0.00000000000E+00 0.  1.
</event>
<event>
 7    1  0.2110035E-010  0.4778727E+02  0.7816164E-02  0.1312668E+00
        -11   -1    0    0    0    0  0.00000000000E+00  0.00000000000E+00  0.45593999997E+02  0.45594000000E+02  0.51100000000E-03 0. -1.
         11   -1    0    0    0    0 -0.00000000000E+00 -0.00000000000E+00 -0.45593999997E+02  0.45594000000E+02  0.51100000000E-03 0.  1.
    9900012    2    1    2    0    0  0.27210741317E+02 -0.26452287135E+02  0.21058853245E+02  0.47787271462E+02  0.20000001902E+02 0.  0.
        -12    1    1    2    0    0 -0.27210741317E+02  0.26452287135E+02 -0.21058853245E+02  0.43400728538E+02  0.00000000000E+00 0.  1.
         11    1    3    3    0    0  0.42890283831E+01  0.45550906626E-01  0.31321416053E+01  0.53111345918E+01  0.51100000000E-03 0. -1.
        -11    1    3    3    0    0  0.33213279760E+01 -0.14129650413E+02  0.27507216956E+01  0.14773107676E+02  0.51100000000E-03 0.  1.
         12    1    3    3    0    0  0.19600384958E+02 -0.12368187629E+02  0.15175989944E+02  0.27703029194E+02  0.00000000000E+00 0. -1.
</event>
<event>
 7    1  0.2110035E-010  0.4778726E+02  0.7816164E-02  0.1312668E+00
        -11   -1    0    0    0    0  0.00000000000E+00  0.00000000000E+00  0.45593999997E+02  0.45594000000E+02  0.51100000000E-03 0.  1.
         11   -1    0    0    0    0 -0.00000000000E+00 -0.00000000000E+00 -0.45593999997E+02  0.45594000000E+02  0.51100000000E-03 0. -1.
    9900012    2    1    2    0    0 -0.22031507887E+01 -0.42469881761E+02  0.86648461349E+01  0.47787259353E+02  0.19999946694E+02 0.  0.
        -12    1    1    2    0    0  0.22031507887E+01  0.42469881761E+02 -0.86648461349E+01  0.43400740647E+02  0.00000000000E+00 0.  1.
         11    1    3    3    0    0 -0.18809018202E+01  0.13674724625E+01 -0.82345385449E+00  0.24669513786E+01  0.51100000000E-03 0.  1.
        -11    1    3    3    0    0 -0.27947837650E+01 -0.13899805597E+02  0.44596548390E+01  0.14862837329E+02  0.51100000000E-03 0. -1.
        -12    1    3    3    0    0  0.24725347965E+01 -0.29937548626E+02  0.50286451503E+01  0.30457470645E+02  0.00000000000E+00 0.  1.
</event>
<event>
 7    1  0.2110035E-010  0.4778727E+02  0.7816164E-02  0.1312668E+00
        -11   -1    0    0    0    0  0.00000000000E+00  0.00000000000E+00  0.45593999997E+02  0.45594000000E+02  0.51100000000E-03 0.  1.
         11   -1    0    0    0    0 -0.00000000000E+00 -0.00000000000E+00 -0.45593999997E+02  0.45594000000E+02  0.51100000000E-03 0. -1.
    9900012    2    1    2    0    0 -0.21306913919E+02  0.33894319368E+02 -0.16757505207E+02  0.47787269051E+02  0.19999990910E+02 0.  0.
        -12    1    1    2    0    0  0.21306913919E+02 -0.33894319368E+02  0.16757505207E+02  0.43400730949E+02  0.00000000000E+00 0.  1.
         11    1    3    3    0    0  0.77714868506E+00  0.39390185205E+01 -0.21547134923E+01  0.45566015273E+01  0.51100000000E-03 0. -1.
        -11    1    3    3    0    0 -0.43197329313E+01  0.15235202844E+02  0.16809296025E+00  0.15836658543E+02  0.51100000000E-03 0.  1.
         12    1    3    3    0    0 -0.17764329673E+02  0.14720098003E+02 -0.14770884675E+02  0.27394008980E+02  0.00000000000E+00 0. -1.
</event>
<event>
 7    1  0.2110035E-010  0.4778727E+02  0.7816164E-02  0.1312668E+00
        -11   -1    0    0    0    0  0.00000000000E+00  0.00000000000E+00  0.45593999997E+02  0.45594000000E+02  0.51100000000E-03 0.  1.
         11   -1    0    0    0    0 -0.00000000000E+00 -0.00000000000E+00 -0.45593999997E+02  0.45594000000E+02  0.51100000000E-03 0. -1.
    9900012    2    1    2    0    0  0.41872542985E+02  0.11155627473E+02 -0.24218404534E+01  0.47787271993E+02  0.20000004325E+02 0.  0.
        -12    1    1    2    0    0 -0.41872542985E+02 -0.11155627473E+02  0.24218404534E+01  0.43400728007E+02  0.00000000000E+00 0.  1.
         11    1    3    3    0    0  0.32733735620E+02  0.23365704604E+01 -0.17584088557E+01  0.32864099122E+02  0.51100000000E-03 0. -1.
        -11    1    3    3    0    0  0.55506601498E+01  0.13863480081E+01 -0.28403345123E+01  0.63874321367E+01  0.51100000000E-03 0.  1.
        -12    1    3    3    0    0  0.35881472153E+01  0.74327090042E+01  0.21769029145E+01  0.85357407340E+01  0.00000000000E+00 0.  1.
</event>
<event>
 7    1  0.2110035E-010  0.4778727E+02  0.7816164E-02  0.1312668E+00
        -11   -1    0    0    0    0  0.00000000000E+00  0.00000000000E+00  0.45593999997E+02  0.45594000000E+02  0.51100000000E-03 0. -1.
         11   -1    0    0    0    0 -0.00000000000E+00 -0.00000000000E+00 -0.45593999997E+02  0.45594000000E+02  0.51100000000E-03 0.  1.
    9900012    2    1    2    0    0 -0.17998919755E+02  0.99938912604E+01  0.38207121267E+02  0.47787273159E+02  0.20000009640E+02 0.  0.
        -12    1    1    2    0    0  0.17998919755E+02 -0.99938912604E+01 -0.38207121267E+02  0.43400726841E+02  0.00000000000E+00 0.  1.
         11    1    3    3    0    0 -0.39348858283E+01 -0.41936392027E+01  0.12943760237E+02  0.14163716517E+02  0.51100000000E-03 0. -1.
        -11    1    3    3    0    0 -0.94406483114E+01  0.36527617859E+01  0.81167088902E+01  0.12974955594E+02  0.51100000000E-03 0.  1.
         12    1    3    3    0    0 -0.46233856151E+01  0.10534768677E+02  0.17146652140E+02  0.20648601048E+02  0.00000000000E+00 0. -1.
</event>
<event>
 7    1  0.2110035E-010  0.4778727E+02  0.7816164E-02  0.1312668E+00
        -11   -1    0    0    0    0  0.00000000000E+00  0.00000000000E+00  0.45593999997E+02  0.45594000000E+02  0.51100000000E-03 0.  1.
         11   -1    0    0    0    0 -0.00000000000E+00 -0.00000000000E+00 -0.45593999997E+02  0.45594000000E+02  0.51100000000E-03 0. -1.
    9900012    2    1    2    0    0  0.70830003046E+01  0.68252100498E+01 -0.42271394871E+02  0.47787271782E+02  0.20000003362E+02 0.  0.
        -12    1    1    2    0    0 -0.70830003046E+01 -0.68252100498E+01  0.42271394871E+02  0.43400728218E+02  0.00000000000E+00 0.  1.
         11    1    3    3    0    0 -0.29397938582E+01 -0.10256482276E+01 -0.15215352977E+02  0.15530657059E+02  0.51100000000E-03 0.  1.
        -11    1    3    3    0    0  0.50372442482E+01  0.50813096103E+01 -0.33979941163E+01  0.79208523056E+01  0.51100000000E-03 0. -1.
         12    1    3    3    0    0  0.49855499146E+01  0.27695486671E+01 -0.23658047777E+02  0.24335762417E+02  0.00000000000E+00 0. -1.
</event>
<event>
 7    1  0.2110035E-010  0.4778727E+02  0.7816164E-02  0.1312668E+00
        -11   -1    0    0    0    0  0.00000000000E+00  0.00000000000E+00  0.45593999997E+02  0.45594000000E+02  0.51100000000E-03 0.  1.
         11   -1    0    0    0    0 -0.00000000000E+00 -0.00000000000E+00 -0.45593999997E+02  0.45594000000E+02  0.51100000000E-03 0. -1.
    9900012    2    1    2    0    0  0.38063498156E+02  0.80852024026E+01 -0.19220385859E+02  0.47787267030E+02  0.19999981696E+02 0.  0.
        -12    1    1    2    0    0 -0.38063498156E+02 -0.80852024026E+01  0.19220385859E+02  0.43400732970E+02  0.00000000000E+00 0.  1.
         11    1    3    3    0    0  0.24392770781E+02 -0.31687225598E+01 -0.14216373054E+02  0.28410444068E+02  0.51100000000E-03 0. -1.
        -11    1    3    3    0    0  0.79390898329E+01  0.36545179608E+01 -0.26508343707E+00  0.87438503183E+01  0.51100000000E-03 0.  1.
        -12    1    3    3    0    0  0.57316375422E+01  0.75994070016E+01 -0.47389293677E+01  0.10632972644E+02  0.00000000000E+00 0.  1.
</event>
<event>
 7    1  0.2110035E-010  0.4778727E+02  0.7816164E-02  0.1312668E+00
        -11   -1    0    0    0    0  0.00000000000E+00  0.00000000000E+00  0.45593999997E+02  0.45594000000E+02  0.51100000000E-03 0. -1.
         11   -1    0    0    0    0 -0.00000000000E+00 -0.00000000000E+00 -0.45593999997E+02  0.45594000000E+02  0.51100000000E-03 0.  1.
    9900012    2    1    2    0    0  0.30919379488E+02 -0.24135596680E+02  0.18576552294E+02  0.47787270166E+02  0.19999995993E+02 0.  0.
        -12    1    1    2    0    0 -0.30919379488E+02  0.24135596680E+02 -0.18576552294E+02  0.43400729834E+02  0.00000000000E+00 0.  1.
         11    1    3    3    0    0  0.11482062421E+01  0.23226870901E+00  0.57379260430E+01  0.58562890864E+01  0.51100000000E-03 0. -1.
        -11    1    3    3    0    0  0.10800989657E+02 -0.50049428346E+01 -0.76482754845E-01  0.11904481518E+02  0.51100000000E-03 0.  1.
         12    1    3    3    0    0  0.18970183589E+02 -0.19362922554E+02  0.12915109006E+02  0.30026499561E+02  0.00000000000E+00 0. -1.
</event>
<event>
 7    1  0.2110035E-010  0.4778726E+02  0.7816164E-02  0.1312668E+00
        -11   -1    0    0    0    0  0.00000000000E+00  0.00000000000E+00  0.45593999997E+02  0.45594000000E+02  0.51100000000E-03 0.  1.
         11   -1    0    0    0    0 -0.00000000000E+00 -0.00000000000E+00 -0.45593999997E+02  0.45594000000E+02  0.51100000000E-03 0. -1.
    9900012    2    1    2    0    0 -0.32960840821E+02  0.13208312736E+01 -0.28203944605E+02  0.47787261364E+02  0.19999955861E+02 0.  0.
        -12    1    1    2    0    0  0.32960840821E+02 -0.13208312736E+01  0.28203944605E+02  0.43400738636E+02  0.00000000000E+00 0.  1.
         11    1    3    3    0    0 -0.27081482800E+01  0.93038539447E+00 -0.39551844077E+01  0.48829466563E+01  0.51100000000E-03 0. -1.
        -11    1    3    3    0    0 -0.30647889021E+02 -0.28326677590E+01 -0.17477386034E+02  0.35394577705E+02  0.51100000000E-03 0.  1.
         12    1    3    3    0    0  0.39519647982E+00  0.32231136381E+01 -0.67713741635E+01  0.75097370023E+01  0.00000000000E+00 0. -1.
</event>
<event>
 7    1  0.2110035E-010  0.4778726E+02  0.7816164E-02  0.1312668E+00
        -11   -1    0    0    0    0  0.00000000000E+00  0.00000000000E+00  0.45593999997E+02  0.45594000000E+02  0.51100000000E-03 0.  1.
         11   -1    0    0    0    0 -0.00000000000E+00 -0.00000000000E+00 -0.45593999997E+02  0.45594000000E+02  0.51100000000E-03 0. -1.
    9900012    2    1    2    0    0  0.19160541833E+02  0.21189662713E+02 -0.32672560003E+02  0.47787258689E+02  0.19999943666E+02 0.  0.
        -12    1    1    2    0    0 -0.19160541833E+02 -0.21189662713E+02  0.32672560003E+02  0.43400741311E+02  0.00000000000E+00 0.  1.
         11    1    3    3    0    0  0.10313203762E+02  0.15954689490E+02 -0.27168644944E+02  0.33151916338E+02  0.51100000000E-03 0. -1.
        -11    1    3    3    0    0  0.92744812837E+01  0.40446409610E+01 -0.72729358864E+01  0.12460767242E+02  0.51100000000E-03 0.  1.
        -12    1    3    3    0    0 -0.42714321246E+00  0.11903322620E+01  0.17690208273E+01  0.21745751092E+01  0.00000000000E+00 0.  1.
</event>
<event>
 7    1  0.2110035E-010  0.4778727E+02  0.7816164E-02  0.1312668E+00
        -11   -1    0    0    0    0  0.00000000000E+00  0.00000000000E+00  0.45593999997E+02  0.45594000000E+02  0.51100000000E-03 0.  1.
         11   -1    0    0    0    0 -0.00000000000E+00 -0.00000000000E+00 -0.45593999997E+02  0.45594000000E+02  0.51100000000E-03 0. -1.
    9900012    2    1    2    0    0 -0.20307631156E+02  0.94877546846E+01 -0.37164578307E+02  0.47787271286E+02  0.20000001104E+02 0.  0.
        -12    1    1    2    0    0  0.20307631156E+02 -0.94877546846E+01  0.37164578307E+02  0.43400728714E+02  0.00000000000E+00 0.  1.
         11    1    3    3    0    0 -0.60149285849E+01 -0.32774696558E+01 -0.69088220311E+01  0.97289770965E+01  0.51100000000E-03 0. -1.
        -11    1    3    3    0    0  0.72099821218E-01  0.64235445511E+01 -0.43263731867E+01  0.77449743832E+01  0.51100000000E-03 0.  1.
         12    1    3    3    0    0 -0.14364802392E+02  0.63416797893E+01 -0.25929383090E+02  0.30313319807E+02  0.00000000000E+00 0. -1.
</event>
<event>
 7    1  0.2110035E-010  0.4778727E+02  0.7816164E-02  0.1312668E+00
        -11   -1    0    0    0    0  0.00000000000E+00  0.00000000000E+00  0.45593999997E+02  0.45594000000E+02  0.51100000000E-03 0. -1.
         11   -1    0    0    0    0 -0.00000000000E+00 -0.00000000000E+00 -0.45593999997E+02  0.45594000000E+02  0.51100000000E-03 0.  1.
    9900012    2    1    2    0    0  0.12790038537E+02 -0.40083393770E+02  0.10647046742E+02  0.47787272515E+02  0.20000006704E+02 0.  0.
        -12    1    1    2    0    0 -0.12790038537E+02  0.40083393770E+02 -0.10647046742E+02  0.43400727485E+02  0.00000000000E+00 0.  1.
         11    1    3    3    0    0  0.74274015712E+01 -0.14131479097E+02  0.69930006484E+01  0.17428914306E+02  0.51100000000E-03 0. -1.
        -11    1    3    3    0    0  0.14364717888E+01 -0.14316175101E+02  0.89933993841E+01  0.16967544120E+02  0.51100000000E-03 0.  1.
        -12    1    3    3    0    0  0.39261651771E+01 -0.11635739572E+02 -0.53393532904E+01  0.13390814088E+02  0.00000000000E+00 0.  1.
</event>
<event>
 7    1  0.2110035E-010  0.4778726E+02  0.7816164E-02  0.1312668E+00
        -11   -1    0    0    0    0  0.00000000000E+00  0.00000000000E+00  0.45593999997E+02  0.45594000000E+02  0.51100000000E-03 0.  1.
         11   -1    0    0    0    0 -0.00000000000E+00 -0.00000000000E+00 -0.45593999997E+02  0.45594000000E+02  0.51100000000E-03 0. -1.
    9900012    2    1    2    0    0  0.25081433455E+00  0.27959252348E+02 -0.33193998121E+02  0.47787260249E+02  0.19999950778E+02 0.  0.
        -12    1    1    2    0    0 -0.25081433455E+00 -0.27959252348E+02  0.33193998121E+02  0.43400739751E+02  0.00000000000E+00 0.  1.
         11    1    3    3    0    0 -0.28987813118E+01  0.22053237447E+02 -0.14374036062E+02  0.26483223519E+02  0.51100000000E-03 0.  1.
        -11    1    3    3    0    0  0.23329222614E+01  0.76749432067E+01 -0.15566362467E+02  0.17511679537E+02  0.51100000000E-03 0. -1.
        -12    1    3    3    0    0  0.81667338498E+00 -0.17689283057E+01 -0.32535995925E+01  0.37923571926E+01  0.00000000000E+00 0.  1.
</event>
<event>
 7    1  0.2110035E-010  0.4778727E+02  0.7816164E-02  0.1312668E+00
        -11   -1    0    0    0    0  0.00000000000E+00  0.00000000000E+00  0.45593999997E+02  0.45594000000E+02  0.51100000000E-03 0. -1.
         11   -1    0    0    0    0 -0.00000000000E+00 -0.00000000000E+00 -0.45593999997E+02  0.45594000000E+02  0.51100000000E-03 0.  1.
    9900012    2    1    2    0    0  0.93318473117E+01  0.35339238649E+02  0.23402519436E+02  0.47787273295E+02  0.20000010262E+02 0.  0.
        -12    1    1    2    0    0 -0.93318473117E+01 -0.35339238649E+02 -0.23402519436E+02  0.43400726705E+02  0.00000000000E+00 0.  1.
         11    1    3    3    0    0  0.20431180780E+01  0.21237649099E+02  0.13652548040E+02  0.25329906020E+02  0.51100000000E-03 0. -1.
        -11    1    3    3    0    0 -0.17606432674E+01 -0.64193054843E+00  0.36700877874E+01  0.41208596400E+01  0.51100000000E-03 0.  1.
         12    1    3    3    0    0  0.90493725011E+01  0.14743520099E+02  0.60798836090E+01  0.18336507635E+02  0.00000000000E+00 0. -1.
</event>
<event>
 7    1  0.2110035E-010  0.4778728E+02  0.7816164E-02  0.1312668E+00
        -11   -1    0    0    0    0  0.00000000000E+00  0.00000000000E+00  0.45593999997E+02  0.45594000000E+02  0.51100000000E-03 0.  1.
         11   -1    0    0    0    0 -0.00000000000E+00 -0.00000000000E+00 -0.45593999997E+02  0.45594000000E+02  0.51100000000E-03 0. -1.
    9900012    2    1    2    0    0 -0.12817235221E+01 -0.43067784443E+02 -0.52101729497E+01  0.47787276801E+02  0.20000026246E+02 0.  0.
        -12    1    1    2    0    0  0.12817235221E+01  0.43067784443E+02  0.52101729497E+01  0.43400723199E+02  0.00000000000E+00 0.  1.
         11    1    3    3    0    0  0.30650945318E+01 -0.74976978655E+01 -0.44134498730E+01  0.92243600219E+01  0.51100000000E-03 0. -1.
        -11    1    3    3    0    0 -0.76891750488E+01 -0.93929326962E+01 -0.91171037360E+00  0.12172995261E+02  0.51100000000E-03 0.  1.
        -12    1    3    3    0    0  0.33423569949E+01 -0.26177153882E+02  0.11498729691E+00  0.26389921518E+02  0.00000000000E+00 0.  1.
</event>
<event>
 7    1  0.2110035E-010  0.4778727E+02  0.7816164E-02  0.1312668E+00
        -11   -1    0    0    0    0  0.00000000000E+00  0.00000000000E+00  0.45593999997E+02  0.45594000000E+02  0.51100000000E-03 0. -1.
         11   -1    0    0    0    0 -0.00000000000E+00 -0.00000000000E+00 -0.45593999997E+02  0.45594000000E+02  0.51100000000E-03 0.  1.
    9900012    2    1    2    0    0 -0.12673171793E+02 -0.78533150562E+01  0.40759534001E+02  0.47787268984E+02  0.19999990608E+02 0.  0.
        -12    1    1    2    0    0  0.12673171793E+02  0.78533150562E+01 -0.40759534001E+02  0.43400731016E+02  0.00000000000E+00 0.  1.
         11    1    3    3    0    0 -0.82314952498E+01  0.70691982644E+00  0.12381928634E+02  0.14885207645E+02  0.51100000000E-03 0. -1.
        -11    1    3    3    0    0 -0.66036625048E+01 -0.10692125684E+02  0.26508685055E+02  0.29336671484E+02  0.51100000000E-03 0.  1.
        -12    1    3    3    0    0  0.21619859616E+01  0.21318908016E+01  0.18689203126E+01  0.35653898557E+01  0.00000000000E+00 0.  1.
</event>
<event>
 7    1  0.2110035E-010  0.4778727E+02  0.7816164E-02  0.1312668E+00
        -11   -1    0    0    0    0  0.00000000000E+00  0.00000000000E+00  0.45593999997E+02  0.45594000000E+02  0.51100000000E-03 0.  1.
         11   -1    0    0    0    0 -0.00000000000E+00 -0.00000000000E+00 -0.45593999997E+02  0.45594000000E+02  0.51100000000E-03 0. -1.
    9900012    2    1    2    0    0 -0.13825890285E+02  0.21732654365E+02 -0.34930788522E+02  0.47787268500E+02  0.19999988400E+02 0.  0.
        -12    1    1    2    0    0  0.13825890285E+02 -0.21732654365E+02  0.34930788522E+02  0.43400731500E+02  0.00000000000E+00 0.  1.
         11    1    3    3    0    0 -0.76307506613E+01  0.23856251728E+02 -0.23690475803E+02  0.34475900948E+02  0.51100000000E-03 0. -1.
        -11    1    3    3    0    0 -0.13268032153E+01 -0.25569259567E+00 -0.49994570596E+01  0.51788373818E+01  0.51100000000E-03 0.  1.
         12    1    3    3    0    0 -0.48683364083E+01 -0.18679047670E+01 -0.62408556594E+01  0.81325301699E+01  0.00000000000E+00 0. -1.
</event>
<event>
 7    1  0.2110035E-010  0.4778727E+02  0.7816164E-02  0.1312668E+00
        -11   -1    0    0    0    0  0.00000000000E+00  0.00000000000E+00  0.45593999997E+02  0.45594000000E+02  0.51100000000E-03 0.  1.
         11   -1    0    0    0    0 -0.00000000000E+00 -0.00000000000E+00 -0.45593999997E+02  0.45594000000E+02  0.51100000000E-03 0. -1.
    9900012    2    1    2    0    0 -0.30370667753E+02  0.30030805005E+02 -0.77068969920E+01  0.47787274542E+02  0.20000015947E+02 0.  0.
        -12    1    1    2    0    0  0.30370667753E+02 -0.30030805005E+02  0.77068969920E+01  0.43400725458E+02  0.00000000000E+00 0.  1.
         11    1    3    3    0    0 -0.12811409635E+02  0.21697019933E+02 -0.70821370766E+01  0.26173451371E+02  0.51100000000E-03 0. -1.
        -11    1    3    3    0    0 -0.31614793207E+01  0.52907874604E+01 -0.27431793269E+01  0.67462890931E+01  0.51100000000E-03 0.  1.
        -12    1    3    3    0    0 -0.14397778798E+02  0.30429976113E+01  0.21184194115E+01  0.14867534078E+02  0.00000000000E+00 0.  1.
</event>
<event>
 7    1  0.2110035E-010  0.4778727E+02  0.7816164E-02  0.1312668E+00
        -11   -1    0    0    0    0  0.00000000000E+00  0.00000000000E+00  0.45593999997E+02  0.45594000000E+02  0.51100000000E-03 0.  1.
         11   -1    0    0    0    0 -0.00000000000E+00 -0.00000000000E+00 -0.45593999997E+02  0.45594000000E+02  0.51100000000E-03 0. -1.
    9900012    2    1    2    0    0 -0.11352669519E+02 -0.37116110900E+02 -0.19419949091E+02  0.47787271708E+02  0.20000003026E+02 0.  0.
        -12    1    1    2    0    0  0.11352669519E+02  0.37116110900E+02  0.19419949091E+02  0.43400728292E+02  0.00000000000E+00 0.  1.
         11    1    3    3    0    0 -0.75653004823E+01 -0.24122361069E+02 -0.10773860458E+02  0.27480868697E+02  0.51100000000E-03 0. -1.
        -11    1    3    3    0    0 -0.70729147392E+01 -0.11847901807E+02 -0.94636897869E+01  0.16732014965E+02  0.51100000000E-03 0.  1.
        -12    1    3    3    0    0  0.32855457023E+01 -0.11458480242E+01  0.81760115391E+00  0.35743880460E+01  0.00000000000E+00 0.  1.
</event>
<event>
 7    1  0.2184693E-010  0.4778727E+02  0.7816164E-02  0.1312668E+00
        -11   -1    0    0    0    0  0.00000000000E+00  0.00000000000E+00  0.45593999997E+02  0.45594000000E+02  0.51100000000E-03 0. -1.
         11   -1    0    0    0    0 -0.00000000000E+00 -0.00000000000E+00 -0.45593999997E+02  0.45594000000E+02  0.51100000000E-03 0.  1.
    9900012    2    1    2    0    0  0.15895672225E+02  0.39839163181E+02  0.66175723330E+01  0.47787267494E+02  0.19999983814E+02 0.  0.
        -12    1    1    2    0    0 -0.15895672225E+02 -0.39839163181E+02 -0.66175723330E+01  0.43400732506E+02  0.00000000000E+00 0.  1.
         11    1    3    3    0    0  0.68289314169E+01  0.84808568316E+01  0.30439191594E+01  0.11305957766E+02  0.51100000000E-03 0. -1.
        -11    1    3    3    0    0  0.31229262828E+01  0.29939355423E+02  0.19840454416E+01  0.30167103081E+02  0.51100000000E-03 0.  1.
        -12    1    3    3    0    0  0.59438145253E+01  0.14189509260E+01  0.15896077320E+01  0.63142066471E+01  0.00000000000E+00 0.  1.
</event>
<event>
 7    1  0.2175713E-010  0.4778728E+02  0.7816164E-02  0.1312668E+00
        -11   -1    0    0    0    0  0.00000000000E+00  0.00000000000E+00  0.45593999997E+02  0.45594000000E+02  0.51100000000E-03 0.  1.
         11   -1    0    0    0    0 -0.00000000000E+00 -0.00000000000E+00 -0.45593999997E+02  0.45594000000E+02  0.51100000000E-03 0. -1.
    9900012    2    1    2    0    0 -0.35917584951E+02 -0.13358856435E+00 -0.24362514814E+02  0.47787275551E+02  0.20000020549E+02 0.  0.
        -12    1    1    2    0    0  0.35917584951E+02  0.13358856435E+00  0.24362514814E+02  0.43400724449E+02  0.00000000000E+00 0.  1.
         11    1    3    3    0    0 -0.12536159145E+02 -0.15467047646E+01 -0.63666924581E+01  0.14145047008E+02  0.51100000000E-03 0. -1.
        -11    1    3    3    0    0  0.22709773349E+01 -0.11945211720E+00 -0.33937896482E+01  0.40852680819E+01  0.51100000000E-03 0.  1.
        -12    1    3    3    0    0 -0.25652403141E+02  0.15325683174E+01 -0.14602032708E+02  0.29556960462E+02  0.00000000000E+00 0.  1.
</event>
<event>
 7    1  0.2110035E-010  0.4778727E+02  0.7816164E-02  0.1312668E+00
        -11   -1    0    0    0    0  0.00000000000E+00  0.00000000000E+00  0.45593999997E+02  0.45594000000E+02  0.51100000000E-03 0.  1.
         11   -1    0    0    0    0 -0.00000000000E+00 -0.00000000000E+00 -0.45593999997E+02  0.45594000000E+02  0.51100000000E-03 0. -1.
    9900012    2    1    2    0    0  0.11488927503E+02  0.18573811474E+02 -0.37505217809E+02  0.47787270850E+02  0.19999999113E+02 0.  0.
        -12    1    1    2    0    0 -0.11488927503E+02 -0.18573811474E+02  0.37505217809E+02  0.43400729150E+02  0.00000000000E+00 0.  1.
         11    1    3    3    0    0  0.15263243158E+02  0.71224373169E+01 -0.24781171009E+02  0.29963346640E+02  0.51100000000E-03 0. -1.
        -11    1    3    3    0    0 -0.12406514777E+01  0.29973744837E+01 -0.15795462201E+01  0.36081070393E+01  0.51100000000E-03 0.  1.
         12    1    3    3    0    0 -0.25336641772E+01  0.84539996734E+01 -0.11144500580E+02  0.14215817171E+02  0.00000000000E+00 0. -1.
</event>
<event>
 7    1  0.2110035E-010  0.4778727E+02  0.7816164E-02  0.1312668E+00
        -11   -1    0    0    0    0  0.00000000000E+00  0.00000000000E+00  0.45593999997E+02  0.45594000000E+02  0.51100000000E-03 0.  1.
         11   -1    0    0    0    0 -0.00000000000E+00 -0.00000000000E+00 -0.45593999997E+02  0.45594000000E+02  0.51100000000E-03 0. -1.
    9900012    2    1    2    0    0 -0.38542400324E+02  0.19938875344E+02 -0.74006305361E+00  0.47787273439E+02  0.20000010918E+02 0.  0.
        -12    1    1    2    0    0  0.38542400324E+02 -0.19938875344E+02  0.74006305361E+00  0.43400726561E+02  0.00000000000E+00 0.  1.
         11    1    3    3    0    0 -0.26938110208E+02  0.10477017084E+02 -0.21309377489E+01  0.28982245677E+02  0.51100000000E-03 0. -1.
        -11    1    3    3    0    0 -0.47406427342E+01  0.10702373944E+02  0.16741051110E+01  0.11824429363E+02  0.51100000000E-03 0.  1.
         12    1    3    3    0    0 -0.68636473820E+01 -0.12405156838E+01 -0.28323041570E+00  0.69805983994E+01  0.00000000000E+00 0. -1.
</event>
<event>
 7    1  0.2110035E-010  0.4778727E+02  0.7816164E-02  0.1312668E+00
        -11   -1    0    0    0    0  0.00000000000E+00  0.00000000000E+00  0.45593999997E+02  0.45594000000E+02  0.51100000000E-03 0. -1.
         11   -1    0    0    0    0 -0.00000000000E+00 -0.00000000000E+00 -0.45593999997E+02  0.45594000000E+02  0.51100000000E-03 0.  1.
    9900012    2    1    2    0    0  0.27438027867E+02 -0.25867073047E+02  0.21486571152E+02  0.47787267505E+02  0.19999983860E+02 0.  0.
        -12    1    1    2    0    0 -0.27438027867E+02  0.25867073047E+02 -0.21486571152E+02  0.43400732495E+02  0.00000000000E+00 0.  1.
         11    1    3    3    0    0  0.28766470405E+01 -0.57941914242E+01  0.11230606580E+01  0.65657458037E+01  0.51100000000E-03 0. -1.
        -11    1    3    3    0    0  0.20308692075E+02 -0.17436438806E+02  0.80830490607E+01  0.27960830717E+02  0.51100000000E-03 0.  1.
         12    1    3    3    0    0  0.42526887519E+01 -0.26364428174E+01  0.12280461434E+02  0.13260690984E+02  0.00000000000E+00 0. -1.
</event>
<event>
 7    1  0.2550946E-010  0.4778727E+02  0.7816164E-02  0.1312668E+00
        -11   -1    0    0    0    0  0.00000000000E+00  0.00000000000E+00  0.45593999997E+02  0.45594000000E+02  0.51100000000E-03 0.  1.
         11   -1    0    0    0    0 -0.00000000000E+00 -0.00000000000E+00 -0.45593999997E+02  0.45594000000E+02  0.51100000000E-03 0. -1.
    9900012    2    1    2    0    0 -0.24129745199E+02  0.14002511807E+02 -0.33246177267E+02  0.47787271399E+02  0.20000001615E+02 0.  0.
        -12    1    1    2    0    0  0.24129745199E+02 -0.14002511807E+02  0.33246177267E+02  0.43400728601E+02  0.00000000000E+00 0.  1.
         11    1    3    3    0    0 -0.15989883982E+02  0.80151456863E+01 -0.26755248917E+02  0.32183261099E+02  0.51100000000E-03 0. -1.
        -11    1    3    3    0    0  0.13304247835E+01 -0.13487132983E+01 -0.21422732017E+01  0.28597888729E+01  0.51100000000E-03 0.  1.
        -12    1    3    3    0    0 -0.94702859998E+01  0.73360794190E+01 -0.43486551487E+01  0.12744221426E+02  0.00000000000E+00 0.  1.
</event>
<event>
 7    1  0.2110035E-010  0.4778729E+02  0.7816164E-02  0.1312668E+00
        -11   -1    0    0    0    0  0.00000000000E+00  0.00000000000E+00  0.45593999997E+02  0.45594000000E+02  0.51100000000E-03 0.  1.
         11   -1    0    0    0    0 -0.00000000000E+00 -0.00000000000E+00 -0.45593999997E+02  0.45594000000E+02  0.51100000000E-03 0. -1.
    9900012    2    1    2    0    0 -0.28714793383E+02  0.30468683850E+02 -0.11434227462E+02  0.47787290187E+02  0.20000087280E+02 0.  0.
        -12    1    1    2    0    0  0.28714793383E+02 -0.30468683850E+02  0.11434227462E+02  0.43400709813E+02  0.00000000000E+00 0.  1.
         11    1    3    3    0    0 -0.22695847622E+02  0.22407130368E+02 -0.45543256813E+01  0.32216810414E+02  0.51100000000E-03 0. -1.
        -11    1    3    3    0    0  0.12437722740E+01  0.49699592110E+01 -0.36117526731E-01  0.51233552254E+01  0.51100000000E-03 0.  1.
        -12    1    3    3    0    0 -0.72627180354E+01  0.30915942711E+01 -0.68437842538E+01  0.10447124548E+02  0.00000000000E+00 0.  1.
</event>
<event>
 7    1  0.2110035E-010  0.4778727E+02  0.7816164E-02  0.1312668E+00
        -11   -1    0    0    0    0  0.00000000000E+00  0.00000000000E+00  0.45593999997E+02  0.45594000000E+02  0.51100000000E-03 0. -1.
         11   -1    0    0    0    0 -0.00000000000E+00 -0.00000000000E+00 -0.45593999997E+02  0.45594000000E+02  0.51100000000E-03 0.  1.
    9900012    2    1    2    0    0  0.31829520314E+02 -0.13314291526E+02  0.26329350153E+02  0.47787269572E+02  0.19999993285E+02 0.  0.
        -12    1    1    2    0    0 -0.31829520314E+02  0.13314291526E+02 -0.26329350153E+02  0.43400730428E+02  0.00000000000E+00 0.  1.
         11    1    3    3    0    0  0.14420655746E+02 -0.58408572820E+01  0.14735944433E+02  0.21429395338E+02  0.51100000000E-03 0. -1.
        -11    1    3    3    0    0  0.88335461169E+01 -0.99492097014E+01  0.23541344014E+01  0.13511486214E+02  0.51100000000E-03 0.  1.
        -12    1    3    3    0    0  0.85753184508E+01  0.24757754579E+01  0.92392713186E+01  0.12846388020E+02  0.00000000000E+00 0.  1.
</event>
<event>
 7    1  0.2110035E-010  0.4778728E+02  0.7816164E-02  0.1312668E+00
        -11   -1    0    0    0    0  0.00000000000E+00  0.00000000000E+00  0.45593999997E+02  0.45594000000E+02  0.51100000000E-03 0. -1.
         11   -1    0    0    0    0 -0.00000000000E+00 -0.00000000000E+00 -0.45593999997E+02  0.45594000000E+02  0.51100000000E-03 0.  1.
    9900012    2    1    2    0    0  0.34265004176E+02  0.22969420986E+02  0.13488437111E+02  0.47787277111E+02  0.20000027660E+02 0.  0.
        -12    1    1    2    0    0 -0.34265004176E+02 -0.22969420986E+02 -0.13488437111E+02  0.43400722889E+02  0.00000000000E+00 0.  1.
         11    1    3    3    0    0  0.19366224508E+02  0.15881992220E+02  0.10768427254E+02  0.27262563239E+02  0.51100000000E-03 0. -1.
        -11    1    3    3    0    0  0.12490151997E+02  0.77293564853E+01 -0.23499408049E+01  0.14875115819E+02  0.51100000000E-03 0.  1.
         12    1    3    3    0    0  0.24086276709E+01 -0.64192771870E+00  0.50699506615E+01  0.56495980533E+01  0.00000000000E+00 0. -1.
</event>
<event>
 7    1  0.2110035E-010  0.4778727E+02  0.7816164E-02  0.1312668E+00
        -11   -1    0    0    0    0  0.00000000000E+00  0.00000000000E+00  0.45593999997E+02  0.45594000000E+02  0.51100000000E-03 0.  1.
         11   -1    0    0    0    0 -0.00000000000E+00 -0.00000000000E+00 -0.45593999997E+02  0.45594000000E+02  0.51100000000E-03 0. -1.
    9900012    2    1    2    0    0  0.38805796465E+02  0.11556236987E+02  0.15626482418E+02  0.47787269530E+02  0.19999993095E+02 0.  0.
        -12    1    1    2    0    0 -0.38805796465E+02 -0.11556236987E+02 -0.15626482418E+02  0.43400730470E+02  0.00000000000E+00 0.  1.
         11    1    3    3    0    0  0.11869658066E+02 -0.11541516526E+00  0.92016700860E+01  0.15019082392E+02  0.51100000000E-03 0. -1.
        -11    1    3    3    0    0  0.12983323306E+01  0.17336648263E+01 -0.30009368232E+01  0.37009299708E+01  0.51100000000E-03 0.  1.
         12    1    3    3    0    0  0.25637806069E+02  0.99379873255E+01  0.94257491551E+01  0.29067257167E+02  0.00000000000E+00 0. -1.
</event>
<event>
 7    1  0.2110035E-010  0.4778727E+02  0.7816164E-02  0.1312668E+00
        -11   -1    0    0    0    0  0.00000000000E+00  0.00000000000E+00  0.45593999997E+02  0.45594000000E+02  0.51100000000E-03 0. -1.
         11   -1    0    0    0    0 -0.00000000000E+00 -0.00000000000E+00 -0.45593999997E+02  0.45594000000E+02  0.51100000000E-03 0.  1.
    9900012    2    1    2    0    0 -0.55505851182E+01 -0.30608463001E+02  0.30264441063E+02  0.47787269646E+02  0.19999993625E+02 0.  0.
        -12    1    1    2    0    0  0.55505851182E+01  0.30608463001E+02 -0.30264441063E+02  0.43400730354E+02  0.00000000000E+00 0.  1.
         11    1    3    3    0    0  0.43088815779E+01 -0.18670084601E+02  0.11904916698E+02  0.22558048704E+02  0.51100000000E-03 0. -1.
        -11    1    3    3    0    0 -0.10771248238E+01 -0.20058133351E+01  0.82440309647E+01  0.85526330348E+01  0.51100000000E-03 0.  1.
        -12    1    3    3    0    0 -0.87823418724E+01 -0.99325650643E+01  0.10115493400E+02  0.16676587908E+02  0.00000000000E+00 0.  1.
</event>
<event>
 7    1  0.2110035E-010  0.4778727E+02  0.7816164E-02  0.1312668E+00
        -11   -1    0    0    0    0  0.00000000000E+00  0.00000000000E+00  0.45593999997E+02  0.45594000000E+02  0.51100000000E-03 0.  1.
         11   -1    0    0    0    0 -0.00000000000E+00 -0.00000000000E+00 -0.45593999997E+02  0.45594000000E+02  0.51100000000E-03 0. -1.
    9900012    2    1    2    0    0  0.33984377719E+02  0.33399026059E+01 -0.26786760270E+02  0.47787269544E+02  0.19999993158E+02 0.  0.
        -12    1    1    2    0    0 -0.33984377719E+02 -0.33399026059E+01  0.26786760270E+02  0.43400730456E+02  0.00000000000E+00 0.  1.
         11    1    3    3    0    0  0.23142848385E+02 -0.30844755929E+01 -0.18455464327E+02  0.29760873388E+02  0.51100000000E-03 0.  1.
        -11    1    3    3    0    0  0.72275056394E+01 -0.11990670459E+01 -0.53756950686E+01  0.90869520347E+01  0.51100000000E-03 0. -1.
        -12    1    3    3    0    0  0.36140236949E+01  0.76234452446E+01 -0.29556008746E+01  0.89394441212E+01  0.00000000000E+00 0.  1.
</event>
<event>
 7    1  0.2110035E-010  0.4778728E+02  0.7816164E-02  0.1312668E+00
        -11   -1    0    0    0    0  0.00000000000E+00  0.00000000000E+00  0.45593999997E+02  0.45594000000E+02  0.51100000000E-03 0.  1.
         11   -1    0    0    0    0 -0.00000000000E+00 -0.00000000000E+00 -0.45593999997E+02  0.45594000000E+02  0.51100000000E-03 0. -1.
    9900012    2    1    2    0    0  0.19910906288E+02 -0.16679849614E+02 -0.34770109864E+02  0.47787284426E+02  0.20000061014E+02 0.  0.
        -12    1    1    2    0    0 -0.19910906288E+02  0.16679849614E+02  0.34770109864E+02  0.43400715574E+02  0.00000000000E+00 0.  1.
         11    1    3    3    0    0  0.14912770274E+02 -0.12191358618E+02 -0.21051440442E+02  0.28533893656E+02  0.51100000000E-03 0. -1.
        -11    1    3    3    0    0 -0.16955979573E+01 -0.39561091937E+01 -0.11340489884E+02  0.12129821246E+02  0.51100000000E-03 0.  1.
         12    1    3    3    0    0  0.66937339712E+01 -0.53238180159E+00 -0.23781795380E+01  0.71235695248E+01  0.00000000000E+00 0. -1.
</event>
<event>
 7    1  0.2110035E-010  0.4778727E+02  0.7816164E-02  0.1312668E+00
        -11   -1    0    0    0    0  0.00000000000E+00  0.00000000000E+00  0.45593999997E+02  0.45594000000E+02  0.51100000000E-03 0.  1.
         11   -1    0    0    0    0 -0.00000000000E+00 -0.00000000000E+00 -0.45593999997E+02  0.45594000000E+02  0.51100000000E-03 0. -1.
    9900012    2    1    2    0    0 -0.28796286644E+02  0.18922777489E+02 -0.26387985524E+02  0.47787269449E+02  0.19999992726E+02 0.  0.
        -12    1    1    2    0    0  0.28796286644E+02 -0.18922777489E+02  0.26387985524E+02  0.43400730551E+02  0.00000000000E+00 0.  1.
         11    1    3    3    0    0 -0.15130348747E+02  0.55797950704E+01 -0.15032826368E+02  0.22046483509E+02  0.51100000000E-03 0. -1.
        -11    1    3    3    0    0 -0.69378158880E+01  0.25878708554E+01  0.16354977979E+01  0.75832195120E+01  0.51100000000E-03 0.  1.
         12    1    3    3    0    0 -0.67281220084E+01  0.10755111563E+02 -0.12990656954E+02  0.18157566428E+02  0.00000000000E+00 0. -1.
</event>
<event>
 7    1  0.2110035E-010  0.4778725E+02  0.7816164E-02  0.1312668E+00
        -11   -1    0    0    0    0  0.00000000000E+00  0.00000000000E+00  0.45593999997E+02  0.45594000000E+02  0.51100000000E-03 0. -1.
         11   -1    0    0    0    0 -0.00000000000E+00 -0.00000000000E+00 -0.45593999997E+02  0.45594000000E+02  0.51100000000E-03 0.  1.
    9900012    2    1    2    0    0  0.37654486629E+02  0.21380914775E+02 -0.29361266551E+01  0.47787254389E+02  0.19999924059E+02 0.  0.
        -12    1    1    2    0    0 -0.37654486629E+02 -0.21380914775E+02  0.29361266551E+01  0.43400745611E+02  0.00000000000E+00 0.  1.
         11    1    3    3    0    0  0.85247851537E+01  0.40656147185E+00  0.42548126820E+01  0.95362825759E+01  0.51100000000E-03 0. -1.
        -11    1    3    3    0    0  0.14555583693E+01  0.45464723732E+01  0.13369208314E+01  0.49574609204E+01  0.51100000000E-03 0.  1.
         12    1    3    3    0    0  0.27674143106E+02  0.16427880930E+02 -0.85278601685E+01  0.33293510892E+02  0.00000000000E+00 0. -1.
</event>
<event>
 7    1  0.2110035E-010  0.4778727E+02  0.7816164E-02  0.1312668E+00
        -11   -1    0    0    0    0  0.00000000000E+00  0.00000000000E+00  0.45593999997E+02  0.45594000000E+02  0.51100000000E-03 0.  1.
         11   -1    0    0    0    0 -0.00000000000E+00 -0.00000000000E+00 -0.45593999997E+02  0.45594000000E+02  0.51100000000E-03 0. -1.
    9900012    2    1    2    0    0  0.10464210813E+01  0.31106436836E+02 -0.30247612641E+02  0.47787268668E+02  0.19999989164E+02 0.  0.
        -12    1    1    2    0    0 -0.10464210813E+01 -0.31106436836E+02  0.30247612641E+02  0.43400731332E+02  0.00000000000E+00 0.  1.
         11    1    3    3    0    0  0.11409273081E+01  0.19350745150E+01  0.16152246449E+01  0.27667994895E+01  0.51100000000E-03 0. -1.
        -11    1    3    3    0    0  0.44994465949E+01  0.22272986686E+02 -0.18525250355E+02  0.29317500858E+02  0.51100000000E-03 0.  1.
        -12    1    3    3    0    0 -0.45939528217E+01  0.68983756343E+01 -0.13337586931E+02  0.15702968320E+02  0.00000000000E+00 0.  1.
</event>
<event>
 7    1  0.2110035E-010  0.4778727E+02  0.7816164E-02  0.1312668E+00
        -11   -1    0    0    0    0  0.00000000000E+00  0.00000000000E+00  0.45593999997E+02  0.45594000000E+02  0.51100000000E-03 0. -1.
         11   -1    0    0    0    0 -0.00000000000E+00 -0.00000000000E+00 -0.45593999997E+02  0.45594000000E+02  0.51100000000E-03 0.  1.
    9900012    2    1    2    0    0  0.13980884821E+01  0.42953915636E+02  0.60522452452E+01  0.47787271984E+02  0.20000004282E+02 0.  0.
        -12    1    1    2    0    0 -0.13980884821E+01 -0.42953915636E+02 -0.60522452452E+01  0.43400728016E+02  0.00000000000E+00 0.  1.
         11    1    3    3    0    0  0.18096237947E+01  0.38034581626E+02  0.18965136534E+01  0.38124806912E+02  0.51100000000E-03 0. -1.
        -11    1    3    3    0    0  0.17928484863E+01  0.68515993329E+00 -0.13716607543E+01  0.23590683150E+01  0.51100000000E-03 0.  1.
         12    1    3    3    0    0 -0.22043837989E+01  0.42341740763E+01  0.55273923462E+01  0.73033967569E+01  0.00000000000E+00 0. -1.
</event>
<event>
 7    1  0.2110035E-010  0.4778727E+02  0.7816164E-02  0.1312668E+00
        -11   -1    0    0    0    0  0.00000000000E+00  0.00000000000E+00  0.45593999997E+02  0.45594000000E+02  0.51100000000E-03 0. -1.
         11   -1    0    0    0    0 -0.00000000000E+00 -0.00000000000E+00 -0.45593999997E+02  0.45594000000E+02  0.51100000000E-03 0.  1.
    9900012    2    1    2    0    0 -0.20965407024E+01  0.39486335629E+02  0.17890134003E+02  0.47787273290E+02  0.20000010236E+02 0.  0.
        -12    1    1    2    0    0  0.20965407024E+01 -0.39486335629E+02 -0.17890134003E+02  0.43400726710E+02  0.00000000000E+00 0.  1.
         11    1    3    3    0    0  0.41698329410E+00  0.23153333318E+02  0.60123745345E+01  0.23924869207E+02  0.51100000000E-03 0. -1.
        -11    1    3    3    0    0  0.36382999237E+01  0.46662994303E+00  0.18149291595E+01  0.40925466342E+01  0.51100000000E-03 0.  1.
         12    1    3    3    0    0 -0.61518239202E+01  0.15866372369E+02  0.10062830309E+02  0.19769857448E+02  0.00000000000E+00 0. -1.
</event>
<event>
 7    1  0.2110035E-010  0.4778727E+02  0.7816164E-02  0.1312668E+00
        -11   -1    0    0    0    0  0.00000000000E+00  0.00000000000E+00  0.45593999997E+02  0.45594000000E+02  0.51100000000E-03 0.  1.
         11   -1    0    0    0    0 -0.00000000000E+00 -0.00000000000E+00 -0.45593999997E+02  0.45594000000E+02  0.51100000000E-03 0. -1.
    9900012    2    1    2    0    0  0.75158022171E+01  0.29301758256E+02 -0.31121424060E+02  0.47787270105E+02  0.19999995719E+02 0.  0.
        -12    1    1    2    0    0 -0.75158022171E+01 -0.29301758256E+02  0.31121424060E+02  0.43400729895E+02  0.00000000000E+00 0.  1.
         11    1    3    3    0    0 -0.59969873604E+00  0.96729359692E+01 -0.37122281978E+01  0.10378148548E+02  0.51100000000E-03 0. -1.
        -11    1    3    3    0    0  0.71830907513E+01  0.18935055073E+02 -0.29041471177E+02  0.35405368968E+02  0.51100000000E-03 0.  1.
        -12    1    3    3    0    0  0.93241020186E+00  0.69376721431E+00  0.16322753156E+01  0.20037525890E+01  0.00000000000E+00 0.  1.
</event>
<event>
 7    1  0.2110035E-010  0.4778727E+02  0.7816164E-02  0.1312668E+00
        -11   -1    0    0    0    0  0.00000000000E+00  0.00000000000E+00  0.45593999997E+02  0.45594000000E+02  0.51100000000E-03 0.  1.
         11   -1    0    0    0    0 -0.00000000000E+00 -0.00000000000E+00 -0.45593999997E+02  0.45594000000E+02  0.51100000000E-03 0. -1.
    9900012    2    1    2    0    0  0.43014488735E+02 -0.30625617324E+01  0.48987482490E+01  0.47787271205E+02  0.20000000733E+02 0.  0.
        -12    1    1    2    0    0 -0.43014488735E+02  0.30625617324E+01 -0.48987482490E+01  0.43400728795E+02  0.00000000000E+00 0.  1.
         11    1    3    3    0    0  0.19281471258E+02 -0.53545160267E+00 -0.89858402439E+00  0.19309823816E+02  0.51100000000E-03 0. -1.
        -11    1    3    3    0    0  0.17738789736E+02 -0.22350386932E+01 -0.26925118535E+01  0.18080643783E+02  0.51100000000E-03 0.  1.
        -12    1    3    3    0    0  0.59942277416E+01 -0.29207143653E+00  0.84898441269E+01  0.10396803607E+02  0.00000000000E+00 0.  1.
</event>
<event>
 7    1  0.2110035E-010  0.4778727E+02  0.7816164E-02  0.1312668E+00
        -11   -1    0    0    0    0  0.00000000000E+00  0.00000000000E+00  0.45593999997E+02  0.45594000000E+02  0.51100000000E-03 0.  1.
         11   -1    0    0    0    0 -0.00000000000E+00 -0.00000000000E+00 -0.45593999997E+02  0.45594000000E+02  0.51100000000E-03 0. -1.
    9900012    2    1    2    0    0 -0.52657524850E+01  0.53384471444E+01 -0.42748054829E+02  0.47787270066E+02  0.19999995539E+02 0.  0.
        -12    1    1    2    0    0  0.52657524850E+01 -0.53384471444E+01  0.42748054829E+02  0.43400729934E+02  0.00000000000E+00 0.  1.
         11    1    3    3    0    0  0.31923976857E+01 -0.17678040746E+01 -0.71289944492E+01  0.80086888033E+01  0.51100000000E-03 0. -1.
        -11    1    3    3    0    0  0.14076360941E+01  0.54637748126E+01 -0.49018498695E+01  0.74741157992E+01  0.51100000000E-03 0.  1.
         12    1    3    3    0    0 -0.98657862647E+01  0.16424764064E+01 -0.30717210510E+02  0.32304465464E+02  0.00000000000E+00 0. -1.
</event>
<event>
 7    1  0.2110035E-010  0.4778727E+02  0.7816164E-02  0.1312668E+00
        -11   -1    0    0    0    0  0.00000000000E+00  0.00000000000E+00  0.45593999997E+02  0.45594000000E+02  0.51100000000E-03 0.  1.
         11   -1    0    0    0    0 -0.00000000000E+00 -0.00000000000E+00 -0.45593999997E+02  0.45594000000E+02  0.51100000000E-03 0. -1.
    9900012    2    1    2    0    0  0.24185057086E+01  0.31396353197E+02 -0.29867086404E+02  0.47787274036E+02  0.20000013638E+02 0.  0.
        -12    1    1    2    0    0 -0.24185057086E+01 -0.31396353197E+02  0.29867086404E+02  0.43400725964E+02  0.00000000000E+00 0.  1.
         11    1    3    3    0    0  0.56021399191E+01  0.10053711037E+02 -0.14677146401E+02  0.18651533557E+02  0.51100000000E-03 0. -1.
        -11    1    3    3    0    0  0.37983094075E+01  0.62474246112E+01 -0.12140066159E+01  0.74115640017E+01  0.51100000000E-03 0.  1.
        -12    1    3    3    0    0 -0.69819436180E+01  0.15095217550E+02 -0.13975933387E+02  0.21724176477E+02  0.00000000000E+00 0.  1.
</event>
<event>
 7    1  0.2110035E-010  0.4778728E+02  0.7816164E-02  0.1312668E+00
        -11   -1    0    0    0    0  0.00000000000E+00  0.00000000000E+00  0.45593999997E+02  0.45594000000E+02  0.51100000000E-03 0.  1.
         11   -1    0    0    0    0 -0.00000000000E+00 -0.00000000000E+00 -0.45593999997E+02  0.45594000000E+02  0.51100000000E-03 0. -1.
    9900012    2    1    2    0    0 -0.32574365667E+02 -0.18332822522E+02 -0.22055406415E+02  0.47787278435E+02  0.20000033697E+02 0.  0.
        -12    1    1    2    0    0  0.32574365667E+02  0.18332822522E+02  0.22055406415E+02  0.43400721565E+02  0.00000000000E+00 0.  1.
         11    1    3    3    0    0 -0.87752797414E+01 -0.99422368653E+01 -0.48353887943E+01  0.14115048476E+02  0.51100000000E-03 0. -1.
        -11    1    3    3    0    0 -0.26868729272E+00 -0.51789809386E+01 -0.32166307344E+01  0.61025199685E+01  0.51100000000E-03 0.  1.
        -12    1    3    3    0    0 -0.23530398633E+02 -0.32116047177E+01 -0.14003386886E+02  0.27569709991E+02  0.00000000000E+00 0.  1.
</event>
<event>
 7    1  0.2110035E-010  0.4778727E+02  0.7816164E-02  0.1312668E+00
        -11   -1    0    0    0    0  0.00000000000E+00  0.00000000000E+00  0.45593999997E+02  0.45594000000E+02  0.51100000000E-03 0.  1.
         11   -1    0    0    0    0 -0.00000000000E+00 -0.00000000000E+00 -0.45593999997E+02  0.45594000000E+02  0.51100000000E-03 0. -1.
    9900012    2    1    2    0    0 -0.10730987212E+02 -0.23791854568E+00 -0.42052497784E+02  0.47787271185E+02  0.20000000643E+02 0.  0.
        -12    1    1    2    0    0  0.10730987212E+02  0.23791854568E+00  0.42052497784E+02  0.43400728815E+02  0.00000000000E+00 0.  1.
         11    1    3    3    0    0 -0.87511138229E+01 -0.64030347781E+01 -0.13449656220E+02  0.17276402988E+02  0.51100000000E-03 0. -1.
        -11    1    3    3    0    0  0.18663503003E+01  0.18635697800E+01 -0.20560291832E+01  0.33441608861E+01  0.51100000000E-03 0.  1.
         12    1    3    3    0    0 -0.38462236890E+01  0.43015464523E+01 -0.26546812381E+02  0.27166707311E+02  0.00000000000E+00 0. -1.
</event>
<event>
 7    1  0.2110035E-010  0.4778728E+02  0.7816164E-02  0.1312668E+00
        -11   -1    0    0    0    0  0.00000000000E+00  0.00000000000E+00  0.45593999997E+02  0.45594000000E+02  0.51100000000E-03 0.  1.
         11   -1    0    0    0    0 -0.00000000000E+00 -0.00000000000E+00 -0.45593999997E+02  0.45594000000E+02  0.51100000000E-03 0. -1.
    9900012    2    1    2    0    0  0.20928218743E+01  0.13143703089E+02 -0.41309634887E+02  0.47787276863E+02  0.20000026531E+02 0.  0.
        -12    1    1    2    0    0 -0.20928218743E+01 -0.13143703089E+02  0.41309634887E+02  0.43400723137E+02  0.00000000000E+00 0.  1.
         11    1    3    3    0    0  0.17393001410E+01  0.11667033875E+02 -0.16558967838E+02  0.20330869646E+02  0.51100000000E-03 0. -1.
        -11    1    3    3    0    0  0.36098650106E+01  0.37440948759E+01 -0.46777366068E+01  0.69950405187E+01  0.51100000000E-03 0.  1.
        -12    1    3    3    0    0 -0.32563432773E+01 -0.22674256615E+01 -0.20072930442E+02  0.20461366699E+02  0.00000000000E+00 0.  1.
</event>
<event>
 7    1  0.2110035E-010  0.4778722E+02  0.7816164E-02  0.1312668E+00
        -11   -1    0    0    0    0  0.00000000000E+00  0.00000000000E+00  0.45593999997E+02  0.45594000000E+02  0.51100000000E-03 0.  1.
         11   -1    0    0    0    0 -0.00000000000E+00 -0.00000000000E+00 -0.45593999997E+02  0.45594000000E+02  0.51100000000E-03 0. -1.
    9900012    2    1    2    0    0  0.28883804783E+02  0.32257831814E+02 -0.29641107429E+01  0.47787218387E+02  0.19999759914E+02 0.  0.
        -12    1    1    2    0    0 -0.28883804783E+02 -0.32257831814E+02  0.29641107429E+01  0.43400781613E+02  0.00000000000E+00 0.  1.
         11    1    3    3    0    0  0.38178178324E+01  0.10185447908E+02  0.10536552659E+01  0.10928370042E+02  0.51100000000E-03 0. -1.
        -11    1    3    3    0    0  0.77150679400E+01 -0.91988509435E+00  0.40882866520E-01  0.77698219784E+01  0.51100000000E-03 0.  1.
        -12    1    3    3    0    0  0.17350919011E+02  0.22992269000E+02 -0.40586488753E+01  0.29089026367E+02  0.00000000000E+00 0.  1.
</event>
<event>
 7    1  0.2110035E-010  0.4778727E+02  0.7816164E-02  0.1312668E+00
        -11   -1    0    0    0    0  0.00000000000E+00  0.00000000000E+00  0.45593999997E+02  0.45594000000E+02  0.51100000000E-03 0.  1.
         11   -1    0    0    0    0 -0.00000000000E+00 -0.00000000000E+00 -0.45593999997E+02  0.45594000000E+02  0.51100000000E-03 0. -1.
    9900012    2    1    2    0    0  0.24344748904E+02  0.10039156304E+02 -0.34498866653E+02  0.47787271218E+02  0.20000000790E+02 0.  0.
        -12    1    1    2    0    0 -0.24344748904E+02 -0.10039156304E+02  0.34498866653E+02  0.43400728782E+02  0.00000000000E+00 0.  1.
         11    1    3    3    0    0  0.92242293078E+01  0.75510098533E+01 -0.45760942012E+01  0.12768899503E+02  0.51100000000E-03 0. -1.
        -11    1    3    3    0    0 -0.74593713189E+00 -0.18052665808E-01 -0.69315401424E+01  0.69715849784E+01  0.51100000000E-03 0.  1.
         12    1    3    3    0    0  0.15866456728E+02  0.25061991170E+01 -0.22991232309E+02  0.28046786736E+02  0.00000000000E+00 0. -1.
</event>
<event>
 7    1  0.2110035E-010  0.4778727E+02  0.7816164E-02  0.1312668E+00
        -11   -1    0    0    0    0  0.00000000000E+00  0.00000000000E+00  0.45593999997E+02  0.45594000000E+02  0.51100000000E-03 0.  1.
         11   -1    0    0    0    0 -0.00000000000E+00 -0.00000000000E+00 -0.45593999997E+02  0.45594000000E+02  0.51100000000E-03 0. -1.
    9900012    2    1    2    0    0  0.26634734253E+02 -0.20316818461E+02  0.27594223956E+02  0.47787269858E+02  0.19999994588E+02 0.  0.
        -12    1    1    2    0    0 -0.26634734253E+02  0.20316818461E+02 -0.27594223956E+02  0.43400730142E+02  0.00000000000E+00 0.  1.
         11    1    3    3    0    0  0.12615047213E+02 -0.12137746006E+02  0.11061717862E+02  0.20708111856E+02  0.51100000000E-03 0. -1.
        -11    1    3    3    0    0 -0.25917844322E+01 -0.10576783825E+01  0.47201610187E+01  0.54878001428E+01  0.51100000000E-03 0.  1.
         12    1    3    3    0    0  0.16611471472E+02 -0.71213940726E+01  0.11812345076E+02  0.21591357859E+02  0.00000000000E+00 0. -1.
</event>
<event>
 7    1  0.2110035E-010  0.4778727E+02  0.7816164E-02  0.1312668E+00
        -11   -1    0    0    0    0  0.00000000000E+00  0.00000000000E+00  0.45593999997E+02  0.45594000000E+02  0.51100000000E-03 0.  1.
         11   -1    0    0    0    0 -0.00000000000E+00 -0.00000000000E+00 -0.45593999997E+02  0.45594000000E+02  0.51100000000E-03 0. -1.
    9900012    2    1    2    0    0 -0.24408772376E+01  0.47748882513E+01 -0.43068153424E+02  0.47787270987E+02  0.19999999740E+02 0.  0.
        -12    1    1    2    0    0  0.24408772376E+01 -0.47748882513E+01  0.43068153424E+02  0.43400729013E+02  0.00000000000E+00 0.  1.
         11    1    3    3    0    0  0.42440316905E+00 -0.24203974671E+01 -0.77689860759E+01  0.81483487197E+01  0.51100000000E-03 0. -1.
        -11    1    3    3    0    0  0.45511481980E+01  0.20400731552E+01 -0.26720810688E+02  0.27182284166E+02  0.51100000000E-03 0.  1.
         12    1    3    3    0    0 -0.74164286046E+01  0.51552125632E+01 -0.85783566602E+01  0.12456638102E+02  0.00000000000E+00 0. -1.
</event>
<event>
 7    1  0.2110035E-010  0.4778727E+02  0.7816164E-02  0.1312668E+00
        -11   -1    0    0    0    0  0.00000000000E+00  0.00000000000E+00  0.45593999997E+02  0.45594000000E+02  0.51100000000E-03 0.  1.
         11   -1    0    0    0    0 -0.00000000000E+00 -0.00000000000E+00 -0.45593999997E+02  0.45594000000E+02  0.51100000000E-03 0. -1.
    9900012    2    1    2    0    0  0.28113115898E+01 -0.21023992623E+02 -0.37864385653E+02  0.47787269136E+02  0.19999991299E+02 0.  0.
        -12    1    1    2    0    0 -0.28113115898E+01  0.21023992623E+02  0.37864385653E+02  0.43400730864E+02  0.00000000000E+00 0.  1.
         11    1    3    3    0    0 -0.32287963177E+01 -0.53282346041E+01 -0.17096286653E+02  0.18196104727E+02  0.51100000000E-03 0. -1.
        -11    1    3    3    0    0 -0.10816955633E+01 -0.94673092616E+01 -0.39925017147E+01  0.10331509094E+02  0.51100000000E-03 0.  1.
         12    1    3    3    0    0  0.71218034709E+01 -0.62284487570E+01 -0.16775597285E+02  0.19259655315E+02  0.00000000000E+00 0. -1.
</event>
<event>
 7    1  0.3375561E-010  0.4778726E+02  0.7816164E-02  0.1312668E+00
        -11   -1    0    0    0    0  0.00000000000E+00  0.00000000000E+00  0.45593999997E+02  0.45594000000E+02  0.51100000000E-03 0. -1.
         11   -1    0    0    0    0 -0.00000000000E+00 -0.00000000000E+00 -0.45593999997E+02  0.45594000000E+02  0.51100000000E-03 0.  1.
    9900012    2    1    2    0    0 -0.12753077528E+02  0.91641981294E+01  0.40459863590E+02  0.47787261809E+02  0.19999957893E+02 0.  0.
        -12    1    1    2    0    0  0.12753077528E+02 -0.91641981294E+01 -0.40459863590E+02  0.43400738191E+02  0.00000000000E+00 0.  1.
         11    1    3    3    0    0 -0.11158089921E+02  0.59548563117E+01  0.29549013522E+02  0.32141989434E+02  0.51100000000E-03 0. -1.
        -11    1    3    3    0    0  0.23485994635E+01  0.63650293496E-01  0.10299220004E+02  0.10563801577E+02  0.51100000000E-03 0.  1.
        -12    1    3    3    0    0 -0.39435870699E+01  0.31456915243E+01  0.61163006417E+00  0.50814707988E+01  0.00000000000E+00 0.  1.
</event>
<event>
 7    1  0.2110035E-010  0.4778727E+02  0.7816164E-02  0.1312668E+00
        -11   -1    0    0    0    0  0.00000000000E+00  0.00000000000E+00  0.45593999997E+02  0.45594000000E+02  0.51100000000E-03 0.  1.
         11   -1    0    0    0    0 -0.00000000000E+00 -0.00000000000E+00 -0.45593999997E+02  0.45594000000E+02  0.51100000000E-03 0. -1.
    9900012    2    1    2    0    0  0.18533714795E+01  0.37169427106E+02 -0.22329840956E+02  0.47787273112E+02  0.20000009429E+02 0.  0.
        -12    1    1    2    0    0 -0.18533714795E+01 -0.37169427106E+02  0.22329840956E+02  0.43400726888E+02  0.00000000000E+00 0.  1.
         11    1    3    3    0    0  0.42535297560E+01  0.69190405701E+01 -0.71447414071E+01  0.10817253248E+02  0.51100000000E-03 0.  1.
        -11    1    3    3    0    0  0.49542483185E+01  0.40588572319E+01 -0.40318440961E+01  0.75680027423E+01  0.51100000000E-03 0. -1.
         12    1    3    3    0    0 -0.73544065950E+01  0.26191529304E+02 -0.11153255453E+02  0.29402017122E+02  0.00000000000E+00 0. -1.
</event>
<event>
 7    1  0.2110035E-010  0.4778728E+02  0.7816164E-02  0.1312668E+00
        -11   -1    0    0    0    0  0.00000000000E+00  0.00000000000E+00  0.45593999997E+02  0.45594000000E+02  0.51100000000E-03 0.  1.
         11   -1    0    0    0    0 -0.00000000000E+00 -0.00000000000E+00 -0.45593999997E+02  0.45594000000E+02  0.51100000000E-03 0. -1.
    9900012    2    1    2    0    0  0.86441057689E+01  0.14141538546E+01 -0.42507673896E+02  0.47787277244E+02  0.20000028268E+02 0.  0.
        -12    1    1    2    0    0 -0.86441057689E+01 -0.14141538546E+01  0.42507673896E+02  0.43400722756E+02  0.00000000000E+00 0.  1.
         11    1    3    3    0    0  0.21172601388E+01 -0.44058670219E+01 -0.12682158521E+02  0.13591600337E+02  0.51100000000E-03 0. -1.
        -11    1    3    3    0    0  0.53149221180E+01 -0.41017438184E+01 -0.11221273621E+02  0.13076302283E+02  0.51100000000E-03 0.  1.
        -12    1    3    3    0    0  0.12119235121E+01  0.99217646949E+01 -0.18604241755E+02  0.21119374624E+02  0.00000000000E+00 0.  1.
</event>
<event>
 7    1  0.2110035E-010  0.4778725E+02  0.7816164E-02  0.1312668E+00
        -11   -1    0    0    0    0  0.00000000000E+00  0.00000000000E+00  0.45593999997E+02  0.45594000000E+02  0.51100000000E-03 0.  1.
         11   -1    0    0    0    0 -0.00000000000E+00 -0.00000000000E+00 -0.45593999997E+02  0.45594000000E+02  0.51100000000E-03 0. -1.
    9900012    2    1    2    0    0  0.22360138823E+02  0.79880809000E+01 -0.36329601017E+02  0.47787249376E+02  0.19999901207E+02 0.  0.
        -12    1    1    2    0    0 -0.22360138823E+02 -0.79880809000E+01  0.36329601017E+02  0.43400750624E+02  0.00000000000E+00 0.  1.
         11    1    3    3    0    0  0.47590736675E+01  0.91981597923E+01 -0.83986033847E+01  0.13333846587E+02  0.51100000000E-03 0. -1.
        -11    1    3    3    0    0  0.64702279062E+00 -0.46410162315E-01  0.82609667411E+00  0.10503467860E+01  0.51100000000E-03 0.  1.
        -12    1    3    3    0    0  0.16954042365E+02 -0.11636687300E+01 -0.28757094306E+02  0.33403056003E+02  0.00000000000E+00 0.  1.
</event>
<event>
 7    1  0.2110035E-010  0.4778729E+02  0.7816164E-02  0.1312668E+00
        -11   -1    0    0    0    0  0.00000000000E+00  0.00000000000E+00  0.45593999997E+02  0.45594000000E+02  0.51100000000E-03 0.  1.
         11   -1    0    0    0    0 -0.00000000000E+00 -0.00000000000E+00 -0.45593999997E+02  0.45594000000E+02  0.51100000000E-03 0. -1.
    9900012    2    1    2    0    0 -0.43042656567E+02 -0.46128951533E+01  0.31101214843E+01  0.47787286392E+02  0.20000069974E+02 0.  0.
        -12    1    1    2    0    0  0.43042656567E+02  0.46128951533E+01 -0.31101214843E+01  0.43400713608E+02  0.00000000000E+00 0.  1.
         11    1    3    3    0    0 -0.17178208533E+02  0.54989846218E+01 -0.44583453354E+01  0.18579734219E+02  0.51100000000E-03 0. -1.
        -11    1    3    3    0    0 -0.17244938239E+01  0.27111500154E+00  0.13416383426E+01  0.22016757246E+01  0.51100000000E-03 0.  1.
        -12    1    3    3    0    0 -0.24139954211E+02 -0.10382994777E+02  0.62268284771E+01  0.27005876448E+02  0.00000000000E+00 0.  1.
</event>
<event>
 7    1  0.2110035E-010  0.4778727E+02  0.7816164E-02  0.1312668E+00
        -11   -1    0    0    0    0  0.00000000000E+00  0.00000000000E+00  0.45593999997E+02  0.45594000000E+02  0.51100000000E-03 0.  1.
         11   -1    0    0    0    0 -0.00000000000E+00 -0.00000000000E+00 -0.45593999997E+02  0.45594000000E+02  0.51100000000E-03 0. -1.
    9900012    2    1    2    0    0  0.37937529144E+02 -0.19084128682E+02 -0.89534031378E+01  0.47787268292E+02  0.19999987449E+02 0.  0.
        -12    1    1    2    0    0 -0.37937529144E+02  0.19084128682E+02  0.89534031378E+01  0.43400731708E+02  0.00000000000E+00 0.  1.
         11    1    3    3    0    0  0.22247323710E+02 -0.17500951002E+02 -0.77068267636E+01  0.29336357600E+02  0.51100000000E-03 0. -1.
        -11    1    3    3    0    0  0.14415209351E+02 -0.11774096080E+01 -0.43235462077E+01  0.15095615459E+02  0.51100000000E-03 0.  1.
        -12    1    3    3    0    0  0.12749960827E+01 -0.40576807205E+00  0.30769698335E+01  0.33552952323E+01  0.00000000000E+00 0.  1.
</event>
<event>
 7    1  0.2110035E-010  0.4778727E+02  0.7816164E-02  0.1312668E+00
        -11   -1    0    0    0    0  0.00000000000E+00  0.00000000000E+00  0.45593999997E+02  0.45594000000E+02  0.51100000000E-03 0.  1.
         11   -1    0    0    0    0 -0.00000000000E+00 -0.00000000000E+00 -0.45593999997E+02  0.45594000000E+02  0.51100000000E-03 0. -1.
    9900012    2    1    2    0    0  0.35533433787E+02  0.14152797268E+02 -0.20510887368E+02  0.47787273188E+02  0.20000009772E+02 0.  0.
        -12    1    1    2    0    0 -0.35533433787E+02 -0.14152797268E+02  0.20510887368E+02  0.43400726812E+02  0.00000000000E+00 0.  1.
         11    1    3    3    0    0  0.19903628055E+02  0.82554384771E+01 -0.14535747555E+02  0.25992203282E+02  0.51100000000E-03 0. -1.
        -11    1    3    3    0    0  0.15128785769E+02  0.90674043489E+01 -0.42146485571E+01  0.18134531789E+02  0.51100000000E-03 0.  1.
        -12    1    3    3    0    0  0.50101996227E+00 -0.31700455577E+01 -0.17604912560E+01  0.36605381166E+01  0.00000000000E+00 0.  1.
</event>
<event>
 7    1  0.2110035E-010  0.4778727E+02  0.7816164E-02  0.1312668E+00
        -11   -1    0    0    0    0  0.00000000000E+00  0.00000000000E+00  0.45593999997E+02  0.45594000000E+02  0.51100000000E-03 0.  1.
         11   -1    0    0    0    0 -0.00000000000E+00 -0.00000000000E+00 -0.45593999997E+02  0.45594000000E+02  0.51100000000E-03 0. -1.
    9900012    2    1    2    0    0 -0.32718314731E+02  0.21465805613E+02 -0.18771101209E+02  0.47787272240E+02  0.20000005451E+02 0.  0.
        -12    1    1    2    0    0  0.32718314731E+02 -0.21465805613E+02  0.18771101209E+02  0.43400727760E+02  0.00000000000E+00 0.  1.
         11    1    3    3    0    0 -0.25282771706E+02  0.82117900839E+01 -0.15953863680E+02  0.31002867740E+02  0.51100000000E-03 0. -1.
        -11    1    3    3    0    0  0.12294696438E+01  0.15130489899E+01 -0.20674262589E+00  0.19605243241E+01  0.51100000000E-03 0.  1.
        -12    1    3    3    0    0 -0.86650126690E+01  0.11740966540E+02 -0.26104949040E+01  0.14823880176E+02  0.00000000000E+00 0.  1.
</event>
<event>
 7    1  0.2110035E-010  0.4778727E+02  0.7816164E-02  0.1312668E+00
        -11   -1    0    0    0    0  0.00000000000E+00  0.00000000000E+00  0.45593999997E+02  0.45594000000E+02  0.51100000000E-03 0.  1.
         11   -1    0    0    0    0 -0.00000000000E+00 -0.00000000000E+00 -0.45593999997E+02  0.45594000000E+02  0.51100000000E-03 0. -1.
    9900012    2    1    2    0    0 -0.68562467108E+01  0.30083122295E+02 -0.30522466346E+02  0.47787270538E+02  0.19999997692E+02 0.  0.
        -12    1    1    2    0    0  0.68562467108E+01 -0.30083122295E+02  0.30522466346E+02  0.43400729462E+02  0.00000000000E+00 0.  1.
         11    1    3    3    0    0 -0.29380374607E+01  0.11696659024E+02 -0.87206024998E+01  0.14882634332E+02  0.51100000000E-03 0. -1.
        -11    1    3    3    0    0 -0.22719700062E+01 -0.25856230160E+01 -0.45092553185E+01  0.56728015899E+01  0.51100000000E-03 0.  1.
        -12    1    3    3    0    0 -0.16462392439E+01  0.20972086287E+02 -0.17292608527E+02  0.27231834616E+02  0.00000000000E+00 0.  1.
</event>
<event>
 7    1  0.2110035E-010  0.4778726E+02  0.7816164E-02  0.1312668E+00
        -11   -1    0    0    0    0  0.00000000000E+00  0.00000000000E+00  0.45593999997E+02  0.45594000000E+02  0.51100000000E-03 0.  1.
         11   -1    0    0    0    0 -0.00000000000E+00 -0.00000000000E+00 -0.45593999997E+02  0.45594000000E+02  0.51100000000E-03 0. -1.
    9900012    2    1    2    0    0 -0.42921720613E+02 -0.55450987141E+01 -0.32560851935E+01  0.47787259097E+02  0.19999945525E+02 0.  0.
        -12    1    1    2    0    0  0.42921720613E+02  0.55450987141E+01  0.32560851935E+01  0.43400740903E+02  0.00000000000E+00 0.  1.
         11    1    3    3    0    0 -0.57653554030E+01 -0.37013465837E+01 -0.23157818732E+01  0.72320215293E+01  0.51100000000E-03 0. -1.
        -11    1    3    3    0    0 -0.19613834744E+02  0.60440676473E+01  0.34867617822E+01  0.20818039655E+02  0.51100000000E-03 0.  1.
        -12    1    3    3    0    0 -0.17542530467E+02 -0.78878197777E+01 -0.44270651025E+01  0.19737197912E+02  0.00000000000E+00 0.  1.
</event>
<event>
 7    1  0.2110035E-010  0.4778727E+02  0.7816164E-02  0.1312668E+00
        -11   -1    0    0    0    0  0.00000000000E+00  0.00000000000E+00  0.45593999997E+02  0.45594000000E+02  0.51100000000E-03 0.  1.
         11   -1    0    0    0    0 -0.00000000000E+00 -0.00000000000E+00 -0.45593999997E+02  0.45594000000E+02  0.51100000000E-03 0. -1.
    9900012    2    1    2    0    0  0.31313612449E+02 -0.82190516207E+01 -0.28905500346E+02  0.47787273227E+02  0.20000009951E+02 0.  0.
        -12    1    1    2    0    0 -0.31313612449E+02  0.82190516207E+01  0.28905500346E+02  0.43400726773E+02  0.00000000000E+00 0.  1.
         11    1    3    3    0    0  0.11427018376E+02  0.13005088565E+01 -0.86695619201E+01  0.14402408701E+02  0.51100000000E-03 0. -1.
        -11    1    3    3    0    0  0.16607071572E+02 -0.50725157613E+01 -0.64343214677E+01  0.18518254112E+02  0.51100000000E-03 0.  1.
        -12    1    3    3    0    0  0.32795225015E+01 -0.44470447159E+01 -0.13801616958E+02  0.14866610414E+02  0.00000000000E+00 0.  1.
</event>
<event>
 7    1  0.2110035E-010  0.4778723E+02  0.7816164E-02  0.1312668E+00
        -11   -1    0    0    0    0  0.00000000000E+00  0.00000000000E+00  0.45593999997E+02  0.45594000000E+02  0.51100000000E-03 0.  1.
         11   -1    0    0    0    0 -0.00000000000E+00 -0.00000000000E+00 -0.45593999997E+02  0.45594000000E+02  0.51100000000E-03 0. -1.
    9900012    2    1    2    0    0  0.26327528157E+02 -0.16257444667E+02 -0.30433257783E+02  0.47787234739E+02  0.19999834468E+02 0.  0.
        -12    1    1    2    0    0 -0.26327528157E+02  0.16257444667E+02  0.30433257783E+02  0.43400765261E+02  0.00000000000E+00 0.  1.
         11    1    3    3    0    0  0.75525602543E+01 -0.72153115639E+01 -0.16228552161E+02  0.19299424677E+02  0.51100000000E-03 0. -1.
        -11    1    3    3    0    0  0.19875056718E+02 -0.53278201637E+01 -0.13327827099E+02  0.24516005439E+02  0.51100000000E-03 0.  1.
        -12    1    3    3    0    0 -0.11000888157E+01 -0.37143129396E+01 -0.87687852281E+00  0.39718046225E+01  0.00000000000E+00 0.  1.
</event>
<event>
 7    1  0.2110035E-010  0.4778726E+02  0.7816164E-02  0.1312668E+00
        -11   -1    0    0    0    0  0.00000000000E+00  0.00000000000E+00  0.45593999997E+02  0.45594000000E+02  0.51100000000E-03 0.  1.
         11   -1    0    0    0    0 -0.00000000000E+00 -0.00000000000E+00 -0.45593999997E+02  0.45594000000E+02  0.51100000000E-03 0. -1.
    9900012    2    1    2    0    0 -0.12195824731E+02 -0.14128771088E+02 -0.39182441463E+02  0.47787262307E+02  0.19999960163E+02 0.  0.
        -12    1    1    2    0    0  0.12195824731E+02  0.14128771088E+02  0.39182441463E+02  0.43400737693E+02  0.00000000000E+00 0.  1.
         11    1    3    3    0    0 -0.57588759882E+01 -0.86210947969E+01 -0.15594736276E+02  0.18726551415E+02  0.51100000000E-03 0. -1.
        -11    1    3    3    0    0 -0.19229467101E+01 -0.12504876910E+01  0.18063170922E+01  0.29196275814E+01  0.51100000000E-03 0.  1.
        -12    1    3    3    0    0 -0.45140020329E+01 -0.42571885997E+01 -0.25394022279E+02  0.26141083310E+02  0.00000000000E+00 0.  1.
</event>
<event>
 7    1  0.2110035E-010  0.4778727E+02  0.7816164E-02  0.1312668E+00
        -11   -1    0    0    0    0  0.00000000000E+00  0.00000000000E+00  0.45593999997E+02  0.45594000000E+02  0.51100000000E-03 0.  1.
         11   -1    0    0    0    0 -0.00000000000E+00 -0.00000000000E+00 -0.45593999997E+02  0.45594000000E+02  0.51100000000E-03 0. -1.
    9900012    2    1    2    0    0 -0.40804122772E+02  0.51819110184E+01 -0.13848994358E+02  0.47787270954E+02  0.19999999586E+02 0.  0.
        -12    1    1    2    0    0  0.40804122772E+02 -0.51819110184E+01  0.13848994358E+02  0.43400729046E+02  0.00000000000E+00 0.  1.
         11    1    3    3    0    0 -0.84293550515E-01 -0.13184209095E+00 -0.24794659207E+01  0.24843991734E+01  0.51100000000E-03 0. -1.
        -11    1    3    3    0    0 -0.40375587019E+02  0.69983324853E+01 -0.83374209152E+01  0.41817188721E+02  0.51100000000E-03 0.  1.
        -12    1    3    3    0    0 -0.34424220283E+00 -0.16845793760E+01 -0.30321075220E+01  0.34856830598E+01  0.00000000000E+00 0.  1.
</event>
<event>
 7    1  0.2110035E-010  0.4778727E+02  0.7816164E-02  0.1312668E+00
        -11   -1    0    0    0    0  0.00000000000E+00  0.00000000000E+00  0.45593999997E+02  0.45594000000E+02  0.51100000000E-03 0.  1.
         11   -1    0    0    0    0 -0.00000000000E+00 -0.00000000000E+00 -0.45593999997E+02  0.45594000000E+02  0.51100000000E-03 0. -1.
    9900012    2    1    2    0    0  0.14733502680E+02  0.11490953539E+02 -0.39172759614E+02  0.47787271778E+02  0.20000003343E+02 0.  0.
        -12    1    1    2    0    0 -0.14733502680E+02 -0.11490953539E+02  0.39172759614E+02  0.43400728222E+02  0.00000000000E+00 0.  1.
         11    1    3    3    0    0  0.11757816300E+02  0.12082834190E+02 -0.32564239695E+02  0.36669753659E+02  0.51100000000E-03 0. -1.
        -11    1    3    3    0    0  0.48599996676E+01 -0.31092382033E+01 -0.38650100963E+01  0.69444411063E+01  0.51100000000E-03 0.  1.
        -12    1    3    3    0    0 -0.18843132873E+01  0.25173575514E+01 -0.27435098224E+01  0.41730770125E+01  0.00000000000E+00 0.  1.
</event>
<event>
 7    1  0.2110035E-010  0.4778727E+02  0.7816164E-02  0.1312668E+00
        -11   -1    0    0    0    0  0.00000000000E+00  0.00000000000E+00  0.45593999997E+02  0.45594000000E+02  0.51100000000E-03 0.  1.
         11   -1    0    0    0    0 -0.00000000000E+00 -0.00000000000E+00 -0.45593999997E+02  0.45594000000E+02  0.51100000000E-03 0. -1.
    9900012    2    1    2    0    0  0.30503588666E+02 -0.16616459727E+02 -0.26020144639E+02  0.47787267490E+02  0.19999983794E+02 0.  0.
        -12    1    1    2    0    0 -0.30503588666E+02  0.16616459727E+02  0.26020144639E+02  0.43400732510E+02  0.00000000000E+00 0.  1.
         11    1    3    3    0    0  0.99582949874E+01 -0.11662636007E+02 -0.11193384241E+02  0.18986220496E+02  0.51100000000E-03 0. -1.
        -11    1    3    3    0    0  0.18600880854E+02 -0.41499158845E+01 -0.17169878299E+02  0.25651886704E+02  0.51100000000E-03 0.  1.
        -12    1    3    3    0    0  0.19444128244E+01 -0.80390783512E+00  0.23431179005E+01  0.31491602904E+01  0.00000000000E+00 0.  1.
</event>
<event>
 7    1  0.2110035E-010  0.4778727E+02  0.7816164E-02  0.1312668E+00
        -11   -1    0    0    0    0  0.00000000000E+00  0.00000000000E+00  0.45593999997E+02  0.45594000000E+02  0.51100000000E-03 0.  1.
         11   -1    0    0    0    0 -0.00000000000E+00 -0.00000000000E+00 -0.45593999997E+02  0.45594000000E+02  0.51100000000E-03 0. -1.
    9900012    2    1    2    0    0  0.16415258031E+02 -0.30161839457E+02 -0.26541030832E+02  0.47787267595E+02  0.19999984274E+02 0.  0.
        -12    1    1    2    0    0 -0.16415258031E+02  0.30161839457E+02  0.26541030832E+02  0.43400732405E+02  0.00000000000E+00 0.  1.
         11    1    3    3    0    0 -0.20870269107E+01 -0.30538911197E+01 -0.93104526002E+00  0.38142860190E+01  0.51100000000E-03 0. -1.
        -11    1    3    3    0    0  0.11216285967E+02 -0.87787501442E+01 -0.17706390268E+02  0.22724167346E+02  0.51100000000E-03 0.  1.
         12    1    3    3    0    0  0.72859989743E+01 -0.18329198193E+02 -0.79035953039E+01  0.21248814230E+02  0.00000000000E+00 0. -1.
</event>
<event>
 7    1  0.2110035E-010  0.4778727E+02  0.7816164E-02  0.1312668E+00
        -11   -1    0    0    0    0  0.00000000000E+00  0.00000000000E+00  0.45593999997E+02  0.45594000000E+02  0.51100000000E-03 0.  1.
         11   -1    0    0    0    0 -0.00000000000E+00 -0.00000000000E+00 -0.45593999997E+02  0.45594000000E+02  0.51100000000E-03 0. -1.
    9900012    2    1    2    0    0 -0.28063679580E+02  0.28039159766E+02 -0.17602802956E+02  0.47787271160E+02  0.20000000527E+02 0.  0.
        -12    1    1    2    0    0  0.28063679580E+02 -0.28039159766E+02  0.17602802956E+02  0.43400728840E+02  0.00000000000E+00 0.  1.
         11    1    3    3    0    0 -0.14366531863E+02  0.16080611693E+02 -0.14956490204E+02  0.26242711554E+02  0.51100000000E-03 0. -1.
        -11    1    3    3    0    0 -0.15684843781E+02  0.11060777264E+02 -0.25517684416E+01  0.19361473099E+02  0.51100000000E-03 0.  1.
         12    1    3    3    0    0  0.19876960648E+01  0.89777080878E+00 -0.94544310233E-01  0.21830865072E+01  0.00000000000E+00 0. -1.
</event>
<event>
 7    1  0.2110035E-010  0.4778727E+02  0.7816164E-02  0.1312668E+00
        -11   -1    0    0    0    0  0.00000000000E+00  0.00000000000E+00  0.45593999997E+02  0.45594000000E+02  0.51100000000E-03 0. -1.
         11   -1    0    0    0    0 -0.00000000000E+00 -0.00000000000E+00 -0.45593999997E+02  0.45594000000E+02  0.51100000000E-03 0.  1.
    9900012    2    1    2    0    0  0.15532380309E+02  0.22355385505E+02  0.33802439768E+02  0.47787273815E+02  0.20000012630E+02 0.  0.
        -12    1    1    2    0    0 -0.15532380309E+02 -0.22355385505E+02 -0.33802439768E+02  0.43400726185E+02  0.00000000000E+00 0.  1.
         11    1    3    3    0    0  0.30856946870E+01  0.40653382432E+01  0.12182259914E+02  0.13208177149E+02  0.51100000000E-03 0.  1.
        -11    1    3    3    0    0  0.51269466751E+01  0.42476911156E+01 -0.12374145701E+01  0.67719758640E+01  0.51100000000E-03 0. -1.
         12    1    3    3    0    0  0.73197389464E+01  0.14042356147E+02  0.22857594425E+02  0.27807120802E+02  0.00000000000E+00 0. -1.
</event>
<event>
 7    1  0.2110035E-010  0.4778724E+02  0.7816164E-02  0.1312668E+00
        -11   -1    0    0    0    0  0.00000000000E+00  0.00000000000E+00  0.45593999997E+02  0.45594000000E+02  0.51100000000E-03 0. -1.
         11   -1    0    0    0    0 -0.00000000000E+00 -0.00000000000E+00 -0.45593999997E+02  0.45594000000E+02  0.51100000000E-03 0.  1.
    9900012    2    1    2    0    0 -0.20364332722E+02  0.31115746156E+02  0.22377010336E+02  0.47787236209E+02  0.19999841169E+02 0.  0.
        -12    1    1    2    0    0  0.20364332722E+02 -0.31115746156E+02 -0.22377010336E+02  0.43400763791E+02  0.00000000000E+00 0.  1.
         11    1    3    3    0    0 -0.76983629671E-01  0.45364166367E+01  0.71432788074E+01  0.84623539729E+01  0.51100000000E-03 0. -1.
        -11    1    3    3    0    0  0.17187206563E+01  0.63348759967E-01  0.13010690594E+01  0.21565701283E+01  0.51100000000E-03 0.  1.
         12    1    3    3    0    0 -0.22006069749E+02  0.26515980759E+02  0.13932662469E+02  0.37168312107E+02  0.00000000000E+00 0. -1.
</event>
<event>
 7    1  0.2110035E-010  0.4778727E+02  0.7816164E-02  0.1312668E+00
        -11   -1    0    0    0    0  0.00000000000E+00  0.00000000000E+00  0.45593999997E+02  0.45594000000E+02  0.51100000000E-03 0.  1.
         11   -1    0    0    0    0 -0.00000000000E+00 -0.00000000000E+00 -0.45593999997E+02  0.45594000000E+02  0.51100000000E-03 0. -1.
    9900012    2    1    2    0    0 -0.11317740734E+02  0.25012754755E+02 -0.33613904771E+02  0.47787265563E+02  0.19999975006E+02 0.  0.
        -12    1    1    2    0    0  0.11317740734E+02 -0.25012754755E+02  0.33613904771E+02  0.43400734437E+02  0.00000000000E+00 0.  1.
         11    1    3    3    0    0 -0.11299298939E+02  0.15462039486E+02 -0.29722915315E+02  0.35358174680E+02  0.51100000000E-03 0. -1.
        -11    1    3    3    0    0  0.16823274810E+01  0.69728315095E+01 -0.54128771929E+01  0.89860917411E+01  0.51100000000E-03 0.  1.
        -12    1    3    3    0    0 -0.17007692759E+01  0.25778837591E+01  0.15218877371E+01  0.34429991417E+01  0.00000000000E+00 0.  1.
</event>
<event>
 7    1  0.2110035E-010  0.4778727E+02  0.7816164E-02  0.1312668E+00
        -11   -1    0    0    0    0  0.00000000000E+00  0.00000000000E+00  0.45593999997E+02  0.45594000000E+02  0.51100000000E-03 0. -1.
         11   -1    0    0    0    0 -0.00000000000E+00 -0.00000000000E+00 -0.45593999997E+02  0.45594000000E+02  0.51100000000E-03 0.  1.
    9900012    2    1    2    0    0 -0.99019926019E+01 -0.41401861680E+02  0.84533651383E+01  0.47787274312E+02  0.20000014899E+02 0.  0.
        -12    1    1    2    0    0  0.99019926019E+01  0.41401861680E+02 -0.84533651383E+01  0.43400725688E+02  0.00000000000E+00 0.  1.
         11    1    3    3    0    0 -0.12553217188E+01 -0.17142598595E+02  0.82183479963E+01  0.19052185262E+02  0.51100000000E-03 0. -1.
        -11    1    3    3    0    0 -0.69165583642E+01 -0.32306128418E+01 -0.18048532598E-01  0.76338695922E+01  0.51100000000E-03 0.  1.
         12    1    3    3    0    0 -0.17301125189E+01 -0.21028650243E+02  0.25306567457E+00  0.21101219458E+02  0.00000000000E+00 0. -1.
</event>
<event>
 7    1  0.2110035E-010  0.4778727E+02  0.7816164E-02  0.1312668E+00
        -11   -1    0    0    0    0  0.00000000000E+00  0.00000000000E+00  0.45593999997E+02  0.45594000000E+02  0.51100000000E-03 0.  1.
         11   -1    0    0    0    0 -0.00000000000E+00 -0.00000000000E+00 -0.45593999997E+02  0.45594000000E+02  0.51100000000E-03 0. -1.
    9900012    2    1    2    0    0 -0.24185079354E+01 -0.85129927729E+01 -0.42488857983E+02  0.47787270982E+02  0.19999999714E+02 0.  0.
        -12    1    1    2    0    0  0.24185079354E+01  0.85129927729E+01  0.42488857983E+02  0.43400729018E+02  0.00000000000E+00 0.  1.
         11    1    3    3    0    0 -0.10583741631E+01  0.35666936698E+01 -0.11973488502E+02  0.12538177171E+02  0.51100000000E-03 0. -1.
        -11    1    3    3    0    0  0.21223527160E+01  0.20873518987E+01 -0.65103969384E+01  0.71586791768E+01  0.51100000000E-03 0.  1.
        -12    1    3    3    0    0 -0.34824864882E+01 -0.14167038341E+02 -0.24004972543E+02  0.28090414634E+02  0.00000000000E+00 0.  1.
</event>
<event>
 7    1  0.2110035E-010  0.4778727E+02  0.7816164E-02  0.1312668E+00
        -11   -1    0    0    0    0  0.00000000000E+00  0.00000000000E+00  0.45593999997E+02  0.45594000000E+02  0.51100000000E-03 0.  1.
         11   -1    0    0    0    0 -0.00000000000E+00 -0.00000000000E+00 -0.45593999997E+02  0.45594000000E+02  0.51100000000E-03 0. -1.
    9900012    2    1    2    0    0 -0.15932777606E+01 -0.45683801054E+01 -0.43130205657E+02  0.47787271080E+02  0.20000000161E+02 0.  0.
        -12    1    1    2    0    0  0.15932777606E+01  0.45683801054E+01  0.43130205657E+02  0.43400728920E+02  0.00000000000E+00 0.  1.
         11    1    3    3    0    0  0.60442628573E+00  0.45923604581E+01 -0.12226851892E+02  0.13074823638E+02  0.51100000000E-03 0. -1.
        -11    1    3    3    0    0 -0.54180442851E+01  0.27531524307E+00 -0.14904351288E+02  0.15860980107E+02  0.51100000000E-03 0.  1.
         12    1    3    3    0    0  0.32203402388E+01 -0.94360558066E+01 -0.15999002477E+02  0.18851467335E+02  0.00000000000E+00 0. -1.
</event>
<event>
 7    1  0.2110035E-010  0.4778727E+02  0.7816164E-02  0.1312668E+00
        -11   -1    0    0    0    0  0.00000000000E+00  0.00000000000E+00  0.45593999997E+02  0.45594000000E+02  0.51100000000E-03 0.  1.
         11   -1    0    0    0    0 -0.00000000000E+00 -0.00000000000E+00 -0.45593999997E+02  0.45594000000E+02  0.51100000000E-03 0. -1.
    9900012    2    1    2    0    0 -0.22793341925E+02 -0.10233165705E+02 -0.35487587428E+02  0.47787274453E+02  0.20000015542E+02 0.  0.
        -12    1    1    2    0    0  0.22793341925E+02  0.10233165705E+02  0.35487587428E+02  0.43400725547E+02  0.00000000000E+00 0.  1.
         11    1    3    3    0    0 -0.76903777078E+01 -0.23268107174E+01 -0.21856569028E+02  0.23286596302E+02  0.51100000000E-03 0. -1.
        -11    1    3    3    0    0 -0.14329109302E+02 -0.23563797299E+01 -0.11429874797E+02  0.18480203921E+02  0.51100000000E-03 0.  1.
        -12    1    3    3    0    0 -0.77385491522E+00 -0.55499752579E+01 -0.22011436039E+01  0.60204742303E+01  0.00000000000E+00 0.  1.
</event>
<event>
 7    1  0.2110035E-010  0.4778727E+02  0.7816164E-02  0.1312668E+00
        -11   -1    0    0    0    0  0.00000000000E+00  0.00000000000E+00  0.45593999997E+02  0.45594000000E+02  0.51100000000E-03 0.  1.
         11   -1    0    0    0    0 -0.00000000000E+00 -0.00000000000E+00 -0.45593999997E+02  0.45594000000E+02  0.51100000000E-03 0. -1.
    9900012    2    1    2    0    0  0.17192871673E+02 -0.24440098285E+02 -0.31475547178E+02  0.47787270620E+02  0.19999998064E+02 0.  0.
        -12    1    1    2    0    0 -0.17192871673E+02  0.24440098285E+02  0.31475547178E+02  0.43400729380E+02  0.00000000000E+00 0.  1.
         11    1    3    3    0    0 -0.20139175743E+01 -0.28874346651E+01 -0.49721103443E+01  0.60922101472E+01  0.51100000000E-03 0. -1.
        -11    1    3    3    0    0  0.37466885821E+01  0.18056960247E+01 -0.29775218197E+01  0.51150610859E+01  0.51100000000E-03 0.  1.
         12    1    3    3    0    0  0.15460100665E+02 -0.23358359645E+02 -0.23525915014E+02  0.36579999387E+02  0.00000000000E+00 0. -1.
</event>
<event>
 7    1  0.2110035E-010  0.4778727E+02  0.7816164E-02  0.1312668E+00
        -11   -1    0    0    0    0  0.00000000000E+00  0.00000000000E+00  0.45593999997E+02  0.45594000000E+02  0.51100000000E-03 0.  1.
         11   -1    0    0    0    0 -0.00000000000E+00 -0.00000000000E+00 -0.45593999997E+02  0.45594000000E+02  0.51100000000E-03 0. -1.
    9900012    2    1    2    0    0 -0.22700266845E+02  0.42292802473E+01 -0.36748255340E+02  0.47787271933E+02  0.20000004050E+02 0.  0.
        -12    1    1    2    0    0  0.22700266845E+02 -0.42292802473E+01  0.36748255340E+02  0.43400728067E+02  0.00000000000E+00 0.  1.
         11    1    3    3    0    0 -0.50485685527E+01 -0.50362928163E+01 -0.51604712106E+01  0.88024288205E+01  0.51100000000E-03 0. -1.
        -11    1    3    3    0    0 -0.27297688079E+01  0.61374558779E+01 -0.15109238778E+02  0.16535086910E+02  0.51100000000E-03 0.  1.
         12    1    3    3    0    0 -0.14921929484E+02  0.31281171857E+01 -0.16478545352E+02  0.22449756203E+02  0.00000000000E+00 0. -1.
</event>
<event>
 7    1  0.2110035E-010  0.4778727E+02  0.7816164E-02  0.1312668E+00
        -11   -1    0    0    0    0  0.00000000000E+00  0.00000000000E+00  0.45593999997E+02  0.45594000000E+02  0.51100000000E-03 0.  1.
         11   -1    0    0    0    0 -0.00000000000E+00 -0.00000000000E+00 -0.45593999997E+02  0.45594000000E+02  0.51100000000E-03 0. -1.
    9900012    2    1    2    0    0 -0.25685839319E+02  0.33257219283E+02 -0.10854415212E+02  0.47787270680E+02  0.19999998337E+02 0.  0.
        -12    1    1    2    0    0  0.25685839319E+02 -0.33257219283E+02  0.10854415212E+02  0.43400729320E+02  0.00000000000E+00 0.  1.
         11    1    3    3    0    0 -0.12654076861E+01  0.90960804053E+01 -0.54425340978E+01  0.10675257047E+02  0.51100000000E-03 0. -1.
        -11    1    3    3    0    0 -0.18077218276E+02  0.16076705140E+02 -0.95844025936E+01  0.26021280562E+02  0.51100000000E-03 0.  1.
        -12    1    3    3    0    0 -0.63432133562E+01  0.80844337375E+01  0.41725214794E+01  0.11090733070E+02  0.00000000000E+00 0.  1.
</event>
<event>
 7    1  0.2110035E-010  0.4778727E+02  0.7816164E-02  0.1312668E+00
        -11   -1    0    0    0    0  0.00000000000E+00  0.00000000000E+00  0.45593999997E+02  0.45594000000E+02  0.51100000000E-03 0.  1.
         11   -1    0    0    0    0 -0.00000000000E+00 -0.00000000000E+00 -0.45593999997E+02  0.45594000000E+02  0.51100000000E-03 0. -1.
    9900012    2    1    2    0    0  0.39664625968E+02 -0.14901480653E+02  0.93960950105E+01  0.47787270970E+02  0.19999999662E+02 0.  0.
        -12    1    1    2    0    0 -0.39664625968E+02  0.14901480653E+02 -0.93960950105E+01  0.43400729030E+02  0.00000000000E+00 0.  1.
         11    1    3    3    0    0  0.92401476334E+00  0.27204032057E+01  0.71499181707E-01  0.28739361995E+01  0.51100000000E-03 0. -1.
        -11    1    3    3    0    0  0.13133494225E+02 -0.11029123047E+02  0.64184652207E+01  0.18311933863E+02  0.51100000000E-03 0.  1.
         12    1    3    3    0    0  0.25607116980E+02 -0.65927608116E+01  0.29061306081E+01  0.26601400908E+02  0.00000000000E+00 0. -1.
</event>
<event>
 7    1  0.2110035E-010  0.4778727E+02  0.7816164E-02  0.1312668E+00
        -11   -1    0    0    0    0  0.00000000000E+00  0.00000000000E+00  0.45593999997E+02  0.45594000000E+02  0.51100000000E-03 0.  1.
         11   -1    0    0    0    0 -0.00000000000E+00 -0.00000000000E+00 -0.45593999997E+02  0.45594000000E+02  0.51100000000E-03 0. -1.
    9900012    2    1    2    0    0 -0.11390765864E+02 -0.40333305188E+02 -0.11273790101E+02  0.47787269619E+02  0.19999993501E+02 0.  0.
        -12    1    1    2    0    0  0.11390765864E+02  0.40333305188E+02  0.11273790101E+02  0.43400730381E+02  0.00000000000E+00 0.  1.
         11    1    3    3    0    0  0.28360047766E+00 -0.59323117395E+01 -0.57294147287E+01  0.82522085044E+01  0.51100000000E-03 0. -1.
        -11    1    3    3    0    0 -0.32261954667E+01 -0.11520964192E+02  0.49955508561E+01  0.12965202725E+02  0.51100000000E-03 0.  1.
         12    1    3    3    0    0 -0.84481708747E+01 -0.22880029257E+02 -0.10539926229E+02  0.26569858389E+02  0.00000000000E+00 0. -1.
</event>
<event>
 7    1  0.2110035E-010  0.4778727E+02  0.7816164E-02  0.1312668E+00
        -11   -1    0    0    0    0  0.00000000000E+00  0.00000000000E+00  0.45593999997E+02  0.45594000000E+02  0.51100000000E-03 0.  1.
         11   -1    0    0    0    0 -0.00000000000E+00 -0.00000000000E+00 -0.45593999997E+02  0.45594000000E+02  0.51100000000E-03 0. -1.
    9900012    2    1    2    0    0 -0.28383819004E+01 -0.17788348439E+02 -0.39485963869E+02  0.47787273109E+02  0.20000009412E+02 0.  0.
        -12    1    1    2    0    0  0.28383819004E+01  0.17788348439E+02  0.39485963869E+02  0.43400726891E+02  0.00000000000E+00 0.  1.
         11    1    3    3    0    0 -0.10902459092E+01  0.26899382235E+01 -0.32341178072E+01  0.43455634895E+01  0.51100000000E-03 0. -1.
        -11    1    3    3    0    0 -0.22166942719E+01  0.86465412545E+00 -0.56377791308E+01  0.61193066634E+01  0.51100000000E-03 0.  1.
         12    1    3    3    0    0  0.46855828073E+00 -0.21342940788E+02 -0.30614066931E+02  0.37322402956E+02  0.00000000000E+00 0. -1.
</event>
<event>
 7    1  0.2110035E-010  0.4778727E+02  0.7816164E-02  0.1312668E+00
        -11   -1    0    0    0    0  0.00000000000E+00  0.00000000000E+00  0.45593999997E+02  0.45594000000E+02  0.51100000000E-03 0. -1.
         11   -1    0    0    0    0 -0.00000000000E+00 -0.00000000000E+00 -0.45593999997E+02  0.45594000000E+02  0.51100000000E-03 0.  1.
    9900012    2    1    2    0    0 -0.36431440722E+01 -0.13597481620E+02  0.41054342657E+02  0.47787273553E+02  0.20000011438E+02 0.  0.
        -12    1    1    2    0    0  0.36431440722E+01  0.13597481620E+02 -0.41054342657E+02  0.43400726447E+02  0.00000000000E+00 0.  1.
         11    1    3    3    0    0  0.36971169834E+01 -0.53205583081E+01  0.17390761466E+02  0.18558437416E+02  0.51100000000E-03 0. -1.
        -11    1    3    3    0    0  0.15868544955E+01 -0.25609341774E+01  0.15657969380E+02  0.15945171570E+02  0.51100000000E-03 0.  1.
        -12    1    3    3    0    0 -0.89271155511E+01 -0.57159891343E+01  0.80056118109E+01  0.13283664566E+02  0.00000000000E+00 0.  1.
</event>
<event>
 7    1  0.2110035E-010  0.4778727E+02  0.7816164E-02  0.1312668E+00
        -11   -1    0    0    0    0  0.00000000000E+00  0.00000000000E+00  0.45593999997E+02  0.45594000000E+02  0.51100000000E-03 0.  1.
         11   -1    0    0    0    0 -0.00000000000E+00 -0.00000000000E+00 -0.45593999997E+02  0.45594000000E+02  0.51100000000E-03 0. -1.
    9900012    2    1    2    0    0 -0.50824199936E+01  0.18142043477E+01 -0.43063922687E+02  0.47787265357E+02  0.19999974068E+02 0.  0.
        -12    1    1    2    0    0  0.50824199936E+01 -0.18142043477E+01  0.43063922687E+02  0.43400734643E+02  0.00000000000E+00 0.  1.
         11    1    3    3    0    0 -0.20337656952E+01  0.73693272286E+01 -0.29451266952E+02  0.30427295510E+02  0.51100000000E-03 0. -1.
        -11    1    3    3    0    0 -0.32759709382E+01 -0.32998208936E+00 -0.61496854561E+00  0.33494865786E+01  0.51100000000E-03 0.  1.
        -12    1    3    3    0    0  0.22731663981E+00 -0.52251407915E+01 -0.12997687189E+02  0.14010483268E+02  0.00000000000E+00 0.  1.
</event>
<event>
 7    1  0.2110035E-010  0.4778727E+02  0.7816164E-02  0.1312668E+00
        -11   -1    0    0    0    0  0.00000000000E+00  0.00000000000E+00  0.45593999997E+02  0.45594000000E+02  0.51100000000E-03 0.  1.
         11   -1    0    0    0    0 -0.00000000000E+00 -0.00000000000E+00 -0.45593999997E+02  0.45594000000E+02  0.51100000000E-03 0. -1.
    9900012    2    1    2    0    0  0.14058472571E+02  0.25357960204E+02 -0.32294837000E+02  0.47787270817E+02  0.19999998964E+02 0.  0.
        -12    1    1    2    0    0 -0.14058472571E+02 -0.25357960204E+02  0.32294837000E+02  0.43400729183E+02  0.00000000000E+00 0.  1.
         11    1    3    3    0    0  0.11412349491E+01 -0.12105249498E+01 -0.90518930266E+00  0.18939788272E+01  0.51100000000E-03 0. -1.
        -11    1    3    3    0    0  0.48535782947E+01  0.23297413919E+02 -0.27483931744E+02  0.36355098981E+02  0.51100000000E-03 0.  1.
        -12    1    3    3    0    0  0.80636593269E+01  0.32710712354E+01 -0.39057159532E+01  0.95381930089E+01  0.00000000000E+00 0.  1.
</event>
<event>
 7    1  0.2110035E-010  0.4778729E+02  0.7816164E-02  0.1312668E+00
        -11   -1    0    0    0    0  0.00000000000E+00  0.00000000000E+00  0.45593999997E+02  0.45594000000E+02  0.51100000000E-03 0. -1.
         11   -1    0    0    0    0 -0.00000000000E+00 -0.00000000000E+00 -0.45593999997E+02  0.45594000000E+02  0.51100000000E-03 0.  1.
    9900012    2    1    2    0    0 -0.24925941836E+02  0.30609968737E+02  0.18037429794E+02  0.47787289913E+02  0.20000086030E+02 0.  0.
        -12    1    1    2    0    0  0.24925941836E+02 -0.30609968737E+02 -0.18037429794E+02  0.43400710087E+02  0.00000000000E+00 0.  1.
         11    1    3    3    0    0 -0.21724874017E+01 -0.77046108111E+00  0.39749912517E+01  0.45949828618E+01  0.51100000000E-03 0. -1.
        -11    1    3    3    0    0  0.64313339377E+00  0.31011795041E+01  0.40627720431E+01  0.51514126038E+01  0.51100000000E-03 0.  1.
         12    1    3    3    0    0 -0.23396587828E+02  0.28279250314E+02  0.99996664994E+01  0.38040894448E+02  0.00000000000E+00 0. -1.
</event>
<event>
 7    1  0.2110035E-010  0.4778727E+02  0.7816164E-02  0.1312668E+00
        -11   -1    0    0    0    0  0.00000000000E+00  0.00000000000E+00  0.45593999997E+02  0.45594000000E+02  0.51100000000E-03 0.  1.
         11   -1    0    0    0    0 -0.00000000000E+00 -0.00000000000E+00 -0.45593999997E+02  0.45594000000E+02  0.51100000000E-03 0. -1.
    9900012    2    1    2    0    0 -0.39048410449E+02 -0.18465526743E+02 -0.42271757355E+01  0.47787273610E+02  0.20000011696E+02 0.  0.
        -12    1    1    2    0    0  0.39048410449E+02  0.18465526743E+02  0.42271757355E+01  0.43400726390E+02  0.00000000000E+00 0.  1.
         11    1    3    3    0    0 -0.13762650209E+02 -0.95095107451E+01 -0.63370970227E+01  0.17888547575E+02  0.51100000000E-03 0. -1.
        -11    1    3    3    0    0 -0.12016588109E+02 -0.47790733793E+01 -0.54875758757E+01  0.14048182139E+02  0.51100000000E-03 0.  1.
        -12    1    3    3    0    0 -0.13269172131E+02 -0.41769426189E+01  0.75974971629E+01  0.15850543896E+02  0.00000000000E+00 0.  1.
</event>
<event>
 7    1  0.2110035E-010  0.4778726E+02  0.7816164E-02  0.1312668E+00
        -11   -1    0    0    0    0  0.00000000000E+00  0.00000000000E+00  0.45593999997E+02  0.45594000000E+02  0.51100000000E-03 0.  1.
         11   -1    0    0    0    0 -0.00000000000E+00 -0.00000000000E+00 -0.45593999997E+02  0.45594000000E+02  0.51100000000E-03 0. -1.
    9900012    2    1    2    0    0 -0.39188053915E+01 -0.27375400189E+02 -0.33449288375E+02  0.47787257333E+02  0.19999937485E+02 0.  0.
        -12    1    1    2    0    0  0.39188053915E+01  0.27375400189E+02  0.33449288375E+02  0.43400742667E+02  0.00000000000E+00 0.  1.
         11    1    3    3    0    0  0.15088625186E+01 -0.75323846003E+01 -0.11777181722E+02  0.14061134145E+02  0.51100000000E-03 0. -1.
        -11    1    3    3    0    0 -0.10375948868E+02 -0.86172918468E+01 -0.12715970038E+02  0.18536826264E+02  0.51100000000E-03 0.  1.
        -12    1    3    3    0    0  0.49482809578E+01 -0.11225723742E+02 -0.89561366156E+01  0.15189296924E+02  0.00000000000E+00 0.  1.
</event>
<event>
 7    1  0.2110035E-010  0.4778727E+02  0.7816164E-02  0.1312668E+00
        -11   -1    0    0    0    0  0.00000000000E+00  0.00000000000E+00  0.45593999997E+02  0.45594000000E+02  0.51100000000E-03 0.  1.
         11   -1    0    0    0    0 -0.00000000000E+00 -0.00000000000E+00 -0.45593999997E+02  0.45594000000E+02  0.51100000000E-03 0. -1.
    9900012    2    1    2    0    0  0.31734207552E+02  0.28236945374E+02  0.89016105552E+01  0.47787266325E+02  0.19999978484E+02 0.  0.
        -12    1    1    2    0    0 -0.31734207552E+02 -0.28236945374E+02 -0.89016105552E+01  0.43400733675E+02  0.00000000000E+00 0.  1.
         11    1    3    3    0    0 -0.16585726707E+01  0.68751857969E+00  0.13560268796E+01  0.22499676133E+01  0.51100000000E-03 0. -1.
        -11    1    3    3    0    0  0.17799225518E+02  0.21925234674E+02  0.61454444404E+01  0.28901467648E+02  0.51100000000E-03 0.  1.
         12    1    3    3    0    0  0.15593554704E+02  0.56241921208E+01  0.14001392352E+01  0.16635831065E+02  0.00000000000E+00 0. -1.
</event>
<event>
 7    1  0.2110035E-010  0.4778727E+02  0.7816164E-02  0.1312668E+00
        -11   -1    0    0    0    0  0.00000000000E+00  0.00000000000E+00  0.45593999997E+02  0.45594000000E+02  0.51100000000E-03 0.  1.
         11   -1    0    0    0    0 -0.00000000000E+00 -0.00000000000E+00 -0.45593999997E+02  0.45594000000E+02  0.51100000000E-03 0. -1.
    9900012    2    1    2    0    0  0.75587563123E+01 -0.22649851912E+02 -0.36241864894E+02  0.47787270056E+02  0.19999995495E+02 0.  0.
        -12    1    1    2    0    0 -0.75587563123E+01  0.22649851912E+02  0.36241864894E+02  0.43400729944E+02  0.00000000000E+00 0.  1.
         11    1    3    3    0    0  0.17026077932E+01 -0.11691522173E+01 -0.13297967469E+01  0.24564506618E+01  0.51100000000E-03 0. -1.
        -11    1    3    3    0    0  0.25879996463E+01 -0.16317074839E+02 -0.92151737672E+01  0.18917296353E+02  0.51100000000E-03 0.  1.
         12    1    3    3    0    0  0.32681488728E+01 -0.51636248558E+01 -0.25696894380E+02  0.26413523042E+02  0.00000000000E+00 0. -1.
</event>
<event>
 7    1  0.2110035E-010  0.4778727E+02  0.7816164E-02  0.1312668E+00
        -11   -1    0    0    0    0  0.00000000000E+00  0.00000000000E+00  0.45593999997E+02  0.45594000000E+02  0.51100000000E-03 0.  1.
         11   -1    0    0    0    0 -0.00000000000E+00 -0.00000000000E+00 -0.45593999997E+02  0.45594000000E+02  0.51100000000E-03 0. -1.
    9900012    2    1    2    0    0 -0.10441419332E+02  0.39672536887E+01 -0.41938776140E+02  0.47787270932E+02  0.19999999487E+02 0.  0.
        -12    1    1    2    0    0  0.10441419332E+02 -0.39672536887E+01  0.41938776140E+02  0.43400729068E+02  0.00000000000E+00 0.  1.
         11    1    3    3    0    0 -0.32851403919E+01  0.21785650857E+01 -0.21451523241E+02  0.21810688730E+02  0.51100000000E-03 0. -1.
        -11    1    3    3    0    0 -0.78215940673E+01  0.57635181698E+01 -0.72033086667E+01  0.12094756362E+02  0.51100000000E-03 0.  1.
        -12    1    3    3    0    0  0.66531512677E+00 -0.39748295667E+01 -0.13283944232E+02  0.13881825840E+02  0.00000000000E+00 0.  1.
</event>
<event>
 7    1  0.2110035E-010  0.4778727E+02  0.7816164E-02  0.1312668E+00
        -11   -1    0    0    0    0  0.00000000000E+00  0.00000000000E+00  0.45593999997E+02  0.45594000000E+02  0.51100000000E-03 0.  1.
         11   -1    0    0    0    0 -0.00000000000E+00 -0.00000000000E+00 -0.45593999997E+02  0.45594000000E+02  0.51100000000E-03 0. -1.
    9900012    2    1    2    0    0  0.33034629039E+02  0.12879513469E+02 -0.25029070550E+02  0.47787274712E+02  0.20000016723E+02 0.  0.
        -12    1    1    2    0    0 -0.33034629039E+02 -0.12879513469E+02  0.25029070550E+02  0.43400725288E+02  0.00000000000E+00 0.  1.
         11    1    3    3    0    0  0.71266689963E+01 -0.13856983262E+01 -0.68231620296E+01  0.99631878020E+01  0.51100000000E-03 0. -1.
        -11    1    3    3    0    0  0.67788195109E+01  0.94777485548E+01 -0.10731689403E+01  0.11701786336E+02  0.51100000000E-03 0.  1.
         12    1    3    3    0    0  0.19129140531E+02  0.47874632400E+01 -0.17132739580E+02  0.26122300574E+02  0.00000000000E+00 0. -1.
</event>
<event>
 7    1  0.2110035E-010  0.4778727E+02  0.7816164E-02  0.1312668E+00
        -11   -1    0    0    0    0  0.00000000000E+00  0.00000000000E+00  0.45593999997E+02  0.45594000000E+02  0.51100000000E-03 0. -1.
         11   -1    0    0    0    0 -0.00000000000E+00 -0.00000000000E+00 -0.45593999997E+02  0.45594000000E+02  0.51100000000E-03 0.  1.
    9900012    2    1    2    0    0  0.40074308874E+02  0.96889323543E+01  0.13557193724E+02  0.47787272545E+02  0.20000006843E+02 0.  0.
        -12    1    1    2    0    0 -0.40074308874E+02 -0.96889323543E+01 -0.13557193724E+02  0.43400727455E+02  0.00000000000E+00 0.  1.
         11    1    3    3    0    0  0.99263370901E+01  0.21384164896E+01  0.90859215527E+01  0.13625672968E+02  0.51100000000E-03 0.  1.
        -11    1    3    3    0    0  0.19207041278E+02  0.72183867729E+01  0.88843522228E+01  0.22359500373E+02  0.51100000000E-03 0. -1.
         12    1    3    3    0    0  0.10940930506E+02  0.33212909171E+00 -0.44130800517E+01  0.11802099204E+02  0.00000000000E+00 0. -1.
</event>
<event>
 7    1  0.2110035E-010  0.4778727E+02  0.7816164E-02  0.1312668E+00
        -11   -1    0    0    0    0  0.00000000000E+00  0.00000000000E+00  0.45593999997E+02  0.45594000000E+02  0.51100000000E-03 0.  1.
         11   -1    0    0    0    0 -0.00000000000E+00 -0.00000000000E+00 -0.45593999997E+02  0.45594000000E+02  0.51100000000E-03 0. -1.
    9900012    2    1    2    0    0  0.16661454817E+02  0.26300637638E+02 -0.30237324937E+02  0.47787269175E+02  0.19999991478E+02 0.  0.
        -12    1    1    2    0    0 -0.16661454817E+02 -0.26300637638E+02  0.30237324937E+02  0.43400730825E+02  0.00000000000E+00 0.  1.
         11    1    3    3    0    0  0.11961608384E+02  0.14504355847E+02 -0.14427556089E+02  0.23698328816E+02  0.51100000000E-03 0. -1.
        -11    1    3    3    0    0 -0.23990021255E+01  0.10577703092E+02 -0.80920521085E+01  0.13532343533E+02  0.51100000000E-03 0.  1.
         12    1    3    3    0    0  0.70988485578E+01  0.12185786982E+01 -0.77177167395E+01  0.10556596827E+02  0.00000000000E+00 0. -1.
</event>
<event>
 7    1  0.2110035E-010  0.4778727E+02  0.7816164E-02  0.1312668E+00
        -11   -1    0    0    0    0  0.00000000000E+00  0.00000000000E+00  0.45593999997E+02  0.45594000000E+02  0.51100000000E-03 0.  1.
         11   -1    0    0    0    0 -0.00000000000E+00 -0.00000000000E+00 -0.45593999997E+02  0.45594000000E+02  0.51100000000E-03 0. -1.
    9900012    2    1    2    0    0  0.16097689934E+02  0.21109776063E+02 -0.34334602098E+02  0.47787272266E+02  0.20000005569E+02 0.  0.
        -12    1    1    2    0    0 -0.16097689934E+02 -0.21109776063E+02  0.34334602098E+02  0.43400727734E+02  0.00000000000E+00 0.  1.
         11    1    3    3    0    0  0.71356827578E+01  0.12172100633E+02 -0.11253946822E+02  0.18047972783E+02  0.51100000000E-03 0. -1.
        -11    1    3    3    0    0  0.83314959030E+01  0.34433589944E+01 -0.22426202181E+02  0.24170334910E+02  0.51100000000E-03 0.  1.
         12    1    3    3    0    0  0.63051127292E+00  0.54943164358E+01 -0.65445309504E+00  0.55689645730E+01  0.00000000000E+00 0. -1.
</event>
<event>
 7    1  0.2110035E-010  0.4778728E+02  0.7816164E-02  0.1312668E+00
        -11   -1    0    0    0    0  0.00000000000E+00  0.00000000000E+00  0.45593999997E+02  0.45594000000E+02  0.51100000000E-03 0. -1.
         11   -1    0    0    0    0 -0.00000000000E+00 -0.00000000000E+00 -0.45593999997E+02  0.45594000000E+02  0.51100000000E-03 0.  1.
    9900012    2    1    2    0    0  0.24926622621E+02 -0.35381197608E+02  0.32337202776E+01  0.47787278735E+02  0.20000035065E+02 0.  0.
        -12    1    1    2    0    0 -0.24926622621E+02  0.35381197608E+02 -0.32337202776E+01  0.43400721265E+02  0.00000000000E+00 0.  1.
         11    1    3    3    0    0 -0.45454215031E+00  0.76222457818E+00  0.12014811894E+01  0.14937041821E+01  0.51100000000E-03 0. -1.
        -11    1    3    3    0    0  0.96336212655E-01 -0.29573451635E+01 -0.30675966418E+01  0.42620793633E+01  0.51100000000E-03 0.  1.
         12    1    3    3    0    0  0.25284828558E+02 -0.33186077023E+02  0.50998357300E+01  0.42031495190E+02  0.00000000000E+00 0. -1.
</event>
<event>
 7    1  0.2110035E-010  0.4778727E+02  0.7816164E-02  0.1312668E+00
        -11   -1    0    0    0    0  0.00000000000E+00  0.00000000000E+00  0.45593999997E+02  0.45594000000E+02  0.51100000000E-03 0.  1.
         11   -1    0    0    0    0 -0.00000000000E+00 -0.00000000000E+00 -0.45593999997E+02  0.45594000000E+02  0.51100000000E-03 0. -1.
    9900012    2    1    2    0    0  0.44486235988E+01 -0.29726186247E+02  0.31307932862E+02  0.47787273499E+02  0.20000011192E+02 0.  0.
        -12    1    1    2    0    0 -0.44486235988E+01  0.29726186247E+02 -0.31307932862E+02  0.43400726501E+02  0.00000000000E+00 0.  1.
         11    1    3    3    0    0  0.77997792256E+01 -0.25382113148E+02  0.28854182927E+02  0.39212907269E+02  0.51100000000E-03 0. -1.
        -11    1    3    3    0    0  0.11543538160E+01 -0.27310546325E+01  0.23572440809E+01  0.37878479452E+01  0.51100000000E-03 0.  1.
        -12    1    3    3    0    0 -0.45055094428E+01 -0.16130184663E+01  0.96505853723E-01  0.47865182849E+01  0.00000000000E+00 0.  1.
</event>
<event>
 7    1  0.2110035E-010  0.4778727E+02  0.7816164E-02  0.1312668E+00
        -11   -1    0    0    0    0  0.00000000000E+00  0.00000000000E+00  0.45593999997E+02  0.45594000000E+02  0.51100000000E-03 0.  1.
         11   -1    0    0    0    0 -0.00000000000E+00 -0.00000000000E+00 -0.45593999997E+02  0.45594000000E+02  0.51100000000E-03 0. -1.
    9900012    2    1    2    0    0  0.31700831361E+02  0.23970555460E+02 -0.17438270067E+02  0.47787268429E+02  0.19999988075E+02 0.  0.
        -12    1    1    2    0    0 -0.31700831361E+02 -0.23970555460E+02  0.17438270067E+02  0.43400731571E+02  0.00000000000E+00 0.  1.
         11    1    3    3    0    0  0.71186198283E+01 -0.17216723260E+01 -0.38321671215E+01  0.82658580297E+01  0.51100000000E-03 0. -1.
        -11    1    3    3    0    0  0.31901717383E+01  0.24109500662E+01  0.17590361603E+01  0.43685334400E+01  0.51100000000E-03 0.  1.
         12    1    3    3    0    0  0.21392039794E+02  0.23281277719E+02 -0.15365139105E+02  0.35152876959E+02  0.00000000000E+00 0. -1.
</event>
<event>
 7    1  0.2110035E-010  0.4778725E+02  0.7816164E-02  0.1312668E+00
        -11   -1    0    0    0    0  0.00000000000E+00  0.00000000000E+00  0.45593999997E+02  0.45594000000E+02  0.51100000000E-03 0.  1.
         11   -1    0    0    0    0 -0.00000000000E+00 -0.00000000000E+00 -0.45593999997E+02  0.45594000000E+02  0.51100000000E-03 0. -1.
    9900012    2    1    2    0    0 -0.19986849407E+02  0.73066971573E+01 -0.37825434399E+02  0.47787245859E+02  0.19999885167E+02 0.  0.
        -12    1    1    2    0    0  0.19986849407E+02 -0.73066971573E+01  0.37825434399E+02  0.43400754141E+02  0.00000000000E+00 0.  1.
         11    1    3    3    0    0 -0.71326839465E+01  0.91060537485E+01 -0.16300573434E+02  0.19987598397E+02  0.51100000000E-03 0. -1.
        -11    1    3    3    0    0 -0.12870053386E+02  0.76464514712E+00 -0.10940347867E+02  0.16908996660E+02  0.51100000000E-03 0.  1.
        -12    1    3    3    0    0  0.15887925276E-01 -0.25640017383E+01 -0.10584513098E+02  0.10890650801E+02  0.00000000000E+00 0.  1.
</event>
<event>
 7    1  0.2110035E-010  0.4778727E+02  0.7816164E-02  0.1312668E+00
        -11   -1    0    0    0    0  0.00000000000E+00  0.00000000000E+00  0.45593999997E+02  0.45594000000E+02  0.51100000000E-03 0.  1.
         11   -1    0    0    0    0 -0.00000000000E+00 -0.00000000000E+00 -0.45593999997E+02  0.45594000000E+02  0.51100000000E-03 0. -1.
    9900012    2    1    2    0    0  0.41717165906E+02 -0.81750939606E+01  0.87446570424E+01  0.47787272825E+02  0.20000008121E+02 0.  0.
        -12    1    1    2    0    0 -0.41717165906E+02  0.81750939606E+01 -0.87446570424E+01  0.43400727175E+02  0.00000000000E+00 0.  1.
         11    1    3    3    0    0  0.24030338798E+02 -0.16470650577E+00  0.21507515223E+01  0.24126956777E+02  0.51100000000E-03 0. -1.
        -11    1    3    3    0    0  0.11263544223E+02  0.78453183431E+00  0.78722085293E+00  0.11318243485E+02  0.51100000000E-03 0.  1.
        -12    1    3    3    0    0  0.64232828859E+01 -0.87949192892E+01  0.58066846672E+01  0.12342072563E+02  0.00000000000E+00 0.  1.
</event>
<event>
 7    1  0.2110035E-010  0.4778727E+02  0.7816164E-02  0.1312668E+00
        -11   -1    0    0    0    0  0.00000000000E+00  0.00000000000E+00  0.45593999997E+02  0.45594000000E+02  0.51100000000E-03 0. -1.
         11   -1    0    0    0    0 -0.00000000000E+00 -0.00000000000E+00 -0.45593999997E+02  0.45594000000E+02  0.51100000000E-03 0.  1.
    9900012    2    1    2    0    0 -0.21338581921E+02  0.35797448781E+01  0.37622779838E+02  0.47787271728E+02  0.20000003117E+02 0.  0.
        -12    1    1    2    0    0  0.21338581921E+02 -0.35797448781E+01 -0.37622779838E+02  0.43400728272E+02  0.00000000000E+00 0.  1.
         11    1    3    3    0    0 -0.17623740733E+02  0.66936600906E+01  0.33688692850E+02  0.38604784017E+02  0.51100000000E-03 0. -1.
        -11    1    3    3    0    0  0.45415451483E+00  0.11551517924E+01 -0.87509958218E+00  0.15186940201E+01  0.51100000000E-03 0.  1.
        -12    1    3    3    0    0 -0.41689957027E+01 -0.42690670049E+01  0.48091865706E+01  0.76637936906E+01  0.00000000000E+00 0.  1.
</event>
<event>
 7    1  0.2110035E-010  0.4778726E+02  0.7816164E-02  0.1312668E+00
        -11   -1    0    0    0    0  0.00000000000E+00  0.00000000000E+00  0.45593999997E+02  0.45594000000E+02  0.51100000000E-03 0.  1.
         11   -1    0    0    0    0 -0.00000000000E+00 -0.00000000000E+00 -0.45593999997E+02  0.45594000000E+02  0.51100000000E-03 0. -1.
    9900012    2    1    2    0    0  0.20493698327E+02 -0.90562196054E+01 -0.37170114258E+02  0.47787260621E+02  0.19999952475E+02 0.  0.
        -12    1    1    2    0    0 -0.20493698327E+02  0.90562196054E+01  0.37170114258E+02  0.43400739379E+02  0.00000000000E+00 0.  1.
         11    1    3    3    0    0  0.11330097485E+02 -0.19573239488E+01 -0.17991672019E+02  0.21351873181E+02  0.51100000000E-03 0. -1.
        -11    1    3    3    0    0  0.28766867250E+01 -0.10566605985E+02 -0.10496343312E+02  0.15169103854E+02  0.51100000000E-03 0.  1.
         12    1    3    3    0    0  0.62869141176E+01  0.34677103283E+01 -0.86820989274E+01  0.11266283585E+02  0.00000000000E+00 0. -1.
</event>
<event>
 7    1  0.2110035E-010  0.4778728E+02  0.7816164E-02  0.1312668E+00
        -11   -1    0    0    0    0  0.00000000000E+00  0.00000000000E+00  0.45593999997E+02  0.45594000000E+02  0.51100000000E-03 0.  1.
         11   -1    0    0    0    0 -0.00000000000E+00 -0.00000000000E+00 -0.45593999997E+02  0.45594000000E+02  0.51100000000E-03 0. -1.
    9900012    2    1    2    0    0  0.28773023647E+02  0.13390003557E+02 -0.29604791034E+02  0.47787277227E+02  0.20000028190E+02 0.  0.
        -12    1    1    2    0    0 -0.28773023647E+02 -0.13390003557E+02  0.29604791034E+02  0.43400722773E+02  0.00000000000E+00 0.  1.
         11    1    3    3    0    0  0.15584710873E+02  0.13792150491E+02 -0.18817325500E+02  0.28057055573E+02  0.51100000000E-03 0. -1.
        -11    1    3    3    0    0  0.12396212853E+02  0.77823385692E+00 -0.43851433127E+01  0.13171986303E+02  0.51100000000E-03 0.  1.
        -12    1    3    3    0    0  0.79209992055E+00 -0.11803807915E+01 -0.64023222212E+01  0.65582353511E+01  0.00000000000E+00 0.  1.
</event>
<event>
 7    1  0.2110035E-010  0.4778729E+02  0.7816164E-02  0.1312668E+00
        -11   -1    0    0    0    0  0.00000000000E+00  0.00000000000E+00  0.45593999997E+02  0.45594000000E+02  0.51100000000E-03 0.  1.
         11   -1    0    0    0    0 -0.00000000000E+00 -0.00000000000E+00 -0.45593999997E+02  0.45594000000E+02  0.51100000000E-03 0. -1.
    9900012    2    1    2    0    0 -0.60480501570E+01  0.12887389492E+00 -0.42977042291E+02  0.47787289369E+02  0.20000083551E+02 0.  0.
        -12    1    1    2    0    0  0.60480501570E+01 -0.12887389492E+00  0.42977042291E+02  0.43400710631E+02  0.00000000000E+00 0.  1.
         11    1    3    3    0    0 -0.18864660662E+01  0.28104708890E+01 -0.15130810508E+02  0.15504803376E+02  0.51100000000E-03 0. -1.
        -11    1    3    3    0    0  0.33688225882E+01 -0.66712767258E+01 -0.16301932597E+02  0.17933429829E+02  0.51100000000E-03 0.  1.
        -12    1    3    3    0    0 -0.75304066790E+01  0.39896797317E+01 -0.11544299186E+02  0.14349056164E+02  0.00000000000E+00 0.  1.
</event>
<event>
 7    1  0.2110035E-010  0.4778727E+02  0.7816164E-02  0.1312668E+00
        -11   -1    0    0    0    0  0.00000000000E+00  0.00000000000E+00  0.45593999997E+02  0.45594000000E+02  0.51100000000E-03 0.  1.
         11   -1    0    0    0    0 -0.00000000000E+00 -0.00000000000E+00 -0.45593999997E+02  0.45594000000E+02  0.51100000000E-03 0. -1.
    9900012    2    1    2    0    0  0.32095082738E+02  0.27674904474E+02  0.93610175909E+01  0.47787270468E+02  0.19999997371E+02 0.  0.
        -12    1    1    2    0    0 -0.32095082738E+02 -0.27674904474E+02 -0.93610175909E+01  0.43400729532E+02  0.00000000000E+00 0.  1.
         11    1    3    3    0    0  0.56451005783E+01  0.62235364277E+01  0.67833991029E+01  0.10798799464E+02  0.51100000000E-03 0.  1.
        -11    1    3    3    0    0  0.97508843295E+01  0.75124837330E+01 -0.58906732233E+01  0.13646141884E+02  0.51100000000E-03 0. -1.
         12    1    3    3    0    0  0.16699097830E+02  0.13938884313E+02  0.84682917113E+01  0.23342329120E+02  0.00000000000E+00 0. -1.
</event>
<event>
 7    1  0.2110035E-010  0.4778727E+02  0.7816164E-02  0.1312668E+00
        -11   -1    0    0    0    0  0.00000000000E+00  0.00000000000E+00  0.45593999997E+02  0.45594000000E+02  0.51100000000E-03 0.  1.
         11   -1    0    0    0    0 -0.00000000000E+00 -0.00000000000E+00 -0.45593999997E+02  0.45594000000E+02  0.51100000000E-03 0. -1.
    9900012    2    1    2    0    0 -0.34877654610E+02 -0.31636866109E+01 -0.25635199479E+02  0.47787272398E+02  0.20000006171E+02 0.  0.
        -12    1    1    2    0    0  0.34877654610E+02  0.31636866109E+01  0.25635199479E+02  0.43400727602E+02  0.00000000000E+00 0.  1.
         11    1    3    3    0    0 -0.20639795014E+02 -0.10110664192E+02 -0.14584496128E+02  0.27220106469E+02  0.51100000000E-03 0. -1.
        -11    1    3    3    0    0 -0.35514414010E+01  0.17759374513E+01  0.50161272177E+00  0.40022875258E+01  0.51100000000E-03 0.  1.
         12    1    3    3    0    0 -0.10686418195E+02  0.51710401295E+01 -0.11552316073E+02  0.16564878403E+02  0.00000000000E+00 0. -1.
</event>
<event>
 7    1  0.2110035E-010  0.4778726E+02  0.7816164E-02  0.1312668E+00
        -11   -1    0    0    0    0  0.00000000000E+00  0.00000000000E+00  0.45593999997E+02  0.45594000000E+02  0.51100000000E-03 0. -1.
         11   -1    0    0    0    0 -0.00000000000E+00 -0.00000000000E+00 -0.45593999997E+02  0.45594000000E+02  0.51100000000E-03 0.  1.
    9900012    2    1    2    0    0 -0.50859534801E+01  0.42028404298E+02  0.95587842037E+01  0.47787262148E+02  0.19999959438E+02 0.  0.
        -12    1    1    2    0    0  0.50859534801E+01 -0.42028404298E+02 -0.95587842037E+01  0.43400737852E+02  0.00000000000E+00 0.  1.
         11    1    3    3    0    0 -0.51440043624E+01  0.81066301580E+01  0.45919850614E+01  0.10642582415E+02  0.51100000000E-03 0. -1.
        -11    1    3    3    0    0  0.32788174906E+01  0.31925009355E+02  0.69951843251E+01  0.32846452936E+02  0.51100000000E-03 0.  1.
        -12    1    3    3    0    0 -0.32207666083E+01  0.19967647851E+01 -0.20283851828E+01  0.42982267974E+01  0.00000000000E+00 0.  1.
</event>
<event>
 7    1  0.2110035E-010  0.4778727E+02  0.7816164E-02  0.1312668E+00
        -11   -1    0    0    0    0  0.00000000000E+00  0.00000000000E+00  0.45593999997E+02  0.45594000000E+02  0.51100000000E-03 0.  1.
         11   -1    0    0    0    0 -0.00000000000E+00 -0.00000000000E+00 -0.45593999997E+02  0.45594000000E+02  0.51100000000E-03 0. -1.
    9900012    2    1    2    0    0 -0.24794518562E+02 -0.83112820123E+01 -0.34637808778E+02  0.47787270094E+02  0.19999995668E+02 0.  0.
        -12    1    1    2    0    0  0.24794518562E+02  0.83112820123E+01  0.34637808778E+02  0.43400729906E+02  0.00000000000E+00 0.  1.
         11    1    3    3    0    0 -0.32437877744E+01  0.43098798268E+01 -0.65189388238E+01  0.84613111807E+01  0.51100000000E-03 0. -1.
        -11    1    3    3    0    0 -0.67329798212E+01 -0.60251524768E+01 -0.31836424006E+01  0.95797212296E+01  0.51100000000E-03 0.  1.
         12    1    3    3    0    0 -0.14817750967E+02 -0.65960093623E+01 -0.24935227553E+02  0.29746237684E+02  0.00000000000E+00 0. -1.
</event>
<event>
 7    1  0.2110035E-010  0.4778727E+02  0.7816164E-02  0.1312668E+00
        -11   -1    0    0    0    0  0.00000000000E+00  0.00000000000E+00  0.45593999997E+02  0.45594000000E+02  0.51100000000E-03 0.  1.
         11   -1    0    0    0    0 -0.00000000000E+00 -0.00000000000E+00 -0.45593999997E+02  0.45594000000E+02  0.51100000000E-03 0. -1.
    9900012    2    1    2    0    0 -0.15559557664E+02 -0.93946588520E+01 -0.39411471448E+02  0.47787268078E+02  0.19999986474E+02 0.  0.
        -12    1    1    2    0    0  0.15559557664E+02  0.93946588520E+01  0.39411471448E+02  0.43400731922E+02  0.00000000000E+00 0.  1.
         11    1    3    3    0    0 -0.11594485987E+02 -0.82587837444E+01 -0.22454475974E+02  0.26586521130E+02  0.51100000000E-03 0. -1.
        -11    1    3    3    0    0 -0.30738958242E+01 -0.12630645513E+01  0.80221929430E+00  0.34187312933E+01  0.51100000000E-03 0.  1.
         12    1    3    3    0    0 -0.89117585266E+00  0.12718944368E+00 -0.17759214768E+02  0.17782015655E+02  0.00000000000E+00 0. -1.
</event>
<event>
 7    1  0.2110035E-010  0.4778729E+02  0.7816164E-02  0.1312668E+00
        -11   -1    0    0    0    0  0.00000000000E+00  0.00000000000E+00  0.45593999997E+02  0.45594000000E+02  0.51100000000E-03 0.  1.
         11   -1    0    0    0    0 -0.00000000000E+00 -0.00000000000E+00 -0.45593999997E+02  0.45594000000E+02  0.51100000000E-03 0. -1.
    9900012    2    1    2    0    0 -0.82413594515E+01  0.37051912857E+02 -0.21044170219E+02  0.47787293183E+02  0.20000100939E+02 0.  0.
        -12    1    1    2    0    0  0.82413594515E+01 -0.37051912857E+02  0.21044170219E+02  0.43400706817E+02  0.00000000000E+00 0.  1.
         11    1    3    3    0    0 -0.11964123689E+02  0.12163147387E+02 -0.11881963521E+02  0.20790946765E+02  0.51100000000E-03 0.  1.
        -11    1    3    3    0    0  0.34948944858E-01  0.11491034460E+02 -0.38335077085E+01  0.12113664846E+02  0.51100000000E-03 0. -1.
        -12    1    3    3    0    0  0.36878152929E+01  0.13397731010E+02 -0.53286989898E+01  0.14882681572E+02  0.00000000000E+00 0.  1.
</event>
<event>
 7    1  0.2110035E-010  0.4778727E+02  0.7816164E-02  0.1312668E+00
        -11   -1    0    0    0    0  0.00000000000E+00  0.00000000000E+00  0.45593999997E+02  0.45594000000E+02  0.51100000000E-03 0.  1.
         11   -1    0    0    0    0 -0.00000000000E+00 -0.00000000000E+00 -0.45593999997E+02  0.45594000000E+02  0.51100000000E-03 0. -1.
    9900012    2    1    2    0    0  0.34606921935E+01 -0.25523769524E+02 -0.34931131034E+02  0.47787272857E+02  0.20000008266E+02 0.  0.
        -12    1    1    2    0    0 -0.34606921935E+01  0.25523769524E+02  0.34931131034E+02  0.43400727143E+02  0.00000000000E+00 0.  1.
         11    1    3    3    0    0  0.42388690901E+01 -0.75436831912E+01 -0.33046333655E+01  0.92626005632E+01  0.51100000000E-03 0. -1.
        -11    1    3    3    0    0  0.72657256483E+00 -0.43373377994E+01 -0.40135931310E+00  0.44160498681E+01  0.51100000000E-03 0.  1.
        -12    1    3    3    0    0 -0.15047494614E+01 -0.13642748534E+02 -0.31225138356E+02  0.34108622426E+02  0.00000000000E+00 0.  1.
</event>
<event>
 7    1  0.2110035E-010  0.4778727E+02  0.7816164E-02  0.1312668E+00
        -11   -1    0    0    0    0  0.00000000000E+00  0.00000000000E+00  0.45593999997E+02  0.45594000000E+02  0.51100000000E-03 0.  1.
         11   -1    0    0    0    0 -0.00000000000E+00 -0.00000000000E+00 -0.45593999997E+02  0.45594000000E+02  0.51100000000E-03 0. -1.
    9900012    2    1    2    0    0  0.18211752591E+02 -0.39103717844E+02  0.47806573523E+01  0.47787269979E+02  0.19999995143E+02 0.  0.
        -12    1    1    2    0    0 -0.18211752591E+02  0.39103717844E+02 -0.47806573523E+01  0.43400730021E+02  0.00000000000E+00 0.  1.
         11    1    3    3    0    0  0.71613933880E+01 -0.13570060051E+02  0.48112978288E+01  0.16080443779E+02  0.51100000000E-03 0. -1.
        -11    1    3    3    0    0  0.48897937057E+01 -0.95177955423E+01  0.73971975775E+01  0.13008345273E+02  0.51100000000E-03 0.  1.
         12    1    3    3    0    0  0.61605654969E+01 -0.16015862250E+02 -0.74278380540E+01  0.18698480928E+02  0.00000000000E+00 0. -1.
</event>
<event>
 7    1  0.2110035E-010  0.4778727E+02  0.7816164E-02  0.1312668E+00
        -11   -1    0    0    0    0  0.00000000000E+00  0.00000000000E+00  0.45593999997E+02  0.45594000000E+02  0.51100000000E-03 0.  1.
         11   -1    0    0    0    0 -0.00000000000E+00 -0.00000000000E+00 -0.45593999997E+02  0.45594000000E+02  0.51100000000E-03 0. -1.
    9900012    2    1    2    0    0  0.26684003640E+02 -0.81026254793E+01 -0.33255593465E+02  0.47787273202E+02  0.20000009835E+02 0.  0.
        -12    1    1    2    0    0 -0.26684003640E+02  0.81026254793E+01  0.33255593465E+02  0.43400726798E+02  0.00000000000E+00 0.  1.
         11    1    3    3    0    0  0.27871965593E+01  0.19727054978E+01  0.82440857443E+00  0.35127882657E+01  0.51100000000E-03 0. -1.
        -11    1    3    3    0    0  0.50431994467E+01 -0.76447818542E+01 -0.12817708772E+02  0.15753418952E+02  0.51100000000E-03 0.  1.
         12    1    3    3    0    0  0.18853607634E+02 -0.24305491230E+01 -0.21262293268E+02  0.28521065984E+02  0.00000000000E+00 0. -1.
</event>
<event>
 7    1  0.2110035E-010  0.4778727E+02  0.7816164E-02  0.1312668E+00
        -11   -1    0    0    0    0  0.00000000000E+00  0.00000000000E+00  0.45593999997E+02  0.45594000000E+02  0.51100000000E-03 0. -1.
         11   -1    0    0    0    0 -0.00000000000E+00 -0.00000000000E+00 -0.45593999997E+02  0.45594000000E+02  0.51100000000E-03 0.  1.
    9900012    2    1    2    0    0  0.12519204581E+02  0.14398358401E+02  0.38981797464E+02  0.47787265657E+02  0.19999975436E+02 0.  0.
        -12    1    1    2    0    0 -0.12519204581E+02 -0.14398358401E+02 -0.38981797464E+02  0.43400734343E+02  0.00000000000E+00 0.  1.
         11    1    3    3    0    0 -0.23260425977E+01  0.64962429933E+01  0.61024747667E+01  0.92115061599E+01  0.51100000000E-03 0.  1.
        -11    1    3    3    0    0  0.90628374466E+01  0.99664835029E+01  0.18025485181E+02  0.22502976075E+02  0.51100000000E-03 0. -1.
         12    1    3    3    0    0  0.57824097322E+01 -0.20643680953E+01  0.14853837517E+02  0.16072783422E+02  0.00000000000E+00 0. -1.
</event>
<event>
 7    1  0.2110035E-010  0.4778727E+02  0.7816164E-02  0.1312668E+00
        -11   -1    0    0    0    0  0.00000000000E+00  0.00000000000E+00  0.45593999997E+02  0.45594000000E+02  0.51100000000E-03 0. -1.
         11   -1    0    0    0    0 -0.00000000000E+00 -0.00000000000E+00 -0.45593999997E+02  0.45594000000E+02  0.51100000000E-03 0.  1.
    9900012    2    1    2    0    0 -0.35008351475E+02  0.14618168868E+02  0.21079554001E+02  0.47787272691E+02  0.20000007508E+02 0.  0.
        -12    1    1    2    0    0  0.35008351475E+02 -0.14618168868E+02 -0.21079554001E+02  0.43400727309E+02  0.00000000000E+00 0.  1.
         11    1    3    3    0    0 -0.25851642872E+02  0.97092930623E+01  0.15955702437E+02  0.31892981226E+02  0.51100000000E-03 0. -1.
        -11    1    3    3    0    0 -0.30984772667E+01 -0.68770913125E+00  0.67762616884E+01  0.74827286435E+01  0.51100000000E-03 0.  1.
         12    1    3    3    0    0 -0.60582313363E+01  0.55965849372E+01 -0.16524101244E+01  0.84115628217E+01  0.00000000000E+00 0. -1.
</event>
<event>
 7    1  0.2110035E-010  0.4778727E+02  0.7816164E-02  0.1312668E+00
        -11   -1    0    0    0    0  0.00000000000E+00  0.00000000000E+00  0.45593999997E+02  0.45594000000E+02  0.51100000000E-03 0. -1.
         11   -1    0    0    0    0 -0.00000000000E+00 -0.00000000000E+00 -0.45593999997E+02  0.45594000000E+02  0.51100000000E-03 0.  1.
    9900012    2    1    2    0    0 -0.26007228790E+02 -0.14821291422E+02  0.31425730777E+02  0.47787272084E+02  0.20000004740E+02 0.  0.
        -12    1    1    2    0    0  0.26007228790E+02  0.14821291422E+02 -0.31425730777E+02  0.43400727916E+02  0.00000000000E+00 0.  1.
         11    1    3    3    0    0 -0.10316257585E+01 -0.32574388263E+00 -0.15028797423E+01  0.18517582357E+01  0.51100000000E-03 0.  1.
        -11    1    3    3    0    0 -0.24125694950E+02 -0.94496687208E+01  0.22487318724E+02  0.34307796481E+02  0.51100000000E-03 0. -1.
         12    1    3    3    0    0 -0.84990808111E+00 -0.50458788187E+01  0.10441291796E+02  0.11627717367E+02  0.00000000000E+00 0. -1.
</event>
<event>
 7    1  0.2110035E-010  0.4778723E+02  0.7816164E-02  0.1312668E+00
        -11   -1    0    0    0    0  0.00000000000E+00  0.00000000000E+00  0.45593999997E+02  0.45594000000E+02  0.51100000000E-03 0. -1.
         11   -1    0    0    0    0 -0.00000000000E+00 -0.00000000000E+00 -0.45593999997E+02  0.45594000000E+02  0.51100000000E-03 0.  1.
    9900012    2    1    2    0    0 -0.33171859699E+02  0.27986159078E+02 -0.17107776273E+00  0.47787232226E+02  0.19999823009E+02 0.  0.
        -12    1    1    2    0    0  0.33171859699E+02 -0.27986159078E+02  0.17107776273E+00  0.43400767774E+02  0.00000000000E+00 0.  1.
         11    1    3    3    0    0 -0.11102498631E+02  0.14803531421E+02  0.36855670917E+01  0.18867787984E+02  0.51100000000E-03 0.  1.
        -11    1    3    3    0    0  0.34176371560E+00 -0.11739858900E+01 -0.18646183308E+01  0.22297639085E+01  0.51100000000E-03 0. -1.
         12    1    3    3    0    0 -0.22411124783E+02  0.14356613547E+02 -0.19920265237E+01  0.26689680333E+02  0.00000000000E+00 0. -1.
</event>
<event>
 7    1  0.2110035E-010  0.4778727E+02  0.7816164E-02  0.1312668E+00
        -11   -1    0    0    0    0  0.00000000000E+00  0.00000000000E+00  0.45593999997E+02  0.45594000000E+02  0.51100000000E-03 0.  1.
         11   -1    0    0    0    0 -0.00000000000E+00 -0.00000000000E+00 -0.45593999997E+02  0.45594000000E+02  0.51100000000E-03 0. -1.
    9900012    2    1    2    0    0 -0.29778508451E+02 -0.42655702502E+01 -0.31283682272E+02  0.47787269227E+02  0.19999991714E+02 0.  0.
        -12    1    1    2    0    0  0.29778508451E+02  0.42655702502E+01  0.31283682272E+02  0.43400730773E+02  0.00000000000E+00 0.  1.
         11    1    3    3    0    0 -0.93807677265E+01 -0.63322445898E+01 -0.89420127113E+01  0.14424136587E+02  0.51100000000E-03 0. -1.
        -11    1    3    3    0    0 -0.25942977139E+01  0.10295728233E+01 -0.12872194036E+02  0.13171324170E+02  0.51100000000E-03 0.  1.
        -12    1    3    3    0    0 -0.17803443010E+02  0.10371015164E+01 -0.94694755249E+01  0.20191808470E+02  0.00000000000E+00 0.  1.
</event>
<event>
 7    1  0.2110035E-010  0.4778727E+02  0.7816164E-02  0.1312668E+00
        -11   -1    0    0    0    0  0.00000000000E+00  0.00000000000E+00  0.45593999997E+02  0.45594000000E+02  0.51100000000E-03 0. -1.
         11   -1    0    0    0    0 -0.00000000000E+00 -0.00000000000E+00 -0.45593999997E+02  0.45594000000E+02  0.51100000000E-03 0.  1.
    9900012    2    1    2    0    0 -0.42391236156E+02 -0.83111131281E+01 -0.41870991018E+01  0.47787270707E+02  0.19999998463E+02 0.  0.
        -12    1    1    2    0    0  0.42391236156E+02  0.83111131281E+01  0.41870991018E+01  0.43400729293E+02  0.00000000000E+00 0.  1.
         11    1    3    3    0    0 -0.45084394201E+01  0.78624915101E+00  0.43228482966E+01  0.62953340967E+01  0.51100000000E-03 0. -1.
        -11    1    3    3    0    0 -0.75676410162E+01 -0.47116744795E+01 -0.60269226029E+01  0.10760709237E+02  0.51100000000E-03 0.  1.
         12    1    3    3    0    0 -0.30315155720E+02 -0.43856877996E+01 -0.24830247955E+01  0.30731227374E+02  0.00000000000E+00 0. -1.
</event>
<event>
 7    1  0.2110035E-010  0.4778727E+02  0.7816164E-02  0.1312668E+00
        -11   -1    0    0    0    0  0.00000000000E+00  0.00000000000E+00  0.45593999997E+02  0.45594000000E+02  0.51100000000E-03 0.  1.
         11   -1    0    0    0    0 -0.00000000000E+00 -0.00000000000E+00 -0.45593999997E+02  0.45594000000E+02  0.51100000000E-03 0. -1.
    9900012    2    1    2    0    0 -0.50303753924E+01 -0.35326846317E+02 -0.24704907254E+02  0.47787272014E+02  0.20000004422E+02 0.  0.
        -12    1    1    2    0    0  0.50303753924E+01  0.35326846317E+02  0.24704907254E+02  0.43400727986E+02  0.00000000000E+00 0.  1.
         11    1    3    3    0    0 -0.27514236841E+01 -0.28092201334E+01  0.17105953665E+01  0.42881449155E+01  0.51100000000E-03 0. -1.
        -11    1    3    3    0    0 -0.11215181868E+00 -0.10984886351E+01  0.11870607291E+01  0.16212244593E+01  0.51100000000E-03 0.  1.
         12    1    3    3    0    0 -0.21667998897E+01 -0.31419137548E+02 -0.27602563349E+02  0.41877902639E+02  0.00000000000E+00 0. -1.
</event>
<event>
 7    1  0.2110035E-010  0.4778727E+02  0.7816164E-02  0.1312668E+00
        -11   -1    0    0    0    0  0.00000000000E+00  0.00000000000E+00  0.45593999997E+02  0.45594000000E+02  0.51100000000E-03 0.  1.
         11   -1    0    0    0    0 -0.00000000000E+00 -0.00000000000E+00 -0.45593999997E+02  0.45594000000E+02  0.51100000000E-03 0. -1.
    9900012    2    1    2    0    0  0.39753450869E+02 -0.11537868295E+02  0.13044691261E+02  0.47787271540E+02  0.20000002258E+02 0.  0.
        -12    1    1    2    0    0 -0.39753450869E+02  0.11537868295E+02 -0.13044691261E+02  0.43400728460E+02  0.00000000000E+00 0.  1.
         11    1    3    3    0    0  0.13071273436E+02 -0.58964338451E+01  0.10273156951E+01  0.14376421639E+02  0.51100000000E-03 0. -1.
        -11    1    3    3    0    0  0.18141618104E+02  0.62211404633E+00  0.10777100619E+01  0.18184245725E+02  0.51100000000E-03 0.  1.
        -12    1    3    3    0    0  0.85405593282E+01 -0.62635484966E+01  0.10939665504E+02  0.15226604176E+02  0.00000000000E+00 0.  1.
</event>
<event>
 7    1  0.2110035E-010  0.4778727E+02  0.7816164E-02  0.1312668E+00
        -11   -1    0    0    0    0  0.00000000000E+00  0.00000000000E+00  0.45593999997E+02  0.45594000000E+02  0.51100000000E-03 0. -1.
         11   -1    0    0    0    0 -0.00000000000E+00 -0.00000000000E+00 -0.45593999997E+02  0.45594000000E+02  0.51100000000E-03 0.  1.
    9900012    2    1    2    0    0  0.33670366915E+01  0.41575922223E+02 -0.11988701085E+02  0.47787271913E+02  0.20000003961E+02 0.  0.
        -12    1    1    2    0    0 -0.33670366915E+01 -0.41575922223E+02  0.11988701085E+02  0.43400728087E+02  0.00000000000E+00 0.  1.
         11    1    3    3    0    0  0.37870031644E+01  0.37712888750E+02 -0.11108102935E+02  0.39496750777E+02  0.51100000000E-03 0. -1.
        -11    1    3    3    0    0 -0.36572796610E+01  0.27819603077E+01 -0.14751294997E+01  0.48260755252E+01  0.51100000000E-03 0.  1.
        -12    1    3    3    0    0  0.32373131882E+01  0.10810731645E+01  0.59453134959E+00  0.34644456109E+01  0.00000000000E+00 0.  1.
</event>
<event>
 7    1  0.2148297E-010  0.4778727E+02  0.7816164E-02  0.1312668E+00
        -11   -1    0    0    0    0  0.00000000000E+00  0.00000000000E+00  0.45593999997E+02  0.45594000000E+02  0.51100000000E-03 0. -1.
         11   -1    0    0    0    0 -0.00000000000E+00 -0.00000000000E+00 -0.45593999997E+02  0.45594000000E+02  0.51100000000E-03 0.  1.
    9900012    2    1    2    0    0 -0.33674270209E+02  0.27123250226E+02 -0.37411096858E+01  0.47787273294E+02  0.20000010256E+02 0.  0.
        -12    1    1    2    0    0  0.33674270209E+02 -0.27123250226E+02  0.37411096858E+01  0.43400726706E+02  0.00000000000E+00 0.  1.
         11    1    3    3    0    0 -0.12521756322E+02  0.17201702589E+02 -0.62742122045E+01  0.22182396002E+02  0.51100000000E-03 0. -1.
        -11    1    3    3    0    0 -0.18619061811E+02  0.11846077594E+02  0.33481456303E+01  0.22320598032E+02  0.51100000000E-03 0.  1.
        -12    1    3    3    0    0 -0.25334520761E+01 -0.19245299574E+01 -0.81504311154E+00  0.32842792592E+01  0.00000000000E+00 0.  1.
</event>
<event>
 7    1  0.2110035E-010  0.4778727E+02  0.7816164E-02  0.1312668E+00
        -11   -1    0    0    0    0  0.00000000000E+00  0.00000000000E+00  0.45593999997E+02  0.45594000000E+02  0.51100000000E-03 0. -1.
         11   -1    0    0    0    0 -0.00000000000E+00 -0.00000000000E+00 -0.45593999997E+02  0.45594000000E+02  0.51100000000E-03 0.  1.
    9900012    2    1    2    0    0  0.13395488419E+02  0.26359317122E+02  0.31770590075E+02  0.47787273015E+02  0.20000008983E+02 0.  0.
        -12    1    1    2    0    0 -0.13395488419E+02 -0.26359317122E+02 -0.31770590075E+02  0.43400726985E+02  0.00000000000E+00 0.  1.
         11    1    3    3    0    0  0.15776382258E+02  0.14089946119E+02  0.25306126302E+02  0.32982129214E+02  0.51100000000E-03 0. -1.
        -11    1    3    3    0    0  0.12428074296E+01  0.35206493404E+01  0.27330224749E+01  0.46269811102E+01  0.51100000000E-03 0.  1.
         12    1    3    3    0    0 -0.36237012679E+01  0.87487216621E+01  0.37314412981E+01  0.10178162691E+02  0.00000000000E+00 0. -1.
</event>
<event>
 7    1  0.2110035E-010  0.4778727E+02  0.7816164E-02  0.1312668E+00
        -11   -1    0    0    0    0  0.00000000000E+00  0.00000000000E+00  0.45593999997E+02  0.45594000000E+02  0.51100000000E-03 0.  1.
         11   -1    0    0    0    0 -0.00000000000E+00 -0.00000000000E+00 -0.45593999997E+02  0.45594000000E+02  0.51100000000E-03 0. -1.
    9900012    2    1    2    0    0  0.81061527577E+01  0.27462234038E+02 -0.32615019970E+02  0.47787267996E+02  0.19999986100E+02 0.  0.
        -12    1    1    2    0    0 -0.81061527577E+01 -0.27462234038E+02  0.32615019970E+02  0.43400732004E+02  0.00000000000E+00 0.  1.
         11    1    3    3    0    0  0.36629817571E+01  0.14973993143E+02 -0.75549155879E+01  0.17167255337E+02  0.51100000000E-03 0. -1.
        -11    1    3    3    0    0 -0.17098119306E+01  0.10933167026E+02 -0.17973752463E+02  0.21107187779E+02  0.51100000000E-03 0.  1.
        -12    1    3    3    0    0  0.61529829312E+01  0.15550738688E+01 -0.70863519187E+01  0.95128248804E+01  0.00000000000E+00 0.  1.
</event>
<event>
 7    1  0.2110035E-010  0.4778727E+02  0.7816164E-02  0.1312668E+00
        -11   -1    0    0    0    0  0.00000000000E+00  0.00000000000E+00  0.45593999997E+02  0.45594000000E+02  0.51100000000E-03 0. -1.
         11   -1    0    0    0    0 -0.00000000000E+00 -0.00000000000E+00 -0.45593999997E+02  0.45594000000E+02  0.51100000000E-03 0.  1.
    9900012    2    1    2    0    0 -0.39172418562E+02 -0.15745840892E+02 -0.10060487983E+02  0.47787270745E+02  0.19999998635E+02 0.  0.
        -12    1    1    2    0    0  0.39172418562E+02  0.15745840892E+02  0.10060487983E+02  0.43400729255E+02  0.00000000000E+00 0.  1.
         11    1    3    3    0    0 -0.17892973051E+02  0.23643796664E+00 -0.15004778145E+01  0.17957333361E+02  0.51100000000E-03 0. -1.
        -11    1    3    3    0    0  0.17530421721E+00 -0.25937282481E+01 -0.29380852840E+01  0.39230731819E+01  0.51100000000E-03 0.  1.
        -12    1    3    3    0    0 -0.21454749728E+02 -0.13388550611E+02 -0.56219248847E+01  0.25906864202E+02  0.00000000000E+00 0.  1.
</event>
<event>
 7    1  0.2110035E-010  0.4778727E+02  0.7816164E-02  0.1312668E+00
        -11   -1    0    0    0    0  0.00000000000E+00  0.00000000000E+00  0.45593999997E+02  0.45594000000E+02  0.51100000000E-03 0.  1.
         11   -1    0    0    0    0 -0.00000000000E+00 -0.00000000000E+00 -0.45593999997E+02  0.45594000000E+02  0.51100000000E-03 0. -1.
    9900012    2    1    2    0    0  0.36442117808E+02 -0.20597598241E+02 -0.11460118936E+02  0.47787270401E+02  0.19999997069E+02 0.  0.
        -12    1    1    2    0    0 -0.36442117808E+02  0.20597598241E+02  0.11460118936E+02  0.43400729599E+02  0.00000000000E+00 0.  1.
         11    1    3    3    0    0  0.18295610199E+02 -0.10028683451E+02  0.29409708815E+01  0.21070195877E+02  0.51100000000E-03 0. -1.
        -11    1    3    3    0    0 -0.54747254705E+00 -0.69617924847E+00 -0.20489170747E+01  0.22321409400E+01  0.51100000000E-03 0.  1.
         12    1    3    3    0    0  0.18693980157E+02 -0.98727355411E+01 -0.12352172743E+02  0.24484933585E+02  0.00000000000E+00 0. -1.
</event>
<event>
 7    1  0.2110035E-010  0.4778732E+02  0.7816164E-02  0.1312668E+00
        -11   -1    0    0    0    0  0.00000000000E+00  0.00000000000E+00  0.45593999997E+02  0.45594000000E+02  0.51100000000E-03 0.  1.
         11   -1    0    0    0    0 -0.00000000000E+00 -0.00000000000E+00 -0.45593999997E+02  0.45594000000E+02  0.51100000000E-03 0. -1.
    9900012    2    1    2    0    0 -0.29688275588E+01 -0.21012020844E+02 -0.37858945629E+02  0.47787323495E+02  0.20000239140E+02 0.  0.
        -12    1    1    2    0    0  0.29688275588E+01  0.21012020844E+02  0.37858945629E+02  0.43400676505E+02  0.00000000000E+00 0.  1.
         11    1    3    3    0    0  0.51148395666E+00 -0.90633928455E+01 -0.12022433322E+02  0.15064714035E+02  0.51100000000E-03 0. -1.
        -11    1    3    3    0    0 -0.36259014651E+01 -0.14221126478E+02 -0.12754512514E+02  0.19443898515E+02  0.51100000000E-03 0.  1.
         12    1    3    3    0    0  0.14558994961E+00  0.22724984797E+01 -0.13081999793E+02  0.13278710944E+02  0.00000000000E+00 0. -1.
</event>
<event>
 7    1  0.2110035E-010  0.4778726E+02  0.7816164E-02  0.1312668E+00
        -11   -1    0    0    0    0  0.00000000000E+00  0.00000000000E+00  0.45593999997E+02  0.45594000000E+02  0.51100000000E-03 0.  1.
         11   -1    0    0    0    0 -0.00000000000E+00 -0.00000000000E+00 -0.45593999997E+02  0.45594000000E+02  0.51100000000E-03 0. -1.
    9900012    2    1    2    0    0  0.20966651966E+02 -0.15487070267E+02 -0.34701219945E+02  0.47787256852E+02  0.19999935291E+02 0.  0.
        -12    1    1    2    0    0 -0.20966651966E+02  0.15487070267E+02  0.34701219945E+02  0.43400743148E+02  0.00000000000E+00 0.  1.
         11    1    3    3    0    0  0.18154930473E+02 -0.35358466657E+01 -0.20400815768E+02  0.27537192964E+02  0.51100000000E-03 0. -1.
        -11    1    3    3    0    0 -0.16142610122E+01 -0.48221349892E+00 -0.35075363824E+01  0.38911669469E+01  0.51100000000E-03 0.  1.
        -12    1    3    3    0    0  0.44259825056E+01 -0.11469010103E+02 -0.10792867795E+02  0.16358896941E+02  0.00000000000E+00 0.  1.
</event>
<event>
 7    1  0.2110035E-010  0.4778727E+02  0.7816164E-02  0.1312668E+00
        -11   -1    0    0    0    0  0.00000000000E+00  0.00000000000E+00  0.45593999997E+02  0.45594000000E+02  0.51100000000E-03 0. -1.
         11   -1    0    0    0    0 -0.00000000000E+00 -0.00000000000E+00 -0.45593999997E+02  0.45594000000E+02  0.51100000000E-03 0.  1.
    9900012    2    1    2    0    0  0.10107997688E+02  0.38779160949E+02  0.16662183419E+02  0.47787270773E+02  0.19999998763E+02 0.  0.
        -12    1    1    2    0    0 -0.10107997688E+02 -0.38779160949E+02 -0.16662183419E+02  0.43400729227E+02  0.00000000000E+00 0.  1.
         11    1    3    3    0    0 -0.49927387090E+00  0.12823268190E+02  0.43508900100E+01  0.13550488021E+02  0.51100000000E-03 0. -1.
        -11    1    3    3    0    0  0.37670071946E+01  0.22358747753E+02  0.42489829347E+01  0.23068545696E+02  0.51100000000E-03 0.  1.
         12    1    3    3    0    0  0.68402643641E+01  0.35971450060E+01  0.80623104743E+01  0.11168237056E+02  0.00000000000E+00 0. -1.
</event>
<event>
 7    1  0.2110035E-010  0.4778727E+02  0.7816164E-02  0.1312668E+00
        -11   -1    0    0    0    0  0.00000000000E+00  0.00000000000E+00  0.45593999997E+02  0.45594000000E+02  0.51100000000E-03 0.  1.
         11   -1    0    0    0    0 -0.00000000000E+00 -0.00000000000E+00 -0.45593999997E+02  0.45594000000E+02  0.51100000000E-03 0. -1.
    9900012    2    1    2    0    0  0.67427970847E+01  0.22979494067E+02 -0.36195312286E+02  0.47787273144E+02  0.20000009573E+02 0.  0.
        -12    1    1    2    0    0 -0.67427970847E+01 -0.22979494067E+02  0.36195312286E+02  0.43400726856E+02  0.00000000000E+00 0.  1.
         11    1    3    3    0    0 -0.33845856873E+01  0.72822185918E+01 -0.10807644835E+02  0.13464446332E+02  0.51100000000E-03 0. -1.
        -11    1    3    3    0    0 -0.11609691429E+01 -0.16815371502E+01 -0.42796807466E+01  0.47424765780E+01  0.51100000000E-03 0.  1.
         12    1    3    3    0    0  0.11288351915E+02  0.17378812626E+02 -0.21107986705E+02  0.29580350234E+02  0.00000000000E+00 0. -1.
</event>
<event>
 7    1  0.2110035E-010  0.4778728E+02  0.7816164E-02  0.1312668E+00
        -11   -1    0    0    0    0  0.00000000000E+00  0.00000000000E+00  0.45593999997E+02  0.45594000000E+02  0.51100000000E-03 0.  1.
         11   -1    0    0    0    0 -0.00000000000E+00 -0.00000000000E+00 -0.45593999997E+02  0.45594000000E+02  0.51100000000E-03 0. -1.
    9900012    2    1    2    0    0 -0.27698555813E+02 -0.29074330757E+02 -0.16464982454E+02  0.47787281684E+02  0.20000048512E+02 0.  0.
        -12    1    1    2    0    0  0.27698555813E+02  0.29074330757E+02  0.16464982454E+02  0.43400718316E+02  0.00000000000E+00 0.  1.
         11    1    3    3    0    0  0.46490674138E+00 -0.19976848696E+01 -0.49082357724E+01  0.53195546595E+01  0.51100000000E-03 0. -1.
        -11    1    3    3    0    0 -0.90707123321E+01 -0.15927943428E+02 -0.22049099956E+01  0.18461820940E+02  0.51100000000E-03 0.  1.
         12    1    3    3    0    0 -0.19092750222E+02 -0.11148702459E+02 -0.93518366865E+01  0.24005906085E+02  0.00000000000E+00 0. -1.
</event>
<event>
 7    1  0.2110035E-010  0.4778727E+02  0.7816164E-02  0.1312668E+00
        -11   -1    0    0    0    0  0.00000000000E+00  0.00000000000E+00  0.45593999997E+02  0.45594000000E+02  0.51100000000E-03 0. -1.
         11   -1    0    0    0    0 -0.00000000000E+00 -0.00000000000E+00 -0.45593999997E+02  0.45594000000E+02  0.51100000000E-03 0.  1.
    9900012    2    1    2    0    0 -0.43388595337E+02 -0.78408339197E+00 -0.66199651884E+00  0.47787271533E+02  0.20000002226E+02 0.  0.
        -12    1    1    2    0    0  0.43388595337E+02  0.78408339197E+00  0.66199651884E+00  0.43400728467E+02  0.00000000000E+00 0.  1.
         11    1    3    3    0    0 -0.16915872527E+02  0.69040084803E+01  0.26292953604E+01  0.18458745104E+02  0.51100000000E-03 0. -1.
        -11    1    3    3    0    0 -0.57668945798E+01 -0.49188234853E+01  0.18766923461E+01  0.78085768228E+01  0.51100000000E-03 0.  1.
        -12    1    3    3    0    0 -0.20705828230E+02 -0.27692683870E+01 -0.51679842254E+01  0.21519949606E+02  0.00000000000E+00 0.  1.
</event>
<event>
 7    1  0.2110035E-010  0.4778728E+02  0.7816164E-02  0.1312668E+00
        -11   -1    0    0    0    0  0.00000000000E+00  0.00000000000E+00  0.45593999997E+02  0.45594000000E+02  0.51100000000E-03 0. -1.
         11   -1    0    0    0    0 -0.00000000000E+00 -0.00000000000E+00 -0.45593999997E+02  0.45594000000E+02  0.51100000000E-03 0.  1.
    9900012    2    1    2    0    0  0.28936579406E+02  0.19834905313E+01  0.32285644777E+02  0.47787277412E+02  0.20000029034E+02 0.  0.
        -12    1    1    2    0    0 -0.28936579406E+02 -0.19834905313E+01 -0.32285644777E+02  0.43400722588E+02  0.00000000000E+00 0.  1.
         11    1    3    3    0    0  0.15693404744E+02  0.28226604446E+00  0.15512654470E+02  0.22068191488E+02  0.51100000000E-03 0. -1.
        -11    1    3    3    0    0  0.87565314926E+00  0.62078877103E+01  0.44515496203E+01  0.76890137563E+01  0.51100000000E-03 0.  1.
        -12    1    3    3    0    0  0.12367521513E+02 -0.45066632235E+01  0.12321440687E+02  0.18030072168E+02  0.00000000000E+00 0.  1.
</event>
<event>
 7    1  0.2110035E-010  0.4778727E+02  0.7816164E-02  0.1312668E+00
        -11   -1    0    0    0    0  0.00000000000E+00  0.00000000000E+00  0.45593999997E+02  0.45594000000E+02  0.51100000000E-03 0. -1.
         11   -1    0    0    0    0 -0.00000000000E+00 -0.00000000000E+00 -0.45593999997E+02  0.45594000000E+02  0.51100000000E-03 0.  1.
    9900012    2    1    2    0    0 -0.98194176405E+01  0.41728288250E+02  0.67788212986E+01  0.47787269347E+02  0.19999992260E+02 0.  0.
        -12    1    1    2    0    0  0.98194176405E+01 -0.41728288250E+02 -0.67788212986E+01  0.43400730653E+02  0.00000000000E+00 0.  1.
         11    1    3    3    0    0 -0.12058121536E+02  0.24256159842E+02  0.39448316270E+01  0.27373733434E+02  0.51100000000E-03 0. -1.
        -11    1    3    3    0    0 -0.31132128049E+01  0.30138140214E+01  0.24796980692E+01  0.49924013961E+01  0.51100000000E-03 0.  1.
        -12    1    3    3    0    0  0.53519167007E+01  0.14458314386E+02  0.35429160244E+00  0.15421134517E+02  0.00000000000E+00 0.  1.
</event>
<event>
 7    1  0.2110035E-010  0.4778726E+02  0.7816164E-02  0.1312668E+00
        -11   -1    0    0    0    0  0.00000000000E+00  0.00000000000E+00  0.45593999997E+02  0.45594000000E+02  0.51100000000E-03 0.  1.
         11   -1    0    0    0    0 -0.00000000000E+00 -0.00000000000E+00 -0.45593999997E+02  0.45594000000E+02  0.51100000000E-03 0. -1.
    9900012    2    1    2    0    0 -0.35740767185E+02  0.24337265150E+02 -0.37308430302E+01  0.47787261485E+02  0.19999956415E+02 0.  0.
        -12    1    1    2    0    0  0.35740767185E+02 -0.24337265150E+02  0.37308430302E+01  0.43400738515E+02  0.00000000000E+00 0.  1.
         11    1    3    3    0    0 -0.10429127355E+01 -0.26679351774E+00  0.20957863158E+01  0.23560913178E+01  0.51100000000E-03 0.  1.
        -11    1    3    3    0    0 -0.18249581151E+02  0.14627467937E+02 -0.10495594906E+02  0.25635279268E+02  0.51100000000E-03 0. -1.
         12    1    3    3    0    0 -0.16448273298E+02  0.99765907304E+01  0.46689655604E+01  0.19795890899E+02  0.00000000000E+00 0. -1.
</event>
<event>
 7    1  0.2110035E-010  0.4778728E+02  0.7816164E-02  0.1312668E+00
        -11   -1    0    0    0    0  0.00000000000E+00  0.00000000000E+00  0.45593999997E+02  0.45594000000E+02  0.51100000000E-03 0.  1.
         11   -1    0    0    0    0 -0.00000000000E+00 -0.00000000000E+00 -0.45593999997E+02  0.45594000000E+02  0.51100000000E-03 0. -1.
    9900012    2    1    2    0    0 -0.26518199196E+02  0.31684222904E+02  0.13286003486E+02  0.47787276984E+02  0.20000027082E+02 0.  0.
        -12    1    1    2    0    0  0.26518199196E+02 -0.31684222904E+02 -0.13286003486E+02  0.43400723016E+02  0.00000000000E+00 0.  1.
         11    1    3    3    0    0 -0.40888530810E+01 -0.13398634507E+01  0.11665548032E+00  0.43043654988E+01  0.51100000000E-03 0. -1.
        -11    1    3    3    0    0 -0.40883504973E+01  0.66990520138E+01  0.75886189508E+01  0.10916915568E+02  0.51100000000E-03 0.  1.
         12    1    3    3    0    0 -0.18340995618E+02  0.26325034341E+02  0.55807290551E+01  0.32565995918E+02  0.00000000000E+00 0. -1.
</event>
<event>
 7    1  0.2110035E-010  0.4778728E+02  0.7816164E-02  0.1312668E+00
        -11   -1    0    0    0    0  0.00000000000E+00  0.00000000000E+00  0.45593999997E+02  0.45594000000E+02  0.51100000000E-03 0.  1.
         11   -1    0    0    0    0 -0.00000000000E+00 -0.00000000000E+00 -0.45593999997E+02  0.45594000000E+02  0.51100000000E-03 0. -1.
    9900012    2    1    2    0    0 -0.16413377917E+01  0.36763306424E+02 -0.23008438429E+02  0.47787275030E+02  0.20000018171E+02 0.  0.
        -12    1    1    2    0    0  0.16413377917E+01 -0.36763306424E+02  0.23008438429E+02  0.43400724970E+02  0.00000000000E+00 0.  1.
         11    1    3    3    0    0 -0.28907623406E+01  0.13318167044E+02 -0.16990338334E+01  0.13733783038E+02  0.51100000000E-03 0. -1.
        -11    1    3    3    0    0  0.28975191687E+01  0.13971375395E+02 -0.19667520337E+02  0.24298277804E+02  0.51100000000E-03 0.  1.
        -12    1    3    3    0    0 -0.16480946198E+01  0.94737639862E+01 -0.16418842582E+01  0.97552141883E+01  0.00000000000E+00 0.  1.
</event>
<event>
 7    1  0.2110035E-010  0.4778727E+02  0.7816164E-02  0.1312668E+00
        -11   -1    0    0    0    0  0.00000000000E+00  0.00000000000E+00  0.45593999997E+02  0.45594000000E+02  0.51100000000E-03 0.  1.
         11   -1    0    0    0    0 -0.00000000000E+00 -0.00000000000E+00 -0.45593999997E+02  0.45594000000E+02  0.51100000000E-03 0. -1.
    9900012    2    1    2    0    0 -0.15802408654E+02  0.10230165568E+02 -0.39105634817E+02  0.47787273263E+02  0.20000010117E+02 0.  0.
        -12    1    1    2    0    0  0.15802408654E+02 -0.10230165568E+02  0.39105634817E+02  0.43400726737E+02  0.00000000000E+00 0.  1.
         11    1    3    3    0    0  0.48300988656E+00  0.48723643897E+01 -0.83395108397E+01  0.96706088021E+01  0.51100000000E-03 0. -1.
        -11    1    3    3    0    0 -0.84818568494E+01 -0.11663753778E+00 -0.34013960906E+01  0.91392010349E+01  0.51100000000E-03 0.  1.
         12    1    3    3    0    0 -0.78035616916E+01  0.54744387161E+01 -0.27364727887E+02  0.28977463427E+02  0.00000000000E+00 0. -1.
</event>
<event>
 7    1  0.2110035E-010  0.4778726E+02  0.7816164E-02  0.1312668E+00
        -11   -1    0    0    0    0  0.00000000000E+00  0.00000000000E+00  0.45593999997E+02  0.45594000000E+02  0.51100000000E-03 0. -1.
         11   -1    0    0    0    0 -0.00000000000E+00 -0.00000000000E+00 -0.45593999997E+02  0.45594000000E+02  0.51100000000E-03 0.  1.
    9900012    2    1    2    0    0  0.32319990579E+02  0.27856962410E+02  0.79392542576E+01  0.47787263786E+02  0.19999966906E+02 0.  0.
        -12    1    1    2    0    0 -0.32319990579E+02 -0.27856962410E+02 -0.79392542576E+01  0.43400736214E+02  0.00000000000E+00 0.  1.
         11    1    3    3    0    0  0.16475343470E+02  0.11088250388E+02  0.65723746065E+01  0.20918469049E+02  0.51100000000E-03 0. -1.
        -11    1    3    3    0    0  0.28777163722E+01  0.64201517138E+01 -0.54833202243E+01  0.89200000275E+01  0.51100000000E-03 0.  1.
        -12    1    3    3    0    0  0.12966930737E+02  0.10348560308E+02  0.68501998754E+01  0.17948794710E+02  0.00000000000E+00 0.  1.
</event>
<event>
 7    1  0.2110035E-010  0.4778728E+02  0.7816164E-02  0.1312668E+00
        -11   -1    0    0    0    0  0.00000000000E+00  0.00000000000E+00  0.45593999997E+02  0.45594000000E+02  0.51100000000E-03 0. -1.
         11   -1    0    0    0    0 -0.00000000000E+00 -0.00000000000E+00 -0.45593999997E+02  0.45594000000E+02  0.51100000000E-03 0.  1.
    9900012    2    1    2    0    0  0.20645483126E+02 -0.12133007011E+02  0.36196367245E+02  0.47787276107E+02  0.20000023082E+02 0.  0.
        -12    1    1    2    0    0 -0.20645483126E+02  0.12133007011E+02 -0.36196367245E+02  0.43400723893E+02  0.00000000000E+00 0.  1.
         11    1    3    3    0    0  0.12794328156E-01 -0.39101762624E+01  0.48687219348E+01  0.62445252532E+01  0.51100000000E-03 0. -1.
        -11    1    3    3    0    0  0.17968855857E+02 -0.62506346238E+00  0.15307900226E+02  0.23613604018E+02  0.51100000000E-03 0.  1.
        -12    1    3    3    0    0  0.26638329416E+01 -0.75977672866E+01  0.16019745085E+02  0.17929146836E+02  0.00000000000E+00 0.  1.
</event>
<event>
 7    1  0.2110035E-010  0.4778727E+02  0.7816164E-02  0.1312668E+00
        -11   -1    0    0    0    0  0.00000000000E+00  0.00000000000E+00  0.45593999997E+02  0.45594000000E+02  0.51100000000E-03 0.  1.
         11   -1    0    0    0    0 -0.00000000000E+00 -0.00000000000E+00 -0.45593999997E+02  0.45594000000E+02  0.51100000000E-03 0. -1.
    9900012    2    1    2    0    0 -0.34891964452E+01  0.41224575066E+02 -0.13114230419E+02  0.47787272809E+02  0.20000008046E+02 0.  0.
        -12    1    1    2    0    0  0.34891964452E+01 -0.41224575066E+02  0.13114230419E+02  0.43400727191E+02  0.00000000000E+00 0.  1.
         11    1    3    3    0    0  0.42895731085E+01  0.12087730067E+02 -0.27013962005E+01  0.13107677038E+02  0.51100000000E-03 0. -1.
        -11    1    3    3    0    0  0.29148111581E+01  0.27234319683E+01  0.77919730970E+00  0.40645238936E+01  0.51100000000E-03 0.  1.
         12    1    3    3    0    0 -0.10693580712E+02  0.26413413030E+02 -0.11192031529E+02  0.30615071878E+02  0.00000000000E+00 0. -1.
</event>
<event>
 7    1  0.2110035E-010  0.4778727E+02  0.7816164E-02  0.1312668E+00
        -11   -1    0    0    0    0  0.00000000000E+00  0.00000000000E+00  0.45593999997E+02  0.45594000000E+02  0.51100000000E-03 0.  1.
         11   -1    0    0    0    0 -0.00000000000E+00 -0.00000000000E+00 -0.45593999997E+02  0.45594000000E+02  0.51100000000E-03 0. -1.
    9900012    2    1    2    0    0  0.17667772910E+02 -0.36794303293E+02 -0.14753051335E+02  0.47787268691E+02  0.19999989270E+02 0.  0.
        -12    1    1    2    0    0 -0.17667772910E+02  0.36794303293E+02  0.14753051335E+02  0.43400731309E+02  0.00000000000E+00 0.  1.
         11    1    3    3    0    0  0.10504439374E+02 -0.18961312692E+02 -0.74093981314E+01  0.22907941996E+02  0.51100000000E-03 0. -1.
        -11    1    3    3    0    0  0.13306745146E+01  0.10396675528E+01 -0.46449976994E+01  0.49424292784E+01  0.51100000000E-03 0.  1.
        -12    1    3    3    0    0  0.58326590216E+01 -0.18872658154E+02 -0.26986555044E+01  0.19936897416E+02  0.00000000000E+00 0.  1.
</event>
<event>
 7    1  0.2110035E-010  0.4778728E+02  0.7816164E-02  0.1312668E+00
        -11   -1    0    0    0    0  0.00000000000E+00  0.00000000000E+00  0.45593999997E+02  0.45594000000E+02  0.51100000000E-03 0. -1.
         11   -1    0    0    0    0 -0.00000000000E+00 -0.00000000000E+00 -0.45593999997E+02  0.45594000000E+02  0.51100000000E-03 0.  1.
    9900012    2    1    2    0    0  0.33322415113E+02 -0.17975367104E+02  0.21216156743E+02  0.47787280208E+02  0.20000041782E+02 0.  0.
        -12    1    1    2    0    0 -0.33322415113E+02  0.17975367104E+02 -0.21216156743E+02  0.43400719792E+02  0.00000000000E+00 0.  1.
         11    1    3    3    0    0  0.71943521210E+01 -0.24028033457E+01  0.10959493452E+02  0.13328265579E+02  0.51100000000E-03 0. -1.
        -11    1    3    3    0    0  0.16944808225E+02 -0.28583640358E+01  0.46378152693E+01  0.17799047768E+02  0.51100000000E-03 0.  1.
         12    1    3    3    0    0  0.91832547674E+01 -0.12714199723E+02  0.56188480213E+01  0.16659966861E+02  0.00000000000E+00 0. -1.
</event>
<event>
 7    1  0.2110035E-010  0.4778727E+02  0.7816164E-02  0.1312668E+00
        -11   -1    0    0    0    0  0.00000000000E+00  0.00000000000E+00  0.45593999997E+02  0.45594000000E+02  0.51100000000E-03 0.  1.
         11   -1    0    0    0    0 -0.00000000000E+00 -0.00000000000E+00 -0.45593999997E+02  0.45594000000E+02  0.51100000000E-03 0. -1.
    9900012    2    1    2    0    0  0.28919191640E+02  0.18276315313E+01 -0.32310421651E+02  0.47787271557E+02  0.20000002337E+02 0.  0.
        -12    1    1    2    0    0 -0.28919191640E+02 -0.18276315313E+01  0.32310421651E+02  0.43400728443E+02  0.00000000000E+00 0.  1.
         11    1    3    3    0    0  0.23708880771E+02  0.83806485369E+01 -0.25169190531E+02  0.35578567278E+02  0.51100000000E-03 0. -1.
        -11    1    3    3    0    0 -0.10727550117E+01 -0.56290550275E+00 -0.70082408225E+00  0.13995787136E+01  0.51100000000E-03 0.  1.
         12    1    3    3    0    0  0.62830658813E+01 -0.59901115029E+01 -0.64404070376E+01  0.10809125566E+02  0.00000000000E+00 0. -1.
</event>
<event>
 7    1  0.2110035E-010  0.4778727E+02  0.7816164E-02  0.1312668E+00
        -11   -1    0    0    0    0  0.00000000000E+00  0.00000000000E+00  0.45593999997E+02  0.45594000000E+02  0.51100000000E-03 0.  1.
         11   -1    0    0    0    0 -0.00000000000E+00 -0.00000000000E+00 -0.45593999997E+02  0.45594000000E+02  0.51100000000E-03 0. -1.
    9900012    2    1    2    0    0  0.88960474668E+01 -0.21934271381E+02 -0.36378170715E+02  0.47787271595E+02  0.20000002510E+02 0.  0.
        -12    1    1    2    0    0 -0.88960474668E+01  0.21934271381E+02  0.36378170715E+02  0.43400728405E+02  0.00000000000E+00 0.  1.
         11    1    3    3    0    0  0.14166504894E+01 -0.23558114477E+01 -0.33369890062E+01  0.43234525642E+01  0.51100000000E-03 0. -1.
        -11    1    3    3    0    0 -0.31227462385E+01 -0.16659337902E+02 -0.16921030174E+02  0.23950080288E+02  0.51100000000E-03 0.  1.
        -12    1    3    3    0    0  0.10602143216E+02 -0.29191220308E+01 -0.16120151535E+02  0.19513738743E+02  0.00000000000E+00 0.  1.
</event>
<event>
 7    1  0.2110035E-010  0.4778727E+02  0.7816164E-02  0.1312668E+00
        -11   -1    0    0    0    0  0.00000000000E+00  0.00000000000E+00  0.45593999997E+02  0.45594000000E+02  0.51100000000E-03 0.  1.
         11   -1    0    0    0    0 -0.00000000000E+00 -0.00000000000E+00 -0.45593999997E+02  0.45594000000E+02  0.51100000000E-03 0. -1.
    9900012    2    1    2    0    0  0.22062646507E+02 -0.22832326523E+01 -0.37304826773E+02  0.47787267025E+02  0.19999981675E+02 0.  0.
        -12    1    1    2    0    0 -0.22062646507E+02  0.22832326523E+01  0.37304826773E+02  0.43400732975E+02  0.00000000000E+00 0.  1.
         11    1    3    3    0    0  0.12043012827E+02  0.33446161348E+01 -0.17626268999E+02  0.21608007176E+02  0.51100000000E-03 0. -1.
        -11    1    3    3    0    0  0.84274094798E+01  0.58987294923E+00 -0.17445817250E+02  0.19383645695E+02  0.51100000000E-03 0.  1.
        -12    1    3    3    0    0  0.15922242003E+01 -0.62177217363E+01 -0.22327405239E+01  0.67956141548E+01  0.00000000000E+00 0.  1.
</event>
<event>
 7    1  0.2110035E-010  0.4778727E+02  0.7816164E-02  0.1312668E+00
        -11   -1    0    0    0    0  0.00000000000E+00  0.00000000000E+00  0.45593999997E+02  0.45594000000E+02  0.51100000000E-03 0.  1.
         11   -1    0    0    0    0 -0.00000000000E+00 -0.00000000000E+00 -0.45593999997E+02  0.45594000000E+02  0.51100000000E-03 0. -1.
    9900012    2    1    2    0    0 -0.41329954789E+02  0.10262713685E+02  0.83746484974E+01  0.47787271982E+02  0.20000004275E+02 0.  0.
        -12    1    1    2    0    0  0.41329954789E+02 -0.10262713685E+02 -0.83746484974E+01  0.43400728018E+02  0.00000000000E+00 0.  1.
         11    1    3    3    0    0 -0.25536158599E+02  0.47663324544E+01  0.45523885973E+01  0.26373046151E+02  0.51100000000E-03 0. -1.
        -11    1    3    3    0    0 -0.44373297596E+01 -0.18542047895E+01 -0.35784179219E+01  0.59944178935E+01  0.51100000000E-03 0.  1.
        -12    1    3    3    0    0 -0.11356466430E+02  0.73505860206E+01  0.74006778219E+01  0.15419807938E+02  0.00000000000E+00 0.  1.
</event>
<event>
 7    1  0.2110035E-010  0.4778727E+02  0.7816164E-02  0.1312668E+00
        -11   -1    0    0    0    0  0.00000000000E+00  0.00000000000E+00  0.45593999997E+02  0.45594000000E+02  0.51100000000E-03 0.  1.
         11   -1    0    0    0    0 -0.00000000000E+00 -0.00000000000E+00 -0.45593999997E+02  0.45594000000E+02  0.51100000000E-03 0. -1.
    9900012    2    1    2    0    0 -0.49306897509E+01 -0.29380932740E+02 -0.31560616498E+02  0.47787269317E+02  0.19999992124E+02 0.  0.
        -12    1    1    2    0    0  0.49306897509E+01  0.29380932740E+02  0.31560616498E+02  0.43400730683E+02  0.00000000000E+00 0.  1.
         11    1    3    3    0    0 -0.70772690498E+01 -0.21762311419E+02 -0.23726983222E+02  0.32964460690E+02  0.51100000000E-03 0. -1.
        -11    1    3    3    0    0  0.75256202387E+00 -0.87659448621E+01 -0.24330192158E+01  0.91284019242E+01  0.51100000000E-03 0.  1.
         12    1    3    3    0    0  0.13940172751E+01  0.11473235409E+01 -0.54006140599E+01  0.56944067026E+01  0.00000000000E+00 0. -1.
</event>
<event>
 7    1  0.3101776E-010  0.4778727E+02  0.7816164E-02  0.1312668E+00
        -11   -1    0    0    0    0  0.00000000000E+00  0.00000000000E+00  0.45593999997E+02  0.45594000000E+02  0.51100000000E-03 0. -1.
         11   -1    0    0    0    0 -0.00000000000E+00 -0.00000000000E+00 -0.45593999997E+02  0.45594000000E+02  0.51100000000E-03 0.  1.
    9900012    2    1    2    0    0 -0.15784228734E+02  0.93223034012E+01  0.39339242079E+02  0.47787272071E+02  0.20000004680E+02 0.  0.
        -12    1    1    2    0    0  0.15784228734E+02 -0.93223034012E+01 -0.39339242079E+02  0.43400727929E+02  0.00000000000E+00 0.  1.
         11    1    3    3    0    0 -0.69856201147E+01  0.47385453422E+01  0.12363495533E+02  0.14970261267E+02  0.51100000000E-03 0. -1.
        -11    1    3    3    0    0  0.82676996989E+00 -0.13796525260E+01 -0.14834142320E+01  0.21880374129E+01  0.51100000000E-03 0.  1.
        -12    1    3    3    0    0 -0.96253785891E+01  0.59634105850E+01  0.28459160778E+02  0.30628973391E+02  0.00000000000E+00 0.  1.
</event>
<event>
 7    1  0.2110035E-010  0.4778727E+02  0.7816164E-02  0.1312668E+00
        -11   -1    0    0    0    0  0.00000000000E+00  0.00000000000E+00  0.45593999997E+02  0.45594000000E+02  0.51100000000E-03 0. -1.
         11   -1    0    0    0    0 -0.00000000000E+00 -0.00000000000E+00 -0.45593999997E+02  0.45594000000E+02  0.51100000000E-03 0.  1.
    9900012    2    1    2    0    0 -0.34531336607E+01  0.41265989611E+02 -0.12992980356E+02  0.47787267642E+02  0.19999984488E+02 0.  0.
        -12    1    1    2    0    0  0.34531336607E+01 -0.41265989611E+02  0.12992980356E+02  0.43400732358E+02  0.00000000000E+00 0.  1.
         11    1    3    3    0    0 -0.40688464013E+01  0.19522919256E+02  0.19394358590E+01  0.20036499171E+02  0.51100000000E-03 0. -1.
        -11    1    3    3    0    0  0.25619319257E+00  0.15835544162E+01 -0.50456475750E+01  0.52945102940E+01  0.51100000000E-03 0.  1.
        -12    1    3    3    0    0  0.35951954805E+00  0.20159515939E+02 -0.98867686399E+01  0.22456258178E+02  0.00000000000E+00 0.  1.
</event>
<event>
 7    1  0.2110035E-010  0.4778727E+02  0.7816164E-02  0.1312668E+00
        -11   -1    0    0    0    0  0.00000000000E+00  0.00000000000E+00  0.45593999997E+02  0.45594000000E+02  0.51100000000E-03 0.  1.
         11   -1    0    0    0    0 -0.00000000000E+00 -0.00000000000E+00 -0.45593999997E+02  0.45594000000E+02  0.51100000000E-03 0. -1.
    9900012    2    1    2    0    0  0.19712004374E+02  0.35053897095E+02 -0.16318222060E+02  0.47787272021E+02  0.20000004451E+02 0.  0.
        -12    1    1    2    0    0 -0.19712004374E+02 -0.35053897095E+02  0.16318222060E+02  0.43400727979E+02  0.00000000000E+00 0.  1.
         11    1    3    3    0    0  0.46781354123E+01  0.15899128921E+02 -0.95958815130E+01  0.19150670841E+02  0.51100000000E-03 0. -1.
        -11    1    3    3    0    0  0.91905673582E+01  0.13533134445E+02  0.22845004541E+01  0.16517602697E+02  0.51100000000E-03 0.  1.
         12    1    3    3    0    0  0.58433016032E+01  0.56216337285E+01 -0.90068410011E+01  0.12118998483E+02  0.00000000000E+00 0. -1.
</event>
<event>
 7    1  0.2110035E-010  0.4778727E+02  0.7816164E-02  0.1312668E+00
        -11   -1    0    0    0    0  0.00000000000E+00  0.00000000000E+00  0.45593999997E+02  0.45594000000E+02  0.51100000000E-03 0.  1.
         11   -1    0    0    0    0 -0.00000000000E+00 -0.00000000000E+00 -0.45593999997E+02  0.45594000000E+02  0.51100000000E-03 0. -1.
    9900012    2    1    2    0    0  0.60506482367E+00  0.15893479317E+02 -0.40381366499E+02  0.47787267880E+02  0.19999985572E+02 0.  0.
        -12    1    1    2    0    0 -0.60506482367E+00 -0.15893479317E+02  0.40381366499E+02  0.43400732120E+02  0.00000000000E+00 0.  1.
         11    1    3    3    0    0 -0.48156610521E+01  0.10412650279E+01 -0.59933599007E+01  0.77585557540E+01  0.51100000000E-03 0.  1.
        -11    1    3    3    0    0  0.32532563822E+01  0.12277898121E+02 -0.34392984984E+02  0.36663440587E+02  0.51100000000E-03 0. -1.
         12    1    3    3    0    0  0.21674694936E+01  0.25743161691E+01  0.49783857840E-02  0.33652715386E+01  0.00000000000E+00 0. -1.
</event>
<event>
 7    1  0.2110035E-010  0.4778728E+02  0.7816164E-02  0.1312668E+00
        -11   -1    0    0    0    0  0.00000000000E+00  0.00000000000E+00  0.45593999997E+02  0.45594000000E+02  0.51100000000E-03 0. -1.
         11   -1    0    0    0    0 -0.00000000000E+00 -0.00000000000E+00 -0.45593999997E+02  0.45594000000E+02  0.51100000000E-03 0.  1.
    9900012    2    1    2    0    0  0.34385221029E+02  0.20315715016E+02  0.16986785921E+02  0.47787278834E+02  0.20000035513E+02 0.  0.
        -12    1    1    2    0    0 -0.34385221029E+02 -0.20315715016E+02 -0.16986785921E+02  0.43400721166E+02  0.00000000000E+00 0.  1.
         11    1    3    3    0    0  0.16599299792E+02  0.42628220399E+01  0.10396733134E+02  0.20044961099E+02  0.51100000000E-03 0. -1.
        -11    1    3    3    0    0  0.17178204164E+01 -0.56801670186E+00 -0.23414576765E+01  0.29590495550E+01  0.51100000000E-03 0.  1.
         12    1    3    3    0    0  0.16068100821E+02  0.16620909678E+02  0.89315104632E+01  0.24783268180E+02  0.00000000000E+00 0. -1.
</event>
<event>
 7    1  0.2110035E-010  0.4778726E+02  0.7816164E-02  0.1312668E+00
        -11   -1    0    0    0    0  0.00000000000E+00  0.00000000000E+00  0.45593999997E+02  0.45594000000E+02  0.51100000000E-03 0.  1.
         11   -1    0    0    0    0 -0.00000000000E+00 -0.00000000000E+00 -0.45593999997E+02  0.45594000000E+02  0.51100000000E-03 0. -1.
    9900012    2    1    2    0    0  0.33641522419E+02 -0.50341927279E+01 -0.26954201898E+02  0.47787261215E+02  0.19999955184E+02 0.  0.
        -12    1    1    2    0    0 -0.33641522419E+02  0.50341927279E+01  0.26954201898E+02  0.43400738785E+02  0.00000000000E+00 0.  1.
         11    1    3    3    0    0  0.21127735463E+02 -0.19404098045E+01 -0.14796254193E+02  0.25866494436E+02  0.51100000000E-03 0. -1.
        -11    1    3    3    0    0  0.67245731617E+01 -0.48900466902E+01  0.23412385973E-01  0.83146250210E+01  0.51100000000E-03 0.  1.
        -12    1    3    3    0    0  0.57892137949E+01  0.17962637669E+01 -0.12181360091E+02  0.13606141758E+02  0.00000000000E+00 0.  1.
</event>
<event>
 7    1  0.2110035E-010  0.4778729E+02  0.7816164E-02  0.1312668E+00
        -11   -1    0    0    0    0  0.00000000000E+00  0.00000000000E+00  0.45593999997E+02  0.45594000000E+02  0.51100000000E-03 0. -1.
         11   -1    0    0    0    0 -0.00000000000E+00 -0.00000000000E+00 -0.45593999997E+02  0.45594000000E+02  0.51100000000E-03 0.  1.
    9900012    2    1    2    0    0  0.20394698363E+02 -0.38265368914E+02 -0.18546385645E+01  0.47787287291E+02  0.20000074076E+02 0.  0.
        -12    1    1    2    0    0 -0.20394698363E+02  0.38265368914E+02  0.18546385645E+01  0.43400712709E+02  0.00000000000E+00 0.  1.
         11    1    3    3    0    0  0.51284423317E+01 -0.19011512003E+01  0.16997275680E+01  0.57275099914E+01  0.51100000000E-03 0. -1.
        -11    1    3    3    0    0  0.56870023934E+01 -0.47040824953E+01  0.36088096433E+01  0.82154668551E+01  0.51100000000E-03 0.  1.
         12    1    3    3    0    0  0.95792536383E+01 -0.31660135218E+02 -0.71631757757E+01  0.33844310445E+02  0.00000000000E+00 0. -1.
</event>
<event>
 7    1  0.2110035E-010  0.4778732E+02  0.7816164E-02  0.1312668E+00
        -11   -1    0    0    0    0  0.00000000000E+00  0.00000000000E+00  0.45593999997E+02  0.45594000000E+02  0.51100000000E-03 0.  1.
         11   -1    0    0    0    0 -0.00000000000E+00 -0.00000000000E+00 -0.45593999997E+02  0.45594000000E+02  0.51100000000E-03 0. -1.
    9900012    2    1    2    0    0 -0.70945807687E+01  0.39979793049E+02 -0.15326518602E+02  0.47787319118E+02  0.20000219187E+02 0.  0.
        -12    1    1    2    0    0  0.70945807687E+01 -0.39979793049E+02  0.15326518602E+02  0.43400680882E+02  0.00000000000E+00 0.  1.
         11    1    3    3    0    0  0.27735396876E+00  0.45972745724E+01 -0.55080595475E+01  0.71798731854E+01  0.51100000000E-03 0. -1.
        -11    1    3    3    0    0 -0.61727744858E+01  0.11960425150E+02  0.31287088700E+01  0.13818239181E+02  0.51100000000E-03 0.  1.
        -12    1    3    3    0    0 -0.11991602517E+01  0.23422093327E+02 -0.12947167924E+02  0.26789206752E+02  0.00000000000E+00 0.  1.
</event>
<event>
 7    1  0.2110035E-010  0.4778727E+02  0.7816164E-02  0.1312668E+00
        -11   -1    0    0    0    0  0.00000000000E+00  0.00000000000E+00  0.45593999997E+02  0.45594000000E+02  0.51100000000E-03 0.  1.
         11   -1    0    0    0    0 -0.00000000000E+00 -0.00000000000E+00 -0.45593999997E+02  0.45594000000E+02  0.51100000000E-03 0. -1.
    9900012    2    1    2    0    0 -0.83617753211E+01  0.26684666813E+02 -0.33190847705E+02  0.47787273038E+02  0.20000009089E+02 0.  0.
        -12    1    1    2    0    0  0.83617753211E+01 -0.26684666813E+02  0.33190847705E+02  0.43400726962E+02  0.00000000000E+00 0.  1.
         11    1    3    3    0    0 -0.74258815176E+01  0.53443965178E+01 -0.54616901264E+01  0.10655343718E+02  0.51100000000E-03 0.  1.
        -11    1    3    3    0    0 -0.39387962886E+01  0.14066469714E+02 -0.24707179698E+02  0.28702341635E+02  0.51100000000E-03 0. -1.
        -12    1    3    3    0    0  0.30029024851E+01  0.72738005815E+01 -0.30219778806E+01  0.84295876854E+01  0.00000000000E+00 0.  1.
</event>
<event>
 7    1  0.2110035E-010  0.4778727E+02  0.7816164E-02  0.1312668E+00
        -11   -1    0    0    0    0  0.00000000000E+00  0.00000000000E+00  0.45593999997E+02  0.45594000000E+02  0.51100000000E-03 0.  1.
         11   -1    0    0    0    0 -0.00000000000E+00 -0.00000000000E+00 -0.45593999997E+02  0.45594000000E+02  0.51100000000E-03 0. -1.
    9900012    2    1    2    0    0  0.12907187848E+02 -0.22581731314E+02 -0.34743245452E+02  0.47787271990E+02  0.20000004313E+02 0.  0.
        -12    1    1    2    0    0 -0.12907187848E+02  0.22581731314E+02  0.34743245452E+02  0.43400728010E+02  0.00000000000E+00 0.  1.
         11    1    3    3    0    0  0.15697306408E+02 -0.10356471414E+02 -0.23456912618E+02  0.30064741449E+02  0.51100000000E-03 0. -1.
        -11    1    3    3    0    0 -0.22690382163E+01 -0.11662696120E+01 -0.26752623348E+01  0.36967212575E+01  0.51100000000E-03 0.  1.
         12    1    3    3    0    0 -0.52108034417E+00 -0.11058990288E+02 -0.86110704992E+01  0.14025809283E+02  0.00000000000E+00 0. -1.
</event>
<event>
 7    1  0.2110035E-010  0.4778727E+02  0.7816164E-02  0.1312668E+00
        -11   -1    0    0    0    0  0.00000000000E+00  0.00000000000E+00  0.45593999997E+02  0.45594000000E+02  0.51100000000E-03 0. -1.
         11   -1    0    0    0    0 -0.00000000000E+00 -0.00000000000E+00 -0.45593999997E+02  0.45594000000E+02  0.51100000000E-03 0.  1.
    9900012    2    1    2    0    0 -0.28445267149E+02  0.50180036808E+00  0.32775569036E+02  0.47787274748E+02  0.20000016885E+02 0.  0.
        -12    1    1    2    0    0  0.28445267149E+02 -0.50180036808E+00 -0.32775569036E+02  0.43400725252E+02  0.00000000000E+00 0.  1.
         11    1    3    3    0    0 -0.10371234327E+02  0.13901145389E+01  0.19890382642E+02  0.22474924734E+02  0.51100000000E-03 0. -1.
        -11    1    3    3    0    0 -0.10164026114E+02 -0.64915091997E+01  0.78404672563E+01  0.14384715694E+02  0.51100000000E-03 0.  1.
        -12    1    3    3    0    0 -0.79100067078E+01  0.56031950289E+01  0.50447191377E+01  0.10927634320E+02  0.00000000000E+00 0.  1.
</event>
<event>
 7    1  0.2110035E-010  0.4778727E+02  0.7816164E-02  0.1312668E+00
        -11   -1    0    0    0    0  0.00000000000E+00  0.00000000000E+00  0.45593999997E+02  0.45594000000E+02  0.51100000000E-03 0.  1.
         11   -1    0    0    0    0 -0.00000000000E+00 -0.00000000000E+00 -0.45593999997E+02  0.45594000000E+02  0.51100000000E-03 0. -1.
    9900012    2    1    2    0    0  0.13261846116E+02  0.23835937756E+02 -0.33757884037E+02  0.47787271599E+02  0.20000002526E+02 0.  0.
        -12    1    1    2    0    0 -0.13261846116E+02 -0.23835937756E+02  0.33757884037E+02  0.43400728401E+02  0.00000000000E+00 0.  1.
         11    1    3    3    0    0  0.64353267064E+01  0.10257655155E+01 -0.71919930732E+01  0.97051733286E+01  0.51100000000E-03 0.  1.
        -11    1    3    3    0    0  0.48876248702E+00  0.13286759562E+02 -0.60829093894E+01  0.14621171476E+02  0.51100000000E-03 0. -1.
         12    1    3    3    0    0  0.63377569228E+01  0.95234126782E+01 -0.20482981574E+02  0.23460926794E+02  0.00000000000E+00 0. -1.
</event>
<event>
 7    1  0.2110035E-010  0.4778728E+02  0.7816164E-02  0.1312668E+00
        -11   -1    0    0    0    0  0.00000000000E+00  0.00000000000E+00  0.45593999997E+02  0.45594000000E+02  0.51100000000E-03 0.  1.
         11   -1    0    0    0    0 -0.00000000000E+00 -0.00000000000E+00 -0.45593999997E+02  0.45594000000E+02  0.51100000000E-03 0. -1.
    9900012    2    1    2    0    0 -0.15402521251E+02  0.30547784118E+02 -0.26706133181E+02  0.47787281978E+02  0.20000049849E+02 0.  0.
        -12    1    1    2    0    0  0.15402521251E+02 -0.30547784118E+02  0.26706133181E+02  0.43400718022E+02  0.00000000000E+00 0.  1.
         11    1    3    3    0    0  0.92754137616E+00  0.18446077288E+01 -0.70183257143E+01  0.73157232569E+01  0.51100000000E-03 0. -1.
        -11    1    3    3    0    0 -0.87411092888E+01  0.58140666304E+01 -0.23134756805E+01  0.10750001505E+02  0.51100000000E-03 0.  1.
         12    1    3    3    0    0 -0.75889533385E+01  0.22889109758E+02 -0.17374331786E+02  0.29721557215E+02  0.00000000000E+00 0. -1.
</event>
<event>
 7    1  0.2110035E-010  0.4778728E+02  0.7816164E-02  0.1312668E+00
        -11   -1    0    0    0    0  0.00000000000E+00  0.00000000000E+00  0.45593999997E+02  0.45594000000E+02  0.51100000000E-03 0.  1.
         11   -1    0    0    0    0 -0.00000000000E+00 -0.00000000000E+00 -0.45593999997E+02  0.45594000000E+02  0.51100000000E-03 0. -1.
    9900012    2    1    2    0    0 -0.55124967578E+01 -0.23298083085E+02 -0.36199922923E+02  0.47787277477E+02  0.20000029327E+02 0.  0.
        -12    1    1    2    0    0  0.55124967578E+01  0.23298083085E+02  0.36199922923E+02  0.43400722523E+02  0.00000000000E+00 0.  1.
         11    1    3    3    0    0  0.12906264510E+01 -0.67152077253E+00 -0.86226827513E+01  0.87445591584E+01  0.51100000000E-03 0. -1.
        -11    1    3    3    0    0  0.17167983586E+01 -0.28771317705E+01  0.79083283352E+00  0.34424846638E+01  0.51100000000E-03 0.  1.
         12    1    3    3    0    0 -0.85199215674E+01 -0.19749430542E+02 -0.28368073005E+02  0.35600233655E+02  0.00000000000E+00 0. -1.
</event>
<event>
 7    1  0.2110035E-010  0.4778728E+02  0.7816164E-02  0.1312668E+00
        -11   -1    0    0    0    0  0.00000000000E+00  0.00000000000E+00  0.45593999997E+02  0.45594000000E+02  0.51100000000E-03 0.  1.
         11   -1    0    0    0    0 -0.00000000000E+00 -0.00000000000E+00 -0.45593999997E+02  0.45594000000E+02  0.51100000000E-03 0. -1.
    9900012    2    1    2    0    0 -0.57621280597E+01  0.43006586343E+02  0.92420232634E+00  0.47787277212E+02  0.20000028119E+02 0.  0.
        -12    1    1    2    0    0  0.57621280597E+01 -0.43006586343E+02 -0.92420232634E+00  0.43400722788E+02  0.00000000000E+00 0.  1.
         11    1    3    3    0    0 -0.12381607402E+01  0.45922120907E+01  0.12893757871E+01  0.49278741955E+01  0.51100000000E-03 0. -1.
        -11    1    3    3    0    0 -0.46142632425E+01  0.54010246219E+00  0.16535457345E+01  0.49312624852E+01  0.51100000000E-03 0.  1.
        -12    1    3    3    0    0  0.90295923031E-01  0.37874271790E+02 -0.20187191953E+01  0.37928140531E+02  0.00000000000E+00 0.  1.
</event>
<event>
 7    1  0.2110035E-010  0.4778727E+02  0.7816164E-02  0.1312668E+00
        -11   -1    0    0    0    0  0.00000000000E+00  0.00000000000E+00  0.45593999997E+02  0.45594000000E+02  0.51100000000E-03 0.  1.
         11   -1    0    0    0    0 -0.00000000000E+00 -0.00000000000E+00 -0.45593999997E+02  0.45594000000E+02  0.51100000000E-03 0. -1.
    9900012    2    1    2    0    0 -0.72255569995E+01 -0.10672197103E+02 -0.41442960188E+02  0.47787269429E+02  0.19999992634E+02 0.  0.
        -12    1    1    2    0    0  0.72255569995E+01  0.10672197103E+02  0.41442960188E+02  0.43400730571E+02  0.00000000000E+00 0.  1.
         11    1    3    3    0    0 -0.28332136210E+01  0.78477454444E+00 -0.27825796890E+02  0.27980670887E+02  0.51100000000E-03 0.  1.
        -11    1    3    3    0    0 -0.17030927397E+01 -0.74445881660E+01 -0.12803758989E+02  0.14908342039E+02  0.51100000000E-03 0. -1.
        -12    1    3    3    0    0 -0.26892506387E+01 -0.40123834811E+01 -0.81340430991E+00  0.48982565030E+01  0.00000000000E+00 0.  1.
</event>
<event>
 7    1  0.2110035E-010  0.4778728E+02  0.7816164E-02  0.1312668E+00
        -11   -1    0    0    0    0  0.00000000000E+00  0.00000000000E+00  0.45593999997E+02  0.45594000000E+02  0.51100000000E-03 0. -1.
         11   -1    0    0    0    0 -0.00000000000E+00 -0.00000000000E+00 -0.45593999997E+02  0.45594000000E+02  0.51100000000E-03 0.  1.
    9900012    2    1    2    0    0  0.25691464403E+02 -0.32056471762E+02 -0.13998361121E+02  0.47787276053E+02  0.20000022838E+02 0.  0.
        -12    1    1    2    0    0 -0.25691464403E+02  0.32056471762E+02  0.13998361121E+02  0.43400723947E+02  0.00000000000E+00 0.  1.
         11    1    3    3    0    0  0.70954615266E+01 -0.16878567265E+02 -0.21921082111E+01  0.18440090723E+02  0.51100000000E-03 0. -1.
        -11    1    3    3    0    0  0.11838613137E+02 -0.14493332636E+02 -0.12523086096E+02  0.22517485151E+02  0.51100000000E-03 0.  1.
         12    1    3    3    0    0  0.67573897396E+01 -0.68457186105E+00  0.71683318551E+00  0.68297001795E+01  0.00000000000E+00 0. -1.
</event>
<event>
 7    1  0.2110035E-010  0.4778727E+02  0.7816164E-02  0.1312668E+00
        -11   -1    0    0    0    0  0.00000000000E+00  0.00000000000E+00  0.45593999997E+02  0.45594000000E+02  0.51100000000E-03 0. -1.
         11   -1    0    0    0    0 -0.00000000000E+00 -0.00000000000E+00 -0.45593999997E+02  0.45594000000E+02  0.51100000000E-03 0.  1.
    9900012    2    1    2    0    0  0.15225188966E+02 -0.29226269726E+02  0.28242556021E+02  0.47787271991E+02  0.20000004317E+02 0.  0.
        -12    1    1    2    0    0 -0.15225188966E+02  0.29226269726E+02 -0.28242556021E+02  0.43400728009E+02  0.00000000000E+00 0.  1.
         11    1    3    3    0    0 -0.64499367461E+00 -0.80333324407E+01  0.40349359672E+01  0.90128328213E+01  0.51100000000E-03 0. -1.
        -11    1    3    3    0    0  0.15769159574E+02 -0.12247874730E+02  0.10925047803E+02  0.22760349269E+02  0.51100000000E-03 0.  1.
        -12    1    3    3    0    0  0.10102306631E+00 -0.89450625547E+01  0.13282572251E+02  0.16014089901E+02  0.00000000000E+00 0.  1.
</event>
<event>
 7    1  0.2110035E-010  0.4778727E+02  0.7816164E-02  0.1312668E+00
        -11   -1    0    0    0    0  0.00000000000E+00  0.00000000000E+00  0.45593999997E+02  0.45594000000E+02  0.51100000000E-03 0. -1.
         11   -1    0    0    0    0 -0.00000000000E+00 -0.00000000000E+00 -0.45593999997E+02  0.45594000000E+02  0.51100000000E-03 0.  1.
    9900012    2    1    2    0    0 -0.10775577839E+02  0.26805262317E+02  0.32388087285E+02  0.47787270010E+02  0.19999995286E+02 0.  0.
        -12    1    1    2    0    0  0.10775577839E+02 -0.26805262317E+02 -0.32388087285E+02  0.43400729990E+02  0.00000000000E+00 0.  1.
         11    1    3    3    0    0 -0.18749752177E+01  0.49579441221E+01  0.38410628228E+01  0.65460297780E+01  0.51100000000E-03 0. -1.
        -11    1    3    3    0    0 -0.20748398972E+01  0.50825040964E+01 -0.19090114885E+01  0.58121539565E+01  0.51100000000E-03 0.  1.
         12    1    3    3    0    0 -0.68257627239E+01  0.16764814098E+02  0.30456035951E+02  0.35429086276E+02  0.00000000000E+00 0. -1.
</event>
<event>
 7    1  0.2110035E-010  0.4778727E+02  0.7816164E-02  0.1312668E+00
        -11   -1    0    0    0    0  0.00000000000E+00  0.00000000000E+00  0.45593999997E+02  0.45594000000E+02  0.51100000000E-03 0.  1.
         11   -1    0    0    0    0 -0.00000000000E+00 -0.00000000000E+00 -0.45593999997E+02  0.45594000000E+02  0.51100000000E-03 0. -1.
    9900012    2    1    2    0    0  0.14679117613E+02  0.31776302057E+01 -0.40719153368E+02  0.47787270989E+02  0.19999999749E+02 0.  0.
        -12    1    1    2    0    0 -0.14679117613E+02 -0.31776302057E+01  0.40719153368E+02  0.43400729011E+02  0.00000000000E+00 0.  1.
         11    1    3    3    0    0  0.15139029088E+02  0.17983241674E+01 -0.18122843613E+02  0.23682517443E+02  0.51100000000E-03 0. -1.
        -11    1    3    3    0    0 -0.42331086139E+00 -0.32081068404E+01 -0.52943974615E+01  0.62049807676E+01  0.51100000000E-03 0.  1.
        -12    1    3    3    0    0 -0.36600613883E-01  0.45874128788E+01 -0.17301912294E+02  0.17899772779E+02  0.00000000000E+00 0.  1.
</event>
<event>
 7    1  0.2110035E-010  0.4778727E+02  0.7816164E-02  0.1312668E+00
        -11   -1    0    0    0    0  0.00000000000E+00  0.00000000000E+00  0.45593999997E+02  0.45594000000E+02  0.51100000000E-03 0. -1.
         11   -1    0    0    0    0 -0.00000000000E+00 -0.00000000000E+00 -0.45593999997E+02  0.45594000000E+02  0.51100000000E-03 0.  1.
    9900012    2    1    2    0    0  0.14782056336E+02  0.23385996467E+02  0.33439638604E+02  0.47787269013E+02  0.19999990736E+02 0.  0.
        -12    1    1    2    0    0 -0.14782056336E+02 -0.23385996467E+02 -0.33439638604E+02  0.43400730987E+02  0.00000000000E+00 0.  1.
         11    1    3    3    0    0 -0.13842021114E+00  0.69308875328E+01  0.16413533733E+02  0.17817419904E+02  0.51100000000E-03 0. -1.
        -11    1    3    3    0    0  0.24975183248E+01  0.95427980768E+01  0.38580900657E+01  0.10591857823E+02  0.51100000000E-03 0.  1.
         12    1    3    3    0    0  0.12422958223E+02  0.69123108574E+01  0.13168014805E+02  0.19377991286E+02  0.00000000000E+00 0. -1.
</event>
<event>
 7    1  0.2110035E-010  0.4778727E+02  0.7816164E-02  0.1312668E+00
        -11   -1    0    0    0    0  0.00000000000E+00  0.00000000000E+00  0.45593999997E+02  0.45594000000E+02  0.51100000000E-03 0.  1.
         11   -1    0    0    0    0 -0.00000000000E+00 -0.00000000000E+00 -0.45593999997E+02  0.45594000000E+02  0.51100000000E-03 0. -1.
    9900012    2    1    2    0    0  0.18409119532E+01 -0.25502350016E+02 -0.35069425711E+02  0.47787269213E+02  0.19999991651E+02 0.  0.
        -12    1    1    2    0    0 -0.18409119532E+01  0.25502350016E+02  0.35069425711E+02  0.43400730787E+02  0.00000000000E+00 0.  1.
         11    1    3    3    0    0 -0.28794175933E+01 -0.40089717731E+01 -0.79004523170E+01  0.93155808959E+01  0.51100000000E-03 0.  1.
        -11    1    3    3    0    0  0.67138723795E+01 -0.22308017365E+02 -0.19115152771E+02  0.30134909769E+02  0.51100000000E-03 0. -1.
         12    1    3    3    0    0 -0.19935428330E+01  0.81463912308E+00 -0.80538206232E+01  0.83367785480E+01  0.00000000000E+00 0. -1.
</event>
<event>
 7    1  0.3761112E-010  0.4778730E+02  0.7816164E-02  0.1312668E+00
        -11   -1    0    0    0    0  0.00000000000E+00  0.00000000000E+00  0.45593999997E+02  0.45594000000E+02  0.51100000000E-03 0. -1.
         11   -1    0    0    0    0 -0.00000000000E+00 -0.00000000000E+00 -0.45593999997E+02  0.45594000000E+02  0.51100000000E-03 0.  1.
    9900012    2    1    2    0    0 -0.15552600908E+02  0.18685848058E+02  0.35952417445E+02  0.47787301471E+02  0.20000138726E+02 0.  0.
        -12    1    1    2    0    0  0.15552600908E+02 -0.18685848058E+02 -0.35952417445E+02  0.43400698529E+02  0.00000000000E+00 0.  1.
         11    1    3    3    0    0 -0.79878919796E+01  0.11305225314E+02  0.20247026205E+02  0.24526650976E+02  0.51100000000E-03 0. -1.
        -11    1    3    3    0    0  0.21512082013E+01  0.62935244724E+01  0.31819139540E+01  0.73729725133E+01  0.51100000000E-03 0.  1.
        -12    1    3    3    0    0 -0.97159171295E+01  0.10870982719E+01  0.12523477286E+02  0.15887677982E+02  0.00000000000E+00 0.  1.
</event>
<event>
 7    1  0.2110035E-010  0.4778728E+02  0.7816164E-02  0.1312668E+00
        -11   -1    0    0    0    0  0.00000000000E+00  0.00000000000E+00  0.45593999997E+02  0.45594000000E+02  0.51100000000E-03 0.  1.
         11   -1    0    0    0    0 -0.00000000000E+00 -0.00000000000E+00 -0.45593999997E+02  0.45594000000E+02  0.51100000000E-03 0. -1.
    9900012    2    1    2    0    0 -0.43171268931E+02 -0.32105246635E+01 -0.30914215325E+01  0.47787276310E+02  0.20000024007E+02 0.  0.
        -12    1    1    2    0    0  0.43171268931E+02  0.32105246635E+01  0.30914215325E+01  0.43400723690E+02  0.00000000000E+00 0.  1.
         11    1    3    3    0    0  0.88633060951E+00 -0.94146784693E+00 -0.67139104779E+00  0.14569522492E+01  0.51100000000E-03 0.  1.
        -11    1    3    3    0    0 -0.29493281231E+02 -0.80364124956E+01 -0.24381106490E+01  0.30665647676E+02  0.51100000000E-03 0. -1.
         12    1    3    3    0    0 -0.14564318310E+02  0.57673556790E+01  0.18080164370E-01  0.15664676385E+02  0.00000000000E+00 0. -1.
</event>
<event>
 7    1  0.2110035E-010  0.4778727E+02  0.7816164E-02  0.1312668E+00
        -11   -1    0    0    0    0  0.00000000000E+00  0.00000000000E+00  0.45593999997E+02  0.45594000000E+02  0.51100000000E-03 0. -1.
         11   -1    0    0    0    0 -0.00000000000E+00 -0.00000000000E+00 -0.45593999997E+02  0.45594000000E+02  0.51100000000E-03 0.  1.
    9900012    2    1    2    0    0  0.29948618397E+02 -0.30418449345E+02  0.78371966282E+01  0.47787268953E+02  0.19999990464E+02 0.  0.
        -12    1    1    2    0    0 -0.29948618397E+02  0.30418449345E+02 -0.78371966282E+01  0.43400731047E+02  0.00000000000E+00 0.  1.
         11    1    3    3    0    0  0.14176248398E+01 -0.81194374124E-01  0.72173305402E+00  0.15928438641E+01  0.51100000000E-03 0.  1.
        -11    1    3    3    0    0  0.18609026000E+02 -0.16574353777E+02  0.13162427101E+02  0.28182521875E+02  0.51100000000E-03 0. -1.
         12    1    3    3    0    0  0.99219675572E+01 -0.13762901194E+02 -0.60469635271E+01  0.18011903214E+02  0.00000000000E+00 0. -1.
</event>
<event>
 7    1  0.2110035E-010  0.4778727E+02  0.7816164E-02  0.1312668E+00
        -11   -1    0    0    0    0  0.00000000000E+00  0.00000000000E+00  0.45593999997E+02  0.45594000000E+02  0.51100000000E-03 0.  1.
         11   -1    0    0    0    0 -0.00000000000E+00 -0.00000000000E+00 -0.45593999997E+02  0.45594000000E+02  0.51100000000E-03 0. -1.
    9900012    2    1    2    0    0  0.18732780741E+02  0.10543008159E+02 -0.37703467911E+02  0.47787267427E+02  0.19999983508E+02 0.  0.
        -12    1    1    2    0    0 -0.18732780741E+02 -0.10543008159E+02  0.37703467911E+02  0.43400732573E+02  0.00000000000E+00 0.  1.
         11    1    3    3    0    0  0.14284292153E+02  0.28112785417E+01 -0.94956905965E+01  0.17381381692E+02  0.51100000000E-03 0.  1.
        -11    1    3    3    0    0  0.52164952922E+01  0.64545942583E+01 -0.15243255886E+02  0.17355992062E+02  0.51100000000E-03 0. -1.
         12    1    3    3    0    0 -0.76800670482E+00  0.12771353591E+01 -0.12964521428E+02  0.13049893674E+02  0.00000000000E+00 0. -1.
</event>
<event>
 7    1  0.2110035E-010  0.4778727E+02  0.7816164E-02  0.1312668E+00
        -11   -1    0    0    0    0  0.00000000000E+00  0.00000000000E+00  0.45593999997E+02  0.45594000000E+02  0.51100000000E-03 0.  1.
         11   -1    0    0    0    0 -0.00000000000E+00 -0.00000000000E+00 -0.45593999997E+02  0.45594000000E+02  0.51100000000E-03 0. -1.
    9900012    2    1    2    0    0  0.11048522775E+02  0.41067923568E+02 -0.86590277360E+01  0.47787274625E+02  0.20000016326E+02 0.  0.
        -12    1    1    2    0    0 -0.11048522775E+02 -0.41067923568E+02  0.86590277360E+01  0.43400725375E+02  0.00000000000E+00 0.  1.
         11    1    3    3    0    0 -0.10217878387E+01  0.14541922630E+02 -0.50959168490E+01  0.15442795504E+02  0.51100000000E-03 0. -1.
        -11    1    3    3    0    0  0.18514581937E+01  0.54500205171E+01  0.47783034469E+01  0.74808291767E+01  0.51100000000E-03 0.  1.
         12    1    3    3    0    0  0.10218852420E+02  0.21075980421E+02 -0.83414143339E+01  0.24863649945E+02  0.00000000000E+00 0. -1.
</event>
<event>
 7    1  0.2110035E-010  0.4778727E+02  0.7816164E-02  0.1312668E+00
        -11   -1    0    0    0    0  0.00000000000E+00  0.00000000000E+00  0.45593999997E+02  0.45594000000E+02  0.51100000000E-03 0. -1.
         11   -1    0    0    0    0 -0.00000000000E+00 -0.00000000000E+00 -0.45593999997E+02  0.45594000000E+02  0.51100000000E-03 0.  1.
    9900012    2    1    2    0    0  0.29153179746E+02 -0.30096817835E+02 -0.11309162851E+02  0.47787268468E+02  0.19999988255E+02 0.  0.
        -12    1    1    2    0    0 -0.29153179746E+02  0.30096817835E+02  0.11309162851E+02  0.43400731532E+02  0.00000000000E+00 0.  1.
         11    1    3    3    0    0  0.19844496803E+01 -0.18155119764E+01  0.25424989005E+01  0.37011383641E+01  0.51100000000E-03 0. -1.
        -11    1    3    3    0    0  0.25970560035E+02 -0.25303484878E+02 -0.75833942276E+01  0.37043814649E+02  0.51100000000E-03 0.  1.
        -12    1    3    3    0    0  0.11981700309E+01 -0.29778209804E+01 -0.62682675240E+01  0.70423154549E+01  0.00000000000E+00 0.  1.
</event>
<event>
 7    1  0.2110035E-010  0.4778727E+02  0.7816164E-02  0.1312668E+00
        -11   -1    0    0    0    0  0.00000000000E+00  0.00000000000E+00  0.45593999997E+02  0.45594000000E+02  0.51100000000E-03 0. -1.
         11   -1    0    0    0    0 -0.00000000000E+00 -0.00000000000E+00 -0.45593999997E+02  0.45594000000E+02  0.51100000000E-03 0.  1.
    9900012    2    1    2    0    0 -0.18220774663E+02 -0.39251150768E+02 -0.33126754042E+01  0.47787270925E+02  0.19999999455E+02 0.  0.
        -12    1    1    2    0    0  0.18220774663E+02  0.39251150768E+02  0.33126754042E+01  0.43400729075E+02  0.00000000000E+00 0.  1.
         11    1    3    3    0    0 -0.92553477620E+01 -0.29880561901E+02 -0.78108162603E+01  0.32241561573E+02  0.51100000000E-03 0. -1.
        -11    1    3    3    0    0 -0.46006648428E+01 -0.14744399574E+01 -0.10637607195E+01  0.49468856175E+01  0.51100000000E-03 0.  1.
         12    1    3    3    0    0 -0.43647620579E+01 -0.78961489095E+01  0.55619015756E+01  0.10598823735E+02  0.00000000000E+00 0. -1.
</event>
<event>
 7    1  0.2644263E-010  0.4778726E+02  0.7816164E-02  0.1312668E+00
        -11   -1    0    0    0    0  0.00000000000E+00  0.00000000000E+00  0.45593999997E+02  0.45594000000E+02  0.51100000000E-03 0.  1.
         11   -1    0    0    0    0 -0.00000000000E+00 -0.00000000000E+00 -0.45593999997E+02  0.45594000000E+02  0.51100000000E-03 0. -1.
    9900012    2    1    2    0    0  0.77448133770E+01 -0.42290881392E+02 -0.59264826651E+01  0.47787262910E+02  0.19999962914E+02 0.  0.
        -12    1    1    2    0    0 -0.77448133770E+01  0.42290881392E+02  0.59264826651E+01  0.43400737090E+02  0.00000000000E+00 0.  1.
         11    1    3    3    0    0  0.47087412557E+01 -0.29552615163E+02 -0.74371656111E+01  0.30835705599E+02  0.51100000000E-03 0. -1.
        -11    1    3    3    0    0  0.69065105164E+01 -0.62051109316E+01  0.60692596257E+00  0.93043886727E+01  0.51100000000E-03 0.  1.
        -12    1    3    3    0    0 -0.38704383951E+01 -0.65331552973E+01  0.90375698343E+00  0.76471686390E+01  0.00000000000E+00 0.  1.
</event>
<event>
 7    1  0.2110035E-010  0.4778727E+02  0.7816164E-02  0.1312668E+00
        -11   -1    0    0    0    0  0.00000000000E+00  0.00000000000E+00  0.45593999997E+02  0.45594000000E+02  0.51100000000E-03 0.  1.
         11   -1    0    0    0    0 -0.00000000000E+00 -0.00000000000E+00 -0.45593999997E+02  0.45594000000E+02  0.51100000000E-03 0. -1.
    9900012    2    1    2    0    0  0.20408090980E+02 -0.16230843528E+02 -0.34694273649E+02  0.47787273242E+02  0.20000010020E+02 0.  0.
        -12    1    1    2    0    0 -0.20408090980E+02  0.16230843528E+02  0.34694273649E+02  0.43400726758E+02  0.00000000000E+00 0.  1.
         11    1    3    3    0    0  0.15195281686E+02 -0.74962565610E+01 -0.18966404594E+02  0.25432556919E+02  0.51100000000E-03 0. -1.
        -11    1    3    3    0    0  0.21246073749E+01 -0.21464924445E+01  0.17022968675E+01  0.34668719616E+01  0.51100000000E-03 0.  1.
         12    1    3    3    0    0  0.30882019186E+01 -0.65880945230E+01 -0.17430165923E+02  0.18887844362E+02  0.00000000000E+00 0. -1.
</event>
<event>
 7    1  0.2110035E-010  0.4778729E+02  0.7816164E-02  0.1312668E+00
        -11   -1    0    0    0    0  0.00000000000E+00  0.00000000000E+00  0.45593999997E+02  0.45594000000E+02  0.51100000000E-03 0.  1.
         11   -1    0    0    0    0 -0.00000000000E+00 -0.00000000000E+00 -0.45593999997E+02  0.45594000000E+02  0.51100000000E-03 0. -1.
    9900012    2    1    2    0    0 -0.61751965131E+01  0.35893924103E+01 -0.42808935015E+02  0.47787289096E+02  0.20000082306E+02 0.  0.
        -12    1    1    2    0    0  0.61751965131E+01 -0.35893924103E+01  0.42808935015E+02  0.43400710904E+02  0.00000000000E+00 0.  1.
         11    1    3    3    0    0 -0.33763592758E+01  0.37721000485E+01 -0.29260267118E+02  0.29694978916E+02  0.51100000000E-03 0. -1.
        -11    1    3    3    0    0 -0.29565640269E+01 -0.38344657836E+00 -0.15672320720E+02  0.15953367643E+02  0.51100000000E-03 0.  1.
        -12    1    3    3    0    0  0.15772678953E+00  0.20073894011E+00  0.21236528239E+01  0.21389425375E+01  0.00000000000E+00 0.  1.
</event>
<event>
 7    1  0.2110035E-010  0.4778727E+02  0.7816164E-02  0.1312668E+00
        -11   -1    0    0    0    0  0.00000000000E+00  0.00000000000E+00  0.45593999997E+02  0.45594000000E+02  0.51100000000E-03 0.  1.
         11   -1    0    0    0    0 -0.00000000000E+00 -0.00000000000E+00 -0.45593999997E+02  0.45594000000E+02  0.51100000000E-03 0. -1.
    9900012    2    1    2    0    0 -0.31120166776E+01 -0.14679150241E+02 -0.40724209512E+02  0.47787270283E+02  0.19999996529E+02 0.  0.
        -12    1    1    2    0    0  0.31120166776E+01  0.14679150241E+02  0.40724209512E+02  0.43400729717E+02  0.00000000000E+00 0.  1.
         11    1    3    3    0    0  0.38869702535E+01 -0.56808788337E+01 -0.19398447165E+02  0.20583504919E+02  0.51100000000E-03 0. -1.
        -11    1    3    3    0    0 -0.95510799185E+01 -0.10255408158E+02 -0.17089046612E+02  0.22100498603E+02  0.51100000000E-03 0.  1.
        -12    1    3    3    0    0  0.25520929873E+01  0.12571367506E+01 -0.42367157344E+01  0.51032667615E+01  0.00000000000E+00 0.  1.
</event>
<event>
 7    1  0.2110035E-010  0.4778727E+02  0.7816164E-02  0.1312668E+00
        -11   -1    0    0    0    0  0.00000000000E+00  0.00000000000E+00  0.45593999997E+02  0.45594000000E+02  0.51100000000E-03 0. -1.
         11   -1    0    0    0    0 -0.00000000000E+00 -0.00000000000E+00 -0.45593999997E+02  0.45594000000E+02  0.51100000000E-03 0.  1.
    9900012    2    1    2    0    0  0.33946763995E+02 -0.20165832346E+02  0.18016090616E+02  0.47787273036E+02  0.20000009081E+02 0.  0.
        -12    1    1    2    0    0 -0.33946763995E+02  0.20165832346E+02 -0.18016090616E+02  0.43400726964E+02  0.00000000000E+00 0.  1.
         11    1    3    3    0    0  0.12401606762E+01  0.10782193225E+01  0.44842732236E+00  0.17034208918E+01  0.51100000000E-03 0. -1.
        -11    1    3    3    0    0  0.63779348059E+01 -0.85572337176E-01  0.93553993871E+01  0.11322935704E+02  0.51100000000E-03 0.  1.
         12    1    3    3    0    0  0.26328668512E+02 -0.21158479332E+02  0.82122639063E+01  0.34760916440E+02  0.00000000000E+00 0. -1.
</event>
<event>
 7    1  0.2110035E-010  0.4778727E+02  0.7816164E-02  0.1312668E+00
        -11   -1    0    0    0    0  0.00000000000E+00  0.00000000000E+00  0.45593999997E+02  0.45594000000E+02  0.51100000000E-03 0.  1.
         11   -1    0    0    0    0 -0.00000000000E+00 -0.00000000000E+00 -0.45593999997E+02  0.45594000000E+02  0.51100000000E-03 0. -1.
    9900012    2    1    2    0    0  0.31501113915E+02 -0.13693026622E+02 -0.26529308235E+02  0.47787270152E+02  0.19999995932E+02 0.  0.
        -12    1    1    2    0    0 -0.31501113915E+02  0.13693026622E+02  0.26529308235E+02  0.43400729848E+02  0.00000000000E+00 0.  1.
         11    1    3    3    0    0  0.86170080339E+01 -0.34808823407E+00 -0.93470290919E+01  0.12717741387E+02  0.51100000000E-03 0. -1.
        -11    1    3    3    0    0  0.45663504983E+01 -0.26732860571E+01  0.27568111030E+01  0.59664078754E+01  0.51100000000E-03 0.  1.
        -12    1    3    3    0    0  0.18317755382E+02 -0.10671652331E+02 -0.19939090246E+02  0.29103120890E+02  0.00000000000E+00 0.  1.
</event>
<event>
 7    1  0.2110035E-010  0.4778728E+02  0.7816164E-02  0.1312668E+00
        -11   -1    0    0    0    0  0.00000000000E+00  0.00000000000E+00  0.45593999997E+02  0.45594000000E+02  0.51100000000E-03 0.  1.
         11   -1    0    0    0    0 -0.00000000000E+00 -0.00000000000E+00 -0.45593999997E+02  0.45594000000E+02  0.51100000000E-03 0. -1.
    9900012    2    1    2    0    0 -0.32041664766E+02 -0.18937096575E+02 -0.22323549944E+02  0.47787276622E+02  0.20000025428E+02 0.  0.
        -12    1    1    2    0    0  0.32041664766E+02  0.18937096575E+02  0.22323549944E+02  0.43400723378E+02  0.00000000000E+00 0.  1.
         11    1    3    3    0    0 -0.15604090054E+02 -0.16990479234E+02 -0.78509211112E+01  0.24368031795E+02  0.51100000000E-03 0. -1.
        -11    1    3    3    0    0 -0.14212296925E+02 -0.15748420189E+01 -0.76160911135E+01  0.16201060316E+02  0.51100000000E-03 0.  1.
        -12    1    3    3    0    0 -0.22252777873E+01 -0.37177532193E+00 -0.68565377197E+01  0.72181845101E+01  0.00000000000E+00 0.  1.
</event>
<event>
 7    1  0.2110035E-010  0.4778727E+02  0.7816164E-02  0.1312668E+00
        -11   -1    0    0    0    0  0.00000000000E+00  0.00000000000E+00  0.45593999997E+02  0.45594000000E+02  0.51100000000E-03 0.  1.
         11   -1    0    0    0    0 -0.00000000000E+00 -0.00000000000E+00 -0.45593999997E+02  0.45594000000E+02  0.51100000000E-03 0. -1.
    9900012    2    1    2    0    0  0.19880633265E+02  0.14010729781E+02 -0.35945555372E+02  0.47787273290E+02  0.20000010237E+02 0.  0.
        -12    1    1    2    0    0 -0.19880633265E+02 -0.14010729781E+02  0.35945555372E+02  0.43400726710E+02  0.00000000000E+00 0.  1.
         11    1    3    3    0    0  0.11731338666E+02  0.16172974158E+02 -0.18732128223E+02  0.27387625454E+02  0.51100000000E-03 0. -1.
        -11    1    3    3    0    0  0.88838417988E+01 -0.10611787444E+01 -0.11695904904E+02  0.14725587839E+02  0.51100000000E-03 0.  1.
        -12    1    3    3    0    0 -0.73454719985E+00 -0.11010656327E+01 -0.55175222448E+01  0.56740599960E+01  0.00000000000E+00 0.  1.
</event>
<event>
 7    1  0.2110035E-010  0.4778727E+02  0.7816164E-02  0.1312668E+00
        -11   -1    0    0    0    0  0.00000000000E+00  0.00000000000E+00  0.45593999997E+02  0.45594000000E+02  0.51100000000E-03 0. -1.
         11   -1    0    0    0    0 -0.00000000000E+00 -0.00000000000E+00 -0.45593999997E+02  0.45594000000E+02  0.51100000000E-03 0.  1.
    9900012    2    1    2    0    0 -0.62570021837E+01 -0.42667190048E+02  0.48973381377E+01  0.47787273005E+02  0.20000008937E+02 0.  0.
        -12    1    1    2    0    0  0.62570021837E+01  0.42667190048E+02 -0.48973381377E+01  0.43400726995E+02  0.00000000000E+00 0.  1.
         11    1    3    3    0    0 -0.54149825826E+01 -0.17157191224E+02 -0.41829410395E+01  0.18471281577E+02  0.51100000000E-03 0. -1.
        -11    1    3    3    0    0  0.29426985198E+01 -0.13895814312E+01 -0.34758712065E-01  0.32544768492E+01  0.51100000000E-03 0.  1.
        -12    1    3    3    0    0 -0.37847181209E+01 -0.24120417392E+02  0.91150378893E+01  0.26061514579E+02  0.00000000000E+00 0.  1.
</event>
<event>
 7    1  0.2110035E-010  0.4778727E+02  0.7816164E-02  0.1312668E+00
        -11   -1    0    0    0    0  0.00000000000E+00  0.00000000000E+00  0.45593999997E+02  0.45594000000E+02  0.51100000000E-03 0. -1.
         11   -1    0    0    0    0 -0.00000000000E+00 -0.00000000000E+00 -0.45593999997E+02  0.45594000000E+02  0.51100000000E-03 0.  1.
    9900012    2    1    2    0    0 -0.17853731051E+02  0.27473727826E+02  0.28461579520E+02  0.47787274869E+02  0.20000017437E+02 0.  0.
        -12    1    1    2    0    0  0.17853731051E+02 -0.27473727826E+02 -0.28461579520E+02  0.43400725131E+02  0.00000000000E+00 0.  1.
         11    1    3    3    0    0 -0.19317736619E+01  0.14815495196E+00  0.13275589383E+01  0.23486405358E+01  0.51100000000E-03 0. -1.
        -11    1    3    3    0    0 -0.17790872803E+02  0.14681847569E+02  0.13395311718E+02  0.26674073169E+02  0.51100000000E-03 0.  1.
         12    1    3    3    0    0  0.18689154143E+01  0.12643725305E+02  0.13738708864E+02  0.18764561164E+02  0.00000000000E+00 0. -1.
</event>
<event>
 7    1  0.2110035E-010  0.4778727E+02  0.7816164E-02  0.1312668E+00
        -11   -1    0    0    0    0  0.00000000000E+00  0.00000000000E+00  0.45593999997E+02  0.45594000000E+02  0.51100000000E-03 0. -1.
         11   -1    0    0    0    0 -0.00000000000E+00 -0.00000000000E+00 -0.45593999997E+02  0.45594000000E+02  0.51100000000E-03 0.  1.
    9900012    2    1    2    0    0  0.79880062811E+01  0.33857386519E+02  0.25951734876E+02  0.47787269484E+02  0.19999992886E+02 0.  0.
        -12    1    1    2    0    0 -0.79880062811E+01 -0.33857386519E+02 -0.25951734876E+02  0.43400730516E+02  0.00000000000E+00 0.  1.
         11    1    3    3    0    0  0.28102522149E+00 -0.35266270378E+00 -0.12064530212E+00  0.46679942994E+00  0.51100000000E-03 0. -1.
        -11    1    3    3    0    0 -0.48402055685E+01  0.72394019597E+01  0.10827839757E+02  0.13895274188E+02  0.51100000000E-03 0.  1.
         12    1    3    3    0    0  0.12547186628E+02  0.26970647263E+02  0.15244540421E+02  0.33425195866E+02  0.00000000000E+00 0. -1.
</event>
<event>
 7    1  0.2110035E-010  0.4778727E+02  0.7816164E-02  0.1312668E+00
        -11   -1    0    0    0    0  0.00000000000E+00  0.00000000000E+00  0.45593999997E+02  0.45594000000E+02  0.51100000000E-03 0.  1.
         11   -1    0    0    0    0 -0.00000000000E+00 -0.00000000000E+00 -0.45593999997E+02  0.45594000000E+02  0.51100000000E-03 0. -1.
    9900012    2    1    2    0    0  0.10089057968E+02 -0.24401855092E+02 -0.34443924334E+02  0.47787267908E+02  0.19999985701E+02 0.  0.
        -12    1    1    2    0    0 -0.10089057968E+02  0.24401855092E+02  0.34443924334E+02  0.43400732092E+02  0.00000000000E+00 0.  1.
         11    1    3    3    0    0  0.27989700996E+01 -0.10820543240E+02 -0.12186901903E+02  0.16535990078E+02  0.51100000000E-03 0. -1.
        -11    1    3    3    0    0  0.10290151848E+01  0.33842708350E+01 -0.58354726317E+01  0.68238480663E+01  0.51100000000E-03 0.  1.
        -12    1    3    3    0    0  0.62610726836E+01 -0.16965582687E+02 -0.16421549799E+02  0.24427429764E+02  0.00000000000E+00 0.  1.
</event>
<event>
 7    1  0.2110035E-010  0.4778727E+02  0.7816164E-02  0.1312668E+00
        -11   -1    0    0    0    0  0.00000000000E+00  0.00000000000E+00  0.45593999997E+02  0.45594000000E+02  0.51100000000E-03 0. -1.
         11   -1    0    0    0    0 -0.00000000000E+00 -0.00000000000E+00 -0.45593999997E+02  0.45594000000E+02  0.51100000000E-03 0.  1.
    9900012    2    1    2    0    0  0.12457446911E+02 -0.15723901317E+02  0.38486287959E+02  0.47787269395E+02  0.19999992479E+02 0.  0.
        -12    1    1    2    0    0 -0.12457446911E+02  0.15723901317E+02 -0.38486287959E+02  0.43400730605E+02  0.00000000000E+00 0.  1.
         11    1    3    3    0    0 -0.17081913908E+01  0.55533875680E+00  0.12437946656E+01  0.21847984790E+01  0.51100000000E-03 0.  1.
        -11    1    3    3    0    0  0.16771095733E+02 -0.13157302751E+02  0.25845838902E+02  0.33502114211E+02  0.51100000000E-03 0. -1.
         12    1    3    3    0    0 -0.26054574308E+01 -0.31219373225E+01  0.11396654392E+02  0.12100356705E+02  0.00000000000E+00 0. -1.
</event>
<event>
 7    1  0.2110035E-010  0.4778727E+02  0.7816164E-02  0.1312668E+00
        -11   -1    0    0    0    0  0.00000000000E+00  0.00000000000E+00  0.45593999997E+02  0.45594000000E+02  0.51100000000E-03 0.  1.
         11   -1    0    0    0    0 -0.00000000000E+00 -0.00000000000E+00 -0.45593999997E+02  0.45594000000E+02  0.51100000000E-03 0. -1.
    9900012    2    1    2    0    0  0.57406579811E+01  0.35734436197E+02 -0.23952412100E+02  0.47787272705E+02  0.20000007570E+02 0.  0.
        -12    1    1    2    0    0 -0.57406579811E+01 -0.35734436197E+02  0.23952412100E+02  0.43400727295E+02  0.00000000000E+00 0.  1.
         11    1    3    3    0    0  0.56390210570E+01  0.18654988625E+02 -0.18790420293E+02  0.27071886785E+02  0.51100000000E-03 0. -1.
        -11    1    3    3    0    0  0.10319037798E+01 -0.12598739873E+01  0.42857402480E-01  0.16290932732E+01  0.51100000000E-03 0.  1.
        -12    1    3    3    0    0 -0.93026685568E+00  0.18339321560E+02 -0.52048492089E+01  0.19086292646E+02  0.00000000000E+00 0.  1.
</event>
<event>
 7    1  0.2110035E-010  0.4778727E+02  0.7816164E-02  0.1312668E+00
        -11   -1    0    0    0    0  0.00000000000E+00  0.00000000000E+00  0.45593999997E+02  0.45594000000E+02  0.51100000000E-03 0.  1.
         11   -1    0    0    0    0 -0.00000000000E+00 -0.00000000000E+00 -0.45593999997E+02  0.45594000000E+02  0.51100000000E-03 0. -1.
    9900012    2    1    2    0    0  0.69418049930E+01  0.10748732151E+02 -0.41471670008E+02  0.47787270597E+02  0.19999997961E+02 0.  0.
        -12    1    1    2    0    0 -0.69418049930E+01 -0.10748732151E+02  0.41471670008E+02  0.43400729403E+02  0.00000000000E+00 0.  1.
         11    1    3    3    0    0 -0.29562631710E+01  0.10022931528E+02 -0.24915600363E+02  0.27018249204E+02  0.51100000000E-03 0. -1.
        -11    1    3    3    0    0 -0.14773426802E+00 -0.18846559112E+01 -0.12172335314E+01  0.22484241256E+01  0.51100000000E-03 0.  1.
        -12    1    3    3    0    0  0.10045802432E+02  0.26104565349E+01 -0.15338836114E+02  0.18520597267E+02  0.00000000000E+00 0.  1.
</event>
<event>
 7    1  0.2110035E-010  0.4778727E+02  0.7816164E-02  0.1312668E+00
        -11   -1    0    0    0    0  0.00000000000E+00  0.00000000000E+00  0.45593999997E+02  0.45594000000E+02  0.51100000000E-03 0.  1.
         11   -1    0    0    0    0 -0.00000000000E+00 -0.00000000000E+00 -0.45593999997E+02  0.45594000000E+02  0.51100000000E-03 0. -1.
    9900012    2    1    2    0    0  0.73655003918E+01 -0.14280686378E+02 -0.40316679435E+02  0.47787271433E+02  0.20000001773E+02 0.  0.
        -12    1    1    2    0    0 -0.73655003918E+01  0.14280686378E+02  0.40316679435E+02  0.43400728567E+02  0.00000000000E+00 0.  1.
         11    1    3    3    0    0  0.11105138265E+02 -0.10076495549E+02 -0.17542895597E+02  0.23078410791E+02  0.51100000000E-03 0. -1.
        -11    1    3    3    0    0  0.19552998145E+01 -0.22863492571E+01 -0.40546431265E+01  0.50488336707E+01  0.51100000000E-03 0.  1.
        -12    1    3    3    0    0 -0.56949376878E+01 -0.19178415718E+01 -0.18719140711E+02  0.19660026972E+02  0.00000000000E+00 0.  1.
</event>
<event>
 7    1  0.2110035E-010  0.4778727E+02  0.7816164E-02  0.1312668E+00
        -11   -1    0    0    0    0  0.00000000000E+00  0.00000000000E+00  0.45593999997E+02  0.45594000000E+02  0.51100000000E-03 0.  1.
         11   -1    0    0    0    0 -0.00000000000E+00 -0.00000000000E+00 -0.45593999997E+02  0.45594000000E+02  0.51100000000E-03 0. -1.
    9900012    2    1    2    0    0 -0.11659519427E+01  0.37375123048E+02 -0.22030979606E+02  0.47787270408E+02  0.19999997098E+02 0.  0.
        -12    1    1    2    0    0  0.11659519427E+01 -0.37375123048E+02  0.22030979606E+02  0.43400729592E+02  0.00000000000E+00 0.  1.
         11    1    3    3    0    0 -0.32158712597E+00  0.33339784255E+01 -0.58818450002E+01  0.67686727864E+01  0.51100000000E-03 0. -1.
        -11    1    3    3    0    0  0.77834854850E+00  0.12616596910E+02  0.21181950846E+01  0.12816828575E+02  0.51100000000E-03 0.  1.
        -12    1    3    3    0    0 -0.16227133653E+01  0.21424547712E+02 -0.18267329690E+02  0.28201769046E+02  0.00000000000E+00 0.  1.
</event>
<event>
 7    1  0.2110035E-010  0.4778727E+02  0.7816164E-02  0.1312668E+00
        -11   -1    0    0    0    0  0.00000000000E+00  0.00000000000E+00  0.45593999997E+02  0.45594000000E+02  0.51100000000E-03 0. -1.
         11   -1    0    0    0    0 -0.00000000000E+00 -0.00000000000E+00 -0.45593999997E+02  0.45594000000E+02  0.51100000000E-03 0.  1.
    9900012    2    1    2    0    0  0.28768303069E+02 -0.30127311688E+02 -0.12180030768E+02  0.47787270507E+02  0.19999997550E+02 0.  0.
        -12    1    1    2    0    0 -0.28768303069E+02  0.30127311688E+02  0.12180030768E+02  0.43400729493E+02  0.00000000000E+00 0.  1.
         11    1    3    3    0    0  0.97023513493E+01 -0.29334620814E+01  0.10867975879E+01  0.10194211629E+02  0.51100000000E-03 0. -1.
        -11    1    3    3    0    0  0.10019550874E+02 -0.10443647369E+02 -0.11478881424E+02  0.18472300590E+02  0.51100000000E-03 0.  1.
         12    1    3    3    0    0  0.90464008459E+01 -0.16750202238E+02 -0.17879469319E+01  0.19120758288E+02  0.00000000000E+00 0. -1.
</event>
<event>
 7    1  0.2110035E-010  0.4778728E+02  0.7816164E-02  0.1312668E+00
        -11   -1    0    0    0    0  0.00000000000E+00  0.00000000000E+00  0.45593999997E+02  0.45594000000E+02  0.51100000000E-03 0. -1.
         11   -1    0    0    0    0 -0.00000000000E+00 -0.00000000000E+00 -0.45593999997E+02  0.45594000000E+02  0.51100000000E-03 0.  1.
    9900012    2    1    2    0    0  0.26558232555E+02 -0.32700658146E+02  0.10437912070E+02  0.47787276872E+02  0.20000026569E+02 0.  0.
        -12    1    1    2    0    0 -0.26558232555E+02  0.32700658146E+02 -0.10437912070E+02  0.43400723128E+02  0.00000000000E+00 0.  1.
         11    1    3    3    0    0  0.90731167014E+01 -0.21501426740E+02 -0.11400661516E+01  0.23365199542E+02  0.51100000000E-03 0. -1.
        -11    1    3    3    0    0  0.14587416325E+02 -0.11519445897E+02  0.10065405069E+02  0.21137708681E+02  0.51100000000E-03 0.  1.
        -12    1    3    3    0    0  0.28976995292E+01  0.32021449111E+00  0.15125731533E+01  0.32843686495E+01  0.00000000000E+00 0.  1.
</event>
<event>
 7    1  0.2110035E-010  0.4778727E+02  0.7816164E-02  0.1312668E+00
        -11   -1    0    0    0    0  0.00000000000E+00  0.00000000000E+00  0.45593999997E+02  0.45594000000E+02  0.51100000000E-03 0. -1.
         11   -1    0    0    0    0 -0.00000000000E+00 -0.00000000000E+00 -0.45593999997E+02  0.45594000000E+02  0.51100000000E-03 0.  1.
    9900012    2    1    2    0    0 -0.36968123258E+02  0.16576250152E+02 -0.15563066887E+02  0.47787271236E+02  0.20000000875E+02 0.  0.
        -12    1    1    2    0    0  0.36968123258E+02 -0.16576250152E+02  0.15563066887E+02  0.43400728764E+02  0.00000000000E+00 0.  1.
         11    1    3    3    0    0 -0.20365704921E+02  0.13068718207E+02 -0.12096599873E+02  0.27053300377E+02  0.51100000000E-03 0. -1.
        -11    1    3    3    0    0 -0.13873068392E+02  0.48161685924E+01  0.16618496429E+01  0.14779013872E+02  0.51100000000E-03 0.  1.
        -12    1    3    3    0    0 -0.27293499439E+01 -0.13086366478E+01 -0.51283166565E+01  0.59549569874E+01  0.00000000000E+00 0.  1.
</event>
<event>
 7    1  0.2110035E-010  0.4778727E+02  0.7816164E-02  0.1312668E+00
        -11   -1    0    0    0    0  0.00000000000E+00  0.00000000000E+00  0.45593999997E+02  0.45594000000E+02  0.51100000000E-03 0.  1.
         11   -1    0    0    0    0 -0.00000000000E+00 -0.00000000000E+00 -0.45593999997E+02  0.45594000000E+02  0.51100000000E-03 0. -1.
    9900012    2    1    2    0    0  0.17141254214E+02  0.16605677921E+02 -0.36249863781E+02  0.47787265451E+02  0.19999974498E+02 0.  0.
        -12    1    1    2    0    0 -0.17141254214E+02 -0.16605677921E+02  0.36249863781E+02  0.43400734549E+02  0.00000000000E+00 0.  1.
         11    1    3    3    0    0  0.26297486143E+01  0.93972575241E+01 -0.99951363263E+01  0.13968778658E+02  0.51100000000E-03 0. -1.
        -11    1    3    3    0    0  0.16360678939E+02  0.58162927676E+01 -0.17079877696E+02  0.24356175793E+02  0.51100000000E-03 0.  1.
         12    1    3    3    0    0 -0.18491733387E+01  0.13921276296E+01 -0.91748497589E+01  0.94623110006E+01  0.00000000000E+00 0. -1.
</event>
<event>
 7    1  0.2110035E-010  0.4778728E+02  0.7816164E-02  0.1312668E+00
        -11   -1    0    0    0    0  0.00000000000E+00  0.00000000000E+00  0.45593999997E+02  0.45594000000E+02  0.51100000000E-03 0.  1.
         11   -1    0    0    0    0 -0.00000000000E+00 -0.00000000000E+00 -0.45593999997E+02  0.45594000000E+02  0.51100000000E-03 0. -1.
    9900012    2    1    2    0    0 -0.24150046717E+02 -0.21148371188E+02 -0.29208638438E+02  0.47787275125E+02  0.20000018603E+02 0.  0.
        -12    1    1    2    0    0  0.24150046717E+02  0.21148371188E+02  0.29208638438E+02  0.43400724875E+02  0.00000000000E+00 0.  1.
         11    1    3    3    0    0 -0.17051438549E+02 -0.15479864185E+02 -0.17204563734E+02  0.28746734864E+02  0.51100000000E-03 0. -1.
        -11    1    3    3    0    0 -0.64196088749E+01 -0.57822584300E+00 -0.52719050210E+00  0.64671209451E+01  0.51100000000E-03 0.  1.
         12    1    3    3    0    0 -0.67899929307E+00 -0.50902811601E+01 -0.11476884201E+02  0.12573419316E+02  0.00000000000E+00 0. -1.
</event>
<event>
 7    1  0.2110035E-010  0.4778727E+02  0.7816164E-02  0.1312668E+00
        -11   -1    0    0    0    0  0.00000000000E+00  0.00000000000E+00  0.45593999997E+02  0.45594000000E+02  0.51100000000E-03 0.  1.
         11   -1    0    0    0    0 -0.00000000000E+00 -0.00000000000E+00 -0.45593999997E+02  0.45594000000E+02  0.51100000000E-03 0. -1.
    9900012    2    1    2    0    0  0.70939338670E+01  0.12643117498E+02 -0.40907833919E+02  0.47787271968E+02  0.20000004210E+02 0.  0.
        -12    1    1    2    0    0 -0.70939338670E+01 -0.12643117498E+02  0.40907833919E+02  0.43400728032E+02  0.00000000000E+00 0.  1.
         11    1    3    3    0    0  0.34294568500E+01  0.64917345954E+01 -0.37892566377E+02  0.38597284609E+02  0.51100000000E-03 0. -1.
        -11    1    3    3    0    0 -0.71995033953E+00  0.41597613740E+00  0.68531109463E+00  0.10775046152E+01  0.51100000000E-03 0.  1.
         12    1    3    3    0    0  0.43844273565E+01  0.57354067656E+01 -0.37005786370E+01  0.81124827433E+01  0.00000000000E+00 0. -1.
</event>
<event>
 7    1  0.2110035E-010  0.4778727E+02  0.7816164E-02  0.1312668E+00
        -11   -1    0    0    0    0  0.00000000000E+00  0.00000000000E+00  0.45593999997E+02  0.45594000000E+02  0.51100000000E-03 0.  1.
         11   -1    0    0    0    0 -0.00000000000E+00 -0.00000000000E+00 -0.45593999997E+02  0.45594000000E+02  0.51100000000E-03 0. -1.
    9900012    2    1    2    0    0  0.63828601866E+01  0.97077665355E+01 -0.41816762524E+02  0.47787271167E+02  0.20000000560E+02 0.  0.
        -12    1    1    2    0    0 -0.63828601866E+01 -0.97077665355E+01  0.41816762524E+02  0.43400728833E+02  0.00000000000E+00 0.  1.
         11    1    3    3    0    0  0.18256186742E+01  0.50724381746E+01 -0.10707856677E+02  0.11988357162E+02  0.51100000000E-03 0.  1.
        -11    1    3    3    0    0  0.43684228482E+01  0.10738189179E+02 -0.21087225568E+02  0.24063725968E+02  0.51100000000E-03 0. -1.
        -12    1    3    3    0    0  0.18881866418E+00 -0.61028608184E+01 -0.10021680279E+02  0.11735188037E+02  0.00000000000E+00 0.  1.
</event>
<event>
 7    1  0.2110035E-010  0.4778727E+02  0.7816164E-02  0.1312668E+00
        -11   -1    0    0    0    0  0.00000000000E+00  0.00000000000E+00  0.45593999997E+02  0.45594000000E+02  0.51100000000E-03 0.  1.
         11   -1    0    0    0    0 -0.00000000000E+00 -0.00000000000E+00 -0.45593999997E+02  0.45594000000E+02  0.51100000000E-03 0. -1.
    9900012    2    1    2    0    0 -0.67527510656E+01 -0.20606711487E+02 -0.37595043490E+02  0.47787268437E+02  0.19999988110E+02 0.  0.
        -12    1    1    2    0    0  0.67527510656E+01  0.20606711487E+02  0.37595043490E+02  0.43400731563E+02  0.00000000000E+00 0.  1.
         11    1    3    3    0    0  0.32664211569E+01 -0.41412240821E+01 -0.67195150575E+01  0.85423139103E+01  0.51100000000E-03 0. -1.
        -11    1    3    3    0    0 -0.78490332457E+01 -0.44554468914E+01 -0.42925322991E+01  0.99942065065E+01  0.51100000000E-03 0.  1.
        -12    1    3    3    0    0 -0.21701389768E+01 -0.12010040513E+02 -0.26582996133E+02  0.29250748020E+02  0.00000000000E+00 0.  1.
</event>
<event>
 7    1  0.2110035E-010  0.4778727E+02  0.7816164E-02  0.1312668E+00
        -11   -1    0    0    0    0  0.00000000000E+00  0.00000000000E+00  0.45593999997E+02  0.45594000000E+02  0.51100000000E-03 0. -1.
         11   -1    0    0    0    0 -0.00000000000E+00 -0.00000000000E+00 -0.45593999997E+02  0.45594000000E+02  0.51100000000E-03 0.  1.
    9900012    2    1    2    0    0 -0.15168650041E+02 -0.39729782243E+02  0.86648757555E+01  0.47787267138E+02  0.19999982187E+02 0.  0.
        -12    1    1    2    0    0  0.15168650041E+02  0.39729782243E+02 -0.86648757555E+01  0.43400732862E+02  0.00000000000E+00 0.  1.
         11    1    3    3    0    0 -0.73998195184E+01 -0.31196635974E+02  0.12619468022E+02  0.34456325956E+02  0.51100000000E-03 0. -1.
        -11    1    3    3    0    0 -0.55816483978E+01 -0.79164290760E+01 -0.12006137811E+01  0.97604365611E+01  0.51100000000E-03 0.  1.
        -12    1    3    3    0    0 -0.21871821247E+01 -0.61671719327E+00 -0.27539784856E+01  0.35705046201E+01  0.00000000000E+00 0.  1.
</event>
<event>
 7    1  0.2110035E-010  0.4778724E+02  0.7816164E-02  0.1312668E+00
        -11   -1    0    0    0    0  0.00000000000E+00  0.00000000000E+00  0.45593999997E+02  0.45594000000E+02  0.51100000000E-03 0. -1.
         11   -1    0    0    0    0 -0.00000000000E+00 -0.00000000000E+00 -0.45593999997E+02  0.45594000000E+02  0.51100000000E-03 0.  1.
    9900012    2    1    2    0    0  0.20434383735E+02 -0.25366160159E+02  0.28681356967E+02  0.47787235522E+02  0.19999838036E+02 0.  0.
        -12    1    1    2    0    0 -0.20434383735E+02  0.25366160159E+02 -0.28681356967E+02  0.43400764478E+02  0.00000000000E+00 0.  1.
         11    1    3    3    0    0  0.90008504602E+01 -0.81849263687E+01  0.14803097758E+02  0.19160898522E+02  0.51100000000E-03 0. -1.
        -11    1    3    3    0    0  0.10403694619E+01 -0.24801975520E+01  0.98053754352E+01  0.10167553108E+02  0.51100000000E-03 0.  1.
        -12    1    3    3    0    0  0.10393163813E+02 -0.14701036239E+02  0.40728837734E+01  0.18458783892E+02  0.00000000000E+00 0.  1.
</event>
<event>
 7    1  0.2110035E-010  0.4778727E+02  0.7816164E-02  0.1312668E+00
        -11   -1    0    0    0    0  0.00000000000E+00  0.00000000000E+00  0.45593999997E+02  0.45594000000E+02  0.51100000000E-03 0.  1.
         11   -1    0    0    0    0 -0.00000000000E+00 -0.00000000000E+00 -0.45593999997E+02  0.45594000000E+02  0.51100000000E-03 0. -1.
    9900012    2    1    2    0    0 -0.38392522871E+01 -0.35910096408E+01 -0.43081180542E+02  0.47787270452E+02  0.19999997299E+02 0.  0.
        -12    1    1    2    0    0  0.38392522871E+01  0.35910096408E+01  0.43081180542E+02  0.43400729548E+02  0.00000000000E+00 0.  1.
         11    1    3    3    0    0  0.48624352290E+00  0.37364535449E+01 -0.35631523088E+01  0.51859013193E+01  0.51100000000E-03 0.  1.
        -11    1    3    3    0    0  0.98160763031E+00 -0.94965892227E+01 -0.30076524673E+02  0.31555444808E+02  0.51100000000E-03 0. -1.
         12    1    3    3    0    0 -0.53071034403E+01  0.21691260371E+01 -0.94415035607E+01  0.11045924324E+02  0.00000000000E+00 0. -1.
</event>
<event>
 7    1  0.2110035E-010  0.4778727E+02  0.7816164E-02  0.1312668E+00
        -11   -1    0    0    0    0  0.00000000000E+00  0.00000000000E+00  0.45593999997E+02  0.45594000000E+02  0.51100000000E-03 0. -1.
         11   -1    0    0    0    0 -0.00000000000E+00 -0.00000000000E+00 -0.45593999997E+02  0.45594000000E+02  0.51100000000E-03 0.  1.
    9900012    2    1    2    0    0  0.31825121895E+02  0.14984346613E+02  0.25421538525E+02  0.47787266734E+02  0.19999980348E+02 0.  0.
        -12    1    1    2    0    0 -0.31825121895E+02 -0.14984346613E+02 -0.25421538525E+02  0.43400733266E+02  0.00000000000E+00 0.  1.
         11    1    3    3    0    0  0.70131416196E+01  0.48830238004E+00  0.17699494134E+01  0.72495045195E+01  0.51100000000E-03 0. -1.
        -11    1    3    3    0    0  0.25006994541E+02  0.10567117721E+02  0.14959080778E+02  0.30996578052E+02  0.51100000000E-03 0.  1.
         12    1    3    3    0    0 -0.19501426648E+00  0.39289265126E+01  0.86925083336E+01  0.95411841631E+01  0.00000000000E+00 0. -1.
</event>
<event>
 7    1  0.2110035E-010  0.4778727E+02  0.7816164E-02  0.1312668E+00
        -11   -1    0    0    0    0  0.00000000000E+00  0.00000000000E+00  0.45593999997E+02  0.45594000000E+02  0.51100000000E-03 0.  1.
         11   -1    0    0    0    0 -0.00000000000E+00 -0.00000000000E+00 -0.45593999997E+02  0.45594000000E+02  0.51100000000E-03 0. -1.
    9900012    2    1    2    0    0 -0.25562492543E+02 -0.33363902385E+02 -0.10818166492E+02  0.47787265748E+02  0.19999975853E+02 0.  0.
        -12    1    1    2    0    0  0.25562492543E+02  0.33363902385E+02  0.10818166492E+02  0.43400734252E+02  0.00000000000E+00 0.  1.
         11    1    3    3    0    0 -0.85444558117E+01 -0.54499271326E+01 -0.56350392529E+01  0.11595822460E+02  0.51100000000E-03 0. -1.
        -11    1    3    3    0    0 -0.44353886430E+01 -0.87043572118E+01 -0.85498510572E+01  0.12982236335E+02  0.51100000000E-03 0.  1.
         12    1    3    3    0    0 -0.12582648088E+02 -0.19209618041E+02  0.33667238186E+01  0.23209206954E+02  0.00000000000E+00 0. -1.
</event>
<event>
 7    1  0.2110035E-010  0.4778728E+02  0.7816164E-02  0.1312668E+00
        -11   -1    0    0    0    0  0.00000000000E+00  0.00000000000E+00  0.45593999997E+02  0.45594000000E+02  0.51100000000E-03 0.  1.
         11   -1    0    0    0    0 -0.00000000000E+00 -0.00000000000E+00 -0.45593999997E+02  0.45594000000E+02  0.51100000000E-03 0. -1.
    9900012    2    1    2    0    0 -0.11815975234E+02  0.41547693689E+02  0.42183716944E+01  0.47787276718E+02  0.20000025869E+02 0.  0.
        -12    1    1    2    0    0  0.11815975234E+02 -0.41547693689E+02 -0.42183716944E+01  0.43400723282E+02  0.00000000000E+00 0.  1.
         11    1    3    3    0    0 -0.75370221262E+01  0.72747744919E+01 -0.55590103185E+00  0.10489903367E+02  0.51100000000E-03 0. -1.
        -11    1    3    3    0    0 -0.68308857085E+01  0.82447269706E+01  0.28170866318E+01  0.11071246530E+02  0.51100000000E-03 0.  1.
         12    1    3    3    0    0  0.25519326007E+01  0.26028192227E+02  0.19571860945E+01  0.26226126821E+02  0.00000000000E+00 0. -1.
</event>
<event>
 7    1  0.2110035E-010  0.4778727E+02  0.7816164E-02  0.1312668E+00
        -11   -1    0    0    0    0  0.00000000000E+00  0.00000000000E+00  0.45593999997E+02  0.45594000000E+02  0.51100000000E-03 0.  1.
         11   -1    0    0    0    0 -0.00000000000E+00 -0.00000000000E+00 -0.45593999997E+02  0.45594000000E+02  0.51100000000E-03 0. -1.
    9900012    2    1    2    0    0 -0.24875922593E+02  0.39732920468E+01 -0.35341543451E+02  0.47787271112E+02  0.20000000308E+02 0.  0.
        -12    1    1    2    0    0  0.24875922593E+02 -0.39732920468E+01  0.35341543451E+02  0.43400728888E+02  0.00000000000E+00 0.  1.
         11    1    3    3    0    0  0.76288692080E+00 -0.17904287880E+01 -0.17855003794E+01  0.26411443665E+01  0.51100000000E-03 0. -1.
        -11    1    3    3    0    0 -0.31719212141E+01 -0.43569980402E+01 -0.42927286840E+01  0.68899953502E+01  0.51100000000E-03 0.  1.
         12    1    3    3    0    0 -0.22466888299E+02  0.10120718875E+02 -0.29263314387E+02  0.38256131395E+02  0.00000000000E+00 0. -1.
</event>
<event>
 7    1  0.2110035E-010  0.4778727E+02  0.7816164E-02  0.1312668E+00
        -11   -1    0    0    0    0  0.00000000000E+00  0.00000000000E+00  0.45593999997E+02  0.45594000000E+02  0.51100000000E-03 0.  1.
         11   -1    0    0    0    0 -0.00000000000E+00 -0.00000000000E+00 -0.45593999997E+02  0.45594000000E+02  0.51100000000E-03 0. -1.
    9900012    2    1    2    0    0 -0.25882401196E+02  0.47291343111E+01 -0.34516081530E+02  0.47787270891E+02  0.19999999301E+02 0.  0.
        -12    1    1    2    0    0  0.25882401196E+02 -0.47291343111E+01  0.34516081530E+02  0.43400729109E+02  0.00000000000E+00 0.  1.
         11    1    3    3    0    0 -0.12241151903E+02  0.19498867134E+01 -0.82856015538E+01  0.14909696559E+02  0.51100000000E-03 0. -1.
        -11    1    3    3    0    0 -0.14405625607E+02  0.41958794691E+01 -0.13934768489E+02  0.20476943785E+02  0.51100000000E-03 0.  1.
        -12    1    3    3    0    0  0.76437631423E+00 -0.14166318714E+01 -0.12295711487E+02  0.12400630547E+02  0.00000000000E+00 0.  1.
</event>
<event>
 7    1  0.2110035E-010  0.4778727E+02  0.7816164E-02  0.1312668E+00
        -11   -1    0    0    0    0  0.00000000000E+00  0.00000000000E+00  0.45593999997E+02  0.45594000000E+02  0.51100000000E-03 0.  1.
         11   -1    0    0    0    0 -0.00000000000E+00 -0.00000000000E+00 -0.45593999997E+02  0.45594000000E+02  0.51100000000E-03 0. -1.
    9900012    2    1    2    0    0  0.30880811390E+02  0.15390622230E+02 -0.26327316125E+02  0.47787270293E+02  0.19999996573E+02 0.  0.
        -12    1    1    2    0    0 -0.30880811390E+02 -0.15390622230E+02  0.26327316125E+02  0.43400729707E+02  0.00000000000E+00 0.  1.
         11    1    3    3    0    0  0.30086579720E+01  0.48641407910E+01 -0.89973436116E+01  0.10661335786E+02  0.51100000000E-03 0. -1.
        -11    1    3    3    0    0 -0.81261453104E+00 -0.65573601485E+00  0.87203664601E+00  0.13604338537E+01  0.51100000000E-03 0.  1.
         12    1    3    3    0    0  0.28684767949E+02  0.11182217454E+02 -0.18202009160E+02  0.35765500653E+02  0.00000000000E+00 0. -1.
</event>
<event>
 7    1  0.2110035E-010  0.4778727E+02  0.7816164E-02  0.1312668E+00
        -11   -1    0    0    0    0  0.00000000000E+00  0.00000000000E+00  0.45593999997E+02  0.45594000000E+02  0.51100000000E-03 0.  1.
         11   -1    0    0    0    0 -0.00000000000E+00 -0.00000000000E+00 -0.45593999997E+02  0.45594000000E+02  0.51100000000E-03 0. -1.
    9900012    2    1    2    0    0 -0.90197601375E+01 -0.19964392351E+02 -0.37465861010E+02  0.47787265259E+02  0.19999973621E+02 0.  0.
        -12    1    1    2    0    0  0.90197601375E+01  0.19964392351E+02  0.37465861010E+02  0.43400734741E+02  0.00000000000E+00 0.  1.
         11    1    3    3    0    0 -0.72540801384E+01 -0.60774189574E+01 -0.82690819350E+01  0.12567196034E+02  0.51100000000E-03 0. -1.
        -11    1    3    3    0    0  0.40415434134E+01 -0.21546049992E+01 -0.19230915466E+01  0.49673611931E+01  0.51100000000E-03 0.  1.
         12    1    3    3    0    0 -0.58072234124E+01 -0.11732368394E+02 -0.27273687528E+02  0.30252708032E+02  0.00000000000E+00 0. -1.
</event>
<event>
 7    1  0.2110035E-010  0.4778727E+02  0.7816164E-02  0.1312668E+00
        -11   -1    0    0    0    0  0.00000000000E+00  0.00000000000E+00  0.45593999997E+02  0.45594000000E+02  0.51100000000E-03 0.  1.
         11   -1    0    0    0    0 -0.00000000000E+00 -0.00000000000E+00 -0.45593999997E+02  0.45594000000E+02  0.51100000000E-03 0. -1.
    9900012    2    1    2    0    0 -0.38771614355E+02  0.18093879610E+02  0.72798731038E+01  0.47787272916E+02  0.20000008532E+02 0.  0.
        -12    1    1    2    0    0  0.38771614355E+02 -0.18093879610E+02 -0.72798731038E+01  0.43400727084E+02  0.00000000000E+00 0.  1.
         11    1    3    3    0    0 -0.12247290144E+02  0.78029881213E+01 -0.36090057304E+01  0.14963544437E+02  0.51100000000E-03 0. -1.
        -11    1    3    3    0    0 -0.22521036955E+01 -0.21305864368E+01  0.32858645587E+01  0.45175519675E+01  0.51100000000E-03 0.  1.
        -12    1    3    3    0    0 -0.24272220515E+02  0.12421477926E+02  0.76030142754E+01  0.28306176511E+02  0.00000000000E+00 0.  1.
</event>
<event>
 7    1  0.2110035E-010  0.4778728E+02  0.7816164E-02  0.1312668E+00
        -11   -1    0    0    0    0  0.00000000000E+00  0.00000000000E+00  0.45593999997E+02  0.45594000000E+02  0.51100000000E-03 0.  1.
         11   -1    0    0    0    0 -0.00000000000E+00 -0.00000000000E+00 -0.45593999997E+02  0.45594000000E+02  0.51100000000E-03 0. -1.
    9900012    2    1    2    0    0 -0.12815615721E+02 -0.33756496204E+02 -0.24080735701E+02  0.47787275649E+02  0.20000020995E+02 0.  0.
        -12    1    1    2    0    0  0.12815615721E+02  0.33756496204E+02  0.24080735701E+02  0.43400724351E+02  0.00000000000E+00 0.  1.
         11    1    3    3    0    0 -0.11801394831E+02 -0.17020690971E+02 -0.21360132643E+02  0.29752850416E+02  0.51100000000E-03 0. -1.
        -11    1    3    3    0    0  0.60785094744E+00 -0.33087768502E+01  0.17473483208E+01  0.37908723843E+01  0.51100000000E-03 0.  1.
        -12    1    3    3    0    0 -0.16220718379E+01 -0.13427028383E+02 -0.44679513785E+01  0.14243552849E+02  0.00000000000E+00 0.  1.
</event>
<event>
 7    1  0.2110035E-010  0.4778728E+02  0.7816164E-02  0.1312668E+00
        -11   -1    0    0    0    0  0.00000000000E+00  0.00000000000E+00  0.45593999997E+02  0.45594000000E+02  0.51100000000E-03 0.  1.
         11   -1    0    0    0    0 -0.00000000000E+00 -0.00000000000E+00 -0.45593999997E+02  0.45594000000E+02  0.51100000000E-03 0. -1.
    9900012    2    1    2    0    0 -0.21229209604E+02 -0.10432471340E+02 -0.36388272421E+02  0.47787283779E+02  0.20000058063E+02 0.  0.
        -12    1    1    2    0    0  0.21229209604E+02  0.10432471340E+02  0.36388272421E+02  0.43400716221E+02  0.00000000000E+00 0.  1.
         11    1    3    3    0    0 -0.74798029632E+01 -0.60546886534E+01 -0.21646944131E+02  0.23689594710E+02  0.51100000000E-03 0.  1.
        -11    1    3    3    0    0 -0.15056932189E+01 -0.53640373219E+01 -0.98911641193E+00  0.56584768266E+01  0.51100000000E-03 0. -1.
         12    1    3    3    0    0 -0.12243713422E+02  0.98625463577E+00 -0.13752211878E+02  0.18439212242E+02  0.00000000000E+00 0. -1.
</event>
<event>
 7    1  0.2110035E-010  0.4778727E+02  0.7816164E-02  0.1312668E+00
        -11   -1    0    0    0    0  0.00000000000E+00  0.00000000000E+00  0.45593999997E+02  0.45594000000E+02  0.51100000000E-03 0.  1.
         11   -1    0    0    0    0 -0.00000000000E+00 -0.00000000000E+00 -0.45593999997E+02  0.45594000000E+02  0.51100000000E-03 0. -1.
    9900012    2    1    2    0    0 -0.39350179998E+02  0.14994984764E+02 -0.10504143903E+02  0.47787271053E+02  0.20000000040E+02 0.  0.
        -12    1    1    2    0    0  0.39350179998E+02 -0.14994984764E+02  0.10504143903E+02  0.43400728947E+02  0.00000000000E+00 0.  1.
         11    1    3    3    0    0 -0.16125302107E+02  0.12157234512E+02 -0.77034917932E+01  0.21614058043E+02  0.51100000000E-03 0. -1.
        -11    1    3    3    0    0 -0.66706368432E+01  0.61917331160E+01 -0.37259738818E+00  0.91089946727E+01  0.51100000000E-03 0.  1.
         12    1    3    3    0    0 -0.16554241048E+02 -0.33539828643E+01 -0.24280547216E+01  0.17064218337E+02  0.00000000000E+00 0. -1.
</event>
<event>
 7    1  0.2110035E-010  0.4778727E+02  0.7816164E-02  0.1312668E+00
        -11   -1    0    0    0    0  0.00000000000E+00  0.00000000000E+00  0.45593999997E+02  0.45594000000E+02  0.51100000000E-03 0.  1.
         11   -1    0    0    0    0 -0.00000000000E+00 -0.00000000000E+00 -0.45593999997E+02  0.45594000000E+02  0.51100000000E-03 0. -1.
    9900012    2    1    2    0    0 -0.11396936255E+02 -0.26144999659E+02 -0.32713484286E+02  0.47787271696E+02  0.20000002971E+02 0.  0.
        -12    1    1    2    0    0  0.11396936255E+02  0.26144999659E+02  0.32713484286E+02  0.43400728304E+02  0.00000000000E+00 0.  1.
         11    1    3    3    0    0 -0.12537325152E+02 -0.20966677175E+02 -0.18808507065E+02  0.30830926227E+02  0.51100000000E-03 0. -1.
        -11    1    3    3    0    0  0.44680080140E+00  0.10046105686E+01  0.54257269068E+00  0.12260745232E+01  0.51100000000E-03 0.  1.
        -12    1    3    3    0    0  0.69358809542E+00 -0.61829330525E+01 -0.14447549912E+02  0.15730270946E+02  0.00000000000E+00 0.  1.
</event>
<event>
 7    1  0.2110035E-010  0.4778727E+02  0.7816164E-02  0.1312668E+00
        -11   -1    0    0    0    0  0.00000000000E+00  0.00000000000E+00  0.45593999997E+02  0.45594000000E+02  0.51100000000E-03 0.  1.
         11   -1    0    0    0    0 -0.00000000000E+00 -0.00000000000E+00 -0.45593999997E+02  0.45594000000E+02  0.51100000000E-03 0. -1.
    9900012    2    1    2    0    0 -0.10080398192E+02 -0.41384291723E+02 -0.83276281764E+01  0.47787269359E+02  0.19999992317E+02 0.  0.
        -12    1    1    2    0    0  0.10080398192E+02  0.41384291723E+02  0.83276281764E+01  0.43400730641E+02  0.00000000000E+00 0.  1.
         11    1    3    3    0    0  0.15325592972E+01 -0.66246260479E+00  0.15226303744E+01  0.22596455961E+01  0.51100000000E-03 0. -1.
        -11    1    3    3    0    0 -0.14962076964E+01 -0.15937772465E+02  0.22232980620E+01  0.16161506216E+02  0.51100000000E-03 0.  1.
         12    1    3    3    0    0 -0.10116749793E+02 -0.24784056652E+02 -0.12073556613E+02  0.29366117547E+02  0.00000000000E+00 0. -1.
</event>
<event>
 7    1  0.2110035E-010  0.4778727E+02  0.7816164E-02  0.1312668E+00
        -11   -1    0    0    0    0  0.00000000000E+00  0.00000000000E+00  0.45593999997E+02  0.45594000000E+02  0.51100000000E-03 0.  1.
         11   -1    0    0    0    0 -0.00000000000E+00 -0.00000000000E+00 -0.45593999997E+02  0.45594000000E+02  0.51100000000E-03 0. -1.
    9900012    2    1    2    0    0 -0.18605155251E+02 -0.14380674117E+02 -0.36478314220E+02  0.47787274220E+02  0.20000014476E+02 0.  0.
        -12    1    1    2    0    0  0.18605155251E+02  0.14380674117E+02  0.36478314220E+02  0.43400725780E+02  0.00000000000E+00 0.  1.
         11    1    3    3    0    0 -0.17244887718E+02 -0.16572242983E+02 -0.35424318817E+02  0.42742341464E+02  0.51100000000E-03 0. -1.
        -11    1    3    3    0    0 -0.17502330781E+01  0.16411367885E+01 -0.24903227943E+01  0.34580852602E+01  0.51100000000E-03 0.  1.
         12    1    3    3    0    0  0.38996554526E+00  0.55043207767E+00  0.14363273916E+01  0.15868474956E+01  0.00000000000E+00 0. -1.
</event>
<event>
 7    1  0.2110035E-010  0.4778727E+02  0.7816164E-02  0.1312668E+00
        -11   -1    0    0    0    0  0.00000000000E+00  0.00000000000E+00  0.45593999997E+02  0.45594000000E+02  0.51100000000E-03 0.  1.
         11   -1    0    0    0    0 -0.00000000000E+00 -0.00000000000E+00 -0.45593999997E+02  0.45594000000E+02  0.51100000000E-03 0. -1.
    9900012    2    1    2    0    0  0.35384704616E+02  0.29196553275E+01 -0.24960398242E+02  0.47787272029E+02  0.20000004488E+02 0.  0.
        -12    1    1    2    0    0 -0.35384704616E+02 -0.29196553275E+01  0.24960398242E+02  0.43400727971E+02  0.00000000000E+00 0.  1.
         11    1    3    3    0    0  0.29137387841E+01  0.23867188971E+01  0.10331284108E+01  0.39055928321E+01  0.51100000000E-03 0. -1.
        -11    1    3    3    0    0  0.75180431520E+01 -0.21615945527E+01 -0.14063180798E+02  0.16092436679E+02  0.51100000000E-03 0.  1.
         12    1    3    3    0    0  0.24952922680E+02  0.26945309831E+01 -0.11930345855E+02  0.27789242518E+02  0.00000000000E+00 0. -1.
</event>
<event>
 7    1  0.2110035E-010  0.4778727E+02  0.7816164E-02  0.1312668E+00
        -11   -1    0    0    0    0  0.00000000000E+00  0.00000000000E+00  0.45593999997E+02  0.45594000000E+02  0.51100000000E-03 0.  1.
         11   -1    0    0    0    0 -0.00000000000E+00 -0.00000000000E+00 -0.45593999997E+02  0.45594000000E+02  0.51100000000E-03 0. -1.
    9900012    2    1    2    0    0 -0.15288425402E+02  0.12376198618E+02 -0.38687425953E+02  0.47787272237E+02  0.20000005437E+02 0.  0.
        -12    1    1    2    0    0  0.15288425402E+02 -0.12376198618E+02  0.38687425953E+02  0.43400727763E+02  0.00000000000E+00 0.  1.
         11    1    3    3    0    0 -0.55242053699E+01  0.14325899774E+01 -0.38985129401E+01  0.69114081356E+01  0.51100000000E-03 0. -1.
        -11    1    3    3    0    0 -0.54478057416E+01  0.74173480693E+01 -0.48118916872E+01  0.10385082650E+02  0.51100000000E-03 0.  1.
         12    1    3    3    0    0 -0.43164142908E+01  0.35262605714E+01 -0.29977021326E+02  0.30490781451E+02  0.00000000000E+00 0. -1.
</event>
<event>
 7    1  0.2110035E-010  0.4778727E+02  0.7816164E-02  0.1312668E+00
        -11   -1    0    0    0    0  0.00000000000E+00  0.00000000000E+00  0.45593999997E+02  0.45594000000E+02  0.51100000000E-03 0.  1.
         11   -1    0    0    0    0 -0.00000000000E+00 -0.00000000000E+00 -0.45593999997E+02  0.45594000000E+02  0.51100000000E-03 0. -1.
    9900012    2    1    2    0    0  0.40089289784E+02  0.55038730701E+00 -0.16618334959E+02  0.47787272605E+02  0.20000007116E+02 0.  0.
        -12    1    1    2    0    0 -0.40089289784E+02 -0.55038730701E+00  0.16618334959E+02  0.43400727395E+02  0.00000000000E+00 0.  1.
         11    1    3    3    0    0  0.11909144304E+02 -0.21355874651E+01 -0.68291018763E+00  0.12118366988E+02  0.51100000000E-03 0. -1.
        -11    1    3    3    0    0  0.26413748624E+01  0.42572243053E+01 -0.69132579699E+01  0.85377957324E+01  0.51100000000E-03 0.  1.
         12    1    3    3    0    0  0.25538770618E+02 -0.15712495331E+01 -0.90221668011E+01  0.27131109885E+02  0.00000000000E+00 0. -1.
</event>
<event>
 7    1  0.2110035E-010  0.4778727E+02  0.7816164E-02  0.1312668E+00
        -11   -1    0    0    0    0  0.00000000000E+00  0.00000000000E+00  0.45593999997E+02  0.45594000000E+02  0.51100000000E-03 0.  1.
         11   -1    0    0    0    0 -0.00000000000E+00 -0.00000000000E+00 -0.45593999997E+02  0.45594000000E+02  0.51100000000E-03 0. -1.
    9900012    2    1    2    0    0 -0.64447889187E+01  0.20221398305E+01 -0.42871888159E+02  0.47787272495E+02  0.20000006612E+02 0.  0.
        -12    1    1    2    0    0  0.64447889187E+01 -0.20221398305E+01  0.42871888159E+02  0.43400727505E+02  0.00000000000E+00 0.  1.
         11    1    3    3    0    0 -0.27726670984E+00 -0.35430533611E+01 -0.17786722683E+02  0.18138291210E+02  0.51100000000E-03 0. -1.
        -11    1    3    3    0    0 -0.10028430143E+02  0.22146647102E+01 -0.19746211028E+02  0.22257290966E+02  0.51100000000E-03 0.  1.
         12    1    3    3    0    0  0.38609079338E+01  0.33505284815E+01 -0.53389544478E+01  0.73916903192E+01  0.00000000000E+00 0. -1.
</event>
<event>
 7    1  0.2110035E-010  0.4778729E+02  0.7816164E-02  0.1312668E+00
        -11   -1    0    0    0    0  0.00000000000E+00  0.00000000000E+00  0.45593999997E+02  0.45594000000E+02  0.51100000000E-03 0. -1.
         11   -1    0    0    0    0 -0.00000000000E+00 -0.00000000000E+00 -0.45593999997E+02  0.45594000000E+02  0.51100000000E-03 0.  1.
    9900012    2    1    2    0    0  0.38655518278E+02  0.10896415376E+01  0.19702422611E+02  0.47787287232E+02  0.20000073808E+02 0.  0.
        -12    1    1    2    0    0 -0.38655518278E+02 -0.10896415376E+01 -0.19702422611E+02  0.43400712768E+02  0.00000000000E+00 0.  1.
         11    1    3    3    0    0  0.32853774919E+02 -0.20757570173E+01  0.16837291446E+02  0.36975311725E+02  0.51100000000E-03 0. -1.
        -11    1    3    3    0    0  0.61632593669E+01  0.21914547563E+01 -0.11701511541E+01  0.66451105301E+01  0.51100000000E-03 0.  1.
        -12    1    3    3    0    0 -0.36151600867E+00  0.97394379866E+00  0.40352823191E+01  0.41668649776E+01  0.00000000000E+00 0.  1.
</event>
<event>
 7    1  0.2110035E-010  0.4778726E+02  0.7816164E-02  0.1312668E+00
        -11   -1    0    0    0    0  0.00000000000E+00  0.00000000000E+00  0.45593999997E+02  0.45594000000E+02  0.51100000000E-03 0.  1.
         11   -1    0    0    0    0 -0.00000000000E+00 -0.00000000000E+00 -0.45593999997E+02  0.45594000000E+02  0.51100000000E-03 0. -1.
    9900012    2    1    2    0    0 -0.22827393521E+02 -0.17962302178E+02 -0.32247321820E+02  0.47787263150E+02  0.19999964008E+02 0.  0.
        -12    1    1    2    0    0  0.22827393521E+02  0.17962302178E+02  0.32247321820E+02  0.43400736850E+02  0.00000000000E+00 0.  1.
         11    1    3    3    0    0 -0.97534552517E+01 -0.49205555274E+01 -0.36250798753E+00  0.10930378234E+02  0.51100000000E-03 0.  1.
        -11    1    3    3    0    0 -0.35744596696E+01 -0.37830962934E+01 -0.97251613760E+01  0.11030292088E+02  0.51100000000E-03 0. -1.
        -12    1    3    3    0    0 -0.94994785998E+01 -0.92586503576E+01 -0.22159652457E+02  0.25826592828E+02  0.00000000000E+00 0.  1.
</event>
<event>
 7    1  0.2110035E-010  0.4778727E+02  0.7816164E-02  0.1312668E+00
        -11   -1    0    0    0    0  0.00000000000E+00  0.00000000000E+00  0.45593999997E+02  0.45594000000E+02  0.51100000000E-03 0.  1.
         11   -1    0    0    0    0 -0.00000000000E+00 -0.00000000000E+00 -0.45593999997E+02  0.45594000000E+02  0.51100000000E-03 0. -1.
    9900012    2    1    2    0    0  0.33831811932E+02  0.25463395175E+02  0.95208890231E+01  0.47787270511E+02  0.19999997568E+02 0.  0.
        -12    1    1    2    0    0 -0.33831811932E+02 -0.25463395175E+02 -0.95208890231E+01  0.43400729489E+02  0.00000000000E+00 0.  1.
         11    1    3    3    0    0  0.89720790072E+00 -0.27853444043E+01  0.17519429564E+01  0.34106348165E+01  0.51100000000E-03 0. -1.
        -11    1    3    3    0    0  0.66231868789E+01  0.43244618720E+01 -0.28050137573E+00  0.79149387994E+01  0.51100000000E-03 0.  1.
         12    1    3    3    0    0  0.26311417152E+02  0.23924277707E+02  0.80494474425E+01  0.36461696895E+02  0.00000000000E+00 0. -1.
</event>
<event>
 7    1  0.2110035E-010  0.4778727E+02  0.7816164E-02  0.1312668E+00
        -11   -1    0    0    0    0  0.00000000000E+00  0.00000000000E+00  0.45593999997E+02  0.45594000000E+02  0.51100000000E-03 0.  1.
         11   -1    0    0    0    0 -0.00000000000E+00 -0.00000000000E+00 -0.45593999997E+02  0.45594000000E+02  0.51100000000E-03 0. -1.
    9900012    2    1    2    0    0  0.28394248328E+01 -0.11024789878E+02 -0.41880959581E+02  0.47787273040E+02  0.20000009097E+02 0.  0.
        -12    1    1    2    0    0 -0.28394248328E+01  0.11024789878E+02  0.41880959581E+02  0.43400726960E+02  0.00000000000E+00 0.  1.
         11    1    3    3    0    0 -0.43689535310E+01 -0.17956451650E+01 -0.44013663166E+01  0.64563242041E+01  0.51100000000E-03 0. -1.
        -11    1    3    3    0    0  0.67262927632E+01 -0.53149456385E+00 -0.73948698163E+01  0.10010474548E+02  0.51100000000E-03 0.  1.
         12    1    3    3    0    0  0.48208560054E+00 -0.86976501495E+01 -0.30084723448E+02  0.31320474288E+02  0.00000000000E+00 0. -1.
</event>
<event>
 7    1  0.2110035E-010  0.4778727E+02  0.7816164E-02  0.1312668E+00
        -11   -1    0    0    0    0  0.00000000000E+00  0.00000000000E+00  0.45593999997E+02  0.45594000000E+02  0.51100000000E-03 0.  1.
         11   -1    0    0    0    0 -0.00000000000E+00 -0.00000000000E+00 -0.45593999997E+02  0.45594000000E+02  0.51100000000E-03 0. -1.
    9900012    2    1    2    0    0  0.31233617042E+02  0.21508037979E+02 -0.21106607586E+02  0.47787269419E+02  0.19999992589E+02 0.  0.
        -12    1    1    2    0    0 -0.31233617042E+02 -0.21508037979E+02  0.21106607586E+02  0.43400730581E+02  0.00000000000E+00 0.  1.
         11    1    3    3    0    0  0.10739812918E+02  0.12609199114E+02 -0.12415981292E+02  0.20700050133E+02  0.51100000000E-03 0. -1.
        -11    1    3    3    0    0  0.77616866878E+01  0.16169854735E+01 -0.95288971788E+01  0.12395898675E+02  0.51100000000E-03 0.  1.
        -12    1    3    3    0    0  0.12732117436E+02  0.72818533911E+01  0.83827088508E+00  0.14691320610E+02  0.00000000000E+00 0.  1.
</event>
<event>
 7    1  0.2110035E-010  0.4778727E+02  0.7816164E-02  0.1312668E+00
        -11   -1    0    0    0    0  0.00000000000E+00  0.00000000000E+00  0.45593999997E+02  0.45594000000E+02  0.51100000000E-03 0. -1.
         11   -1    0    0    0    0 -0.00000000000E+00 -0.00000000000E+00 -0.45593999997E+02  0.45594000000E+02  0.51100000000E-03 0.  1.
    9900012    2    1    2    0    0 -0.91456275576E+01  0.40496241757E+02  0.12650520650E+02  0.47787265299E+02  0.19999973805E+02 0.  0.
        -12    1    1    2    0    0  0.91456275576E+01 -0.40496241757E+02 -0.12650520650E+02  0.43400734701E+02  0.00000000000E+00 0.  1.
         11    1    3    3    0    0  0.15563917607E+00  0.66850939056E+00  0.58653795077E+01  0.59054047608E+01  0.51100000000E-03 0. -1.
        -11    1    3    3    0    0 -0.12200006630E+01  0.16975795595E+02  0.40025907948E+01  0.17483900338E+02  0.51100000000E-03 0.  1.
         12    1    3    3    0    0 -0.80812660706E+01  0.22851936771E+02  0.27825503475E+01  0.24397960200E+02  0.00000000000E+00 0. -1.
</event>
<event>
 7    1  0.2110035E-010  0.4778728E+02  0.7816164E-02  0.1312668E+00
        -11   -1    0    0    0    0  0.00000000000E+00  0.00000000000E+00  0.45593999997E+02  0.45594000000E+02  0.51100000000E-03 0.  1.
         11   -1    0    0    0    0 -0.00000000000E+00 -0.00000000000E+00 -0.45593999997E+02  0.45594000000E+02  0.51100000000E-03 0. -1.
    9900012    2    1    2    0    0 -0.13496607874E+02 -0.16980832791E+02 -0.37591430016E+02  0.47787277459E+02  0.20000029248E+02 0.  0.
        -12    1    1    2    0    0  0.13496607874E+02  0.16980832791E+02  0.37591430016E+02  0.43400722541E+02  0.00000000000E+00 0.  1.
         11    1    3    3    0    0 -0.52212415738E+01 -0.10321115261E+02 -0.19530433327E+02  0.22698559646E+02  0.51100000000E-03 0. -1.
        -11    1    3    3    0    0 -0.95638613018E+01  0.20671062682E+00 -0.14155994419E+02  0.17085150001E+02  0.51100000000E-03 0.  1.
         12    1    3    3    0    0  0.12884950014E+01 -0.68664281571E+01 -0.39050022701E+01  0.80035678128E+01  0.00000000000E+00 0. -1.
</event>
<event>
 7    1  0.2110035E-010  0.4778727E+02  0.7816164E-02  0.1312668E+00
        -11   -1    0    0    0    0  0.00000000000E+00  0.00000000000E+00  0.45593999997E+02  0.45594000000E+02  0.51100000000E-03 0. -1.
         11   -1    0    0    0    0 -0.00000000000E+00 -0.00000000000E+00 -0.45593999997E+02  0.45594000000E+02  0.51100000000E-03 0.  1.
    9900012    2    1    2    0    0  0.33002513463E+02 -0.28045523673E+02 -0.28117033085E+01  0.47787274563E+02  0.20000016043E+02 0.  0.
        -12    1    1    2    0    0 -0.33002513463E+02  0.28045523673E+02  0.28117033085E+01  0.43400725437E+02  0.00000000000E+00 0.  1.
         11    1    3    3    0    0  0.54224562094E+01 -0.10171845198E+02  0.20239826868E+01  0.11703246227E+02  0.51100000000E-03 0. -1.
        -11    1    3    3    0    0  0.20211595802E+02 -0.15512379076E+02 -0.93336189043E+01  0.27134092054E+02  0.51100000000E-03 0.  1.
         12    1    3    3    0    0  0.73684614510E+01 -0.23612993991E+01  0.44979329089E+01  0.89499362825E+01  0.00000000000E+00 0. -1.
</event>
<event>
 7    1  0.2110035E-010  0.4778727E+02  0.7816164E-02  0.1312668E+00
        -11   -1    0    0    0    0  0.00000000000E+00  0.00000000000E+00  0.45593999997E+02  0.45594000000E+02  0.51100000000E-03 0. -1.
         11   -1    0    0    0    0 -0.00000000000E+00 -0.00000000000E+00 -0.45593999997E+02  0.45594000000E+02  0.51100000000E-03 0.  1.
    9900012    2    1    2    0    0  0.28880199080E+02 -0.30627913734E+02  0.10558806851E+02  0.47787269583E+02  0.19999993337E+02 0.  0.
        -12    1    1    2    0    0 -0.28880199080E+02  0.30627913734E+02 -0.10558806851E+02  0.43400730417E+02  0.00000000000E+00 0.  1.
         11    1    3    3    0    0  0.56869252492E+00 -0.68310655407E+01 -0.10109366278E+01  0.69288426693E+01  0.51100000000E-03 0. -1.
        -11    1    3    3    0    0  0.84088447040E+01 -0.59279625794E+01  0.95459557389E+01  0.14034766861E+02  0.51100000000E-03 0.  1.
         12    1    3    3    0    0  0.19902661851E+02 -0.17868885614E+02  0.20237877401E+01  0.26823660053E+02  0.00000000000E+00 0. -1.
</event>
<event>
 7    1  0.2110035E-010  0.4778727E+02  0.7816164E-02  0.1312668E+00
        -11   -1    0    0    0    0  0.00000000000E+00  0.00000000000E+00  0.45593999997E+02  0.45594000000E+02  0.51100000000E-03 0.  1.
         11   -1    0    0    0    0 -0.00000000000E+00 -0.00000000000E+00 -0.45593999997E+02  0.45594000000E+02  0.51100000000E-03 0. -1.
    9900012    2    1    2    0    0  0.10649373046E+02 -0.62278658384E+01 -0.41610427975E+02  0.47787272178E+02  0.20000005171E+02 0.  0.
        -12    1    1    2    0    0 -0.10649373046E+02  0.62278658384E+01  0.41610427975E+02  0.43400727822E+02  0.00000000000E+00 0.  1.
         11    1    3    3    0    0  0.11711422432E+02 -0.67826090656E+01 -0.12680908087E+02  0.18546337409E+02  0.51100000000E-03 0.  1.
        -11    1    3    3    0    0  0.13840068030E+01  0.10677138528E+01 -0.12848520846E+02  0.12966879959E+02  0.51100000000E-03 0. -1.
        -12    1    3    3    0    0 -0.24460561896E+01 -0.51297062558E+00 -0.16080999043E+02  0.16274054810E+02  0.00000000000E+00 0.  1.
</event>
<event>
 7    1  0.2110035E-010  0.4778727E+02  0.7816164E-02  0.1312668E+00
        -11   -1    0    0    0    0  0.00000000000E+00  0.00000000000E+00  0.45593999997E+02  0.45594000000E+02  0.51100000000E-03 0.  1.
         11   -1    0    0    0    0 -0.00000000000E+00 -0.00000000000E+00 -0.45593999997E+02  0.45594000000E+02  0.51100000000E-03 0. -1.
    9900012    2    1    2    0    0 -0.17299251119E+01  0.17768884517E+02 -0.39558782321E+02  0.47787272395E+02  0.20000006159E+02 0.  0.
        -12    1    1    2    0    0  0.17299251119E+01 -0.17768884517E+02  0.39558782321E+02  0.43400727605E+02  0.00000000000E+00 0.  1.
         11    1    3    3    0    0  0.57234826526E+01  0.34777313386E+01 -0.20574436519E+02  0.21637012438E+02  0.51100000000E-03 0. -1.
        -11    1    3    3    0    0 -0.53049931132E+00  0.96069688441E+01 -0.10428522409E+02  0.14189057749E+02  0.51100000000E-03 0.  1.
         12    1    3    3    0    0 -0.69229084531E+01  0.46841843345E+01 -0.85558233933E+01  0.11961202208E+02  0.00000000000E+00 0. -1.
</event>
<event>
 7    1  0.2393991E-010  0.4778727E+02  0.7816164E-02  0.1312668E+00
        -11   -1    0    0    0    0  0.00000000000E+00  0.00000000000E+00  0.45593999997E+02  0.45594000000E+02  0.51100000000E-03 0.  1.
         11   -1    0    0    0    0 -0.00000000000E+00 -0.00000000000E+00 -0.45593999997E+02  0.45594000000E+02  0.51100000000E-03 0. -1.
    9900012    2    1    2    0    0 -0.34716354001E+02 -0.34119375791E+01 -0.25821635723E+02  0.47787269308E+02  0.19999992085E+02 0.  0.
        -12    1    1    2    0    0  0.34716354001E+02  0.34119375791E+01  0.25821635723E+02  0.43400730692E+02  0.00000000000E+00 0.  1.
         11    1    3    3    0    0 -0.12451510429E+02 -0.67163484490E+01 -0.12458004037E+02  0.18850764263E+02  0.51100000000E-03 0. -1.
        -11    1    3    3    0    0 -0.15352633128E+02 -0.84525044077E+00 -0.27690687433E+01  0.15623236996E+02  0.51100000000E-03 0.  1.
        -12    1    3    3    0    0 -0.69122104442E+01  0.41496613106E+01 -0.10594562942E+02  0.13313268049E+02  0.00000000000E+00 0.  1.
</event>
<event>
 7    1  0.2110035E-010  0.4778726E+02  0.7816164E-02  0.1312668E+00
        -11   -1    0    0    0    0  0.00000000000E+00  0.00000000000E+00  0.45593999997E+02  0.45594000000E+02  0.51100000000E-03 0.  1.
         11   -1    0    0    0    0 -0.00000000000E+00 -0.00000000000E+00 -0.45593999997E+02  0.45594000000E+02  0.51100000000E-03 0. -1.
    9900012    2    1    2    0    0  0.27345861257E+02  0.18089671855E+02  0.28435749958E+02  0.47787260014E+02  0.19999949707E+02 0.  0.
        -12    1    1    2    0    0 -0.27345861257E+02 -0.18089671855E+02 -0.28435749958E+02  0.43400739986E+02  0.00000000000E+00 0.  1.
         11    1    3    3    0    0  0.10490360594E+02  0.90242276581E+01  0.20461412782E+02  0.24701290725E+02  0.51100000000E-03 0. -1.
        -11    1    3    3    0    0  0.37813418522E+01  0.73826277678E+01  0.16161233504E+01  0.84506564187E+01  0.51100000000E-03 0.  1.
        -12    1    3    3    0    0  0.13074158811E+02  0.16828164290E+01  0.63582138256E+01  0.14635312870E+02  0.00000000000E+00 0.  1.
</event>
<event>
 7    1  0.2110035E-010  0.4778727E+02  0.7816164E-02  0.1312668E+00
        -11   -1    0    0    0    0  0.00000000000E+00  0.00000000000E+00  0.45593999997E+02  0.45594000000E+02  0.51100000000E-03 0.  1.
         11   -1    0    0    0    0 -0.00000000000E+00 -0.00000000000E+00 -0.45593999997E+02  0.45594000000E+02  0.51100000000E-03 0. -1.
    9900012    2    1    2    0    0  0.12860987809E+02 -0.36642979731E+02 -0.19378089469E+02  0.47787270484E+02  0.19999997446E+02 0.  0.
        -12    1    1    2    0    0 -0.12860987809E+02  0.36642979731E+02  0.19378089469E+02  0.43400729516E+02  0.00000000000E+00 0.  1.
         11    1    3    3    0    0  0.56483669885E+01 -0.44060311635E+01 -0.71918604091E+01  0.10150862853E+02  0.51100000000E-03 0. -1.
        -11    1    3    3    0    0  0.24116614416E+01 -0.99442362175E+01  0.24731840761E+01  0.10527135631E+02  0.51100000000E-03 0.  1.
         12    1    3    3    0    0  0.48009593793E+01 -0.22292712350E+02 -0.14659413136E+02  0.27109272000E+02  0.00000000000E+00 0. -1.
</event>
<event>
 7    1  0.2110035E-010  0.4778727E+02  0.7816164E-02  0.1312668E+00
        -11   -1    0    0    0    0  0.00000000000E+00  0.00000000000E+00  0.45593999997E+02  0.45594000000E+02  0.51100000000E-03 0.  1.
         11   -1    0    0    0    0 -0.00000000000E+00 -0.00000000000E+00 -0.45593999997E+02  0.45594000000E+02  0.51100000000E-03 0. -1.
    9900012    2    1    2    0    0  0.94155108706E+01  0.38806387028E+02 -0.17001065255E+02  0.47787265687E+02  0.19999975574E+02 0.  0.
        -12    1    1    2    0    0 -0.94155108706E+01 -0.38806387028E+02  0.17001065255E+02  0.43400734313E+02  0.00000000000E+00 0.  1.
         11    1    3    3    0    0  0.85850872513E+01  0.18771846506E+02 -0.17250133660E+02  0.26900800284E+02  0.51100000000E-03 0. -1.
        -11    1    3    3    0    0 -0.11135462886E-01  0.22035756783E+01  0.19661770891E+01  0.29532562326E+01  0.51100000000E-03 0.  1.
         12    1    3    3    0    0  0.84155908217E+00  0.17830964843E+02 -0.17171086838E+01  0.17933209171E+02  0.00000000000E+00 0. -1.
</event>
<event>
 7    1  0.2110035E-010  0.4778727E+02  0.7816164E-02  0.1312668E+00
        -11   -1    0    0    0    0  0.00000000000E+00  0.00000000000E+00  0.45593999997E+02  0.45594000000E+02  0.51100000000E-03 0. -1.
         11   -1    0    0    0    0 -0.00000000000E+00 -0.00000000000E+00 -0.45593999997E+02  0.45594000000E+02  0.51100000000E-03 0.  1.
    9900012    2    1    2    0    0  0.23791407289E+02 -0.44139979593E+01  0.36029276056E+02  0.47787272219E+02  0.20000005356E+02 0.  0.
        -12    1    1    2    0    0 -0.23791407289E+02  0.44139979593E+01 -0.36029276056E+02  0.43400727781E+02  0.00000000000E+00 0.  1.
         11    1    3    3    0    0  0.17214726510E+02 -0.36514921702E+01  0.34688083389E+02  0.38896572257E+02  0.51100000000E-03 0. -1.
        -11    1    3    3    0    0  0.60444652506E+01  0.90612097434E+00  0.26922696537E+01  0.66786923522E+01  0.51100000000E-03 0.  1.
        -12    1    3    3    0    0  0.53221552846E+00 -0.16686267635E+01 -0.13510769862E+01  0.22120076101E+01  0.00000000000E+00 0.  1.
</event>
<event>
 7    1  0.3927794E-010  0.4778727E+02  0.7816164E-02  0.1312668E+00
        -11   -1    0    0    0    0  0.00000000000E+00  0.00000000000E+00  0.45593999997E+02  0.45594000000E+02  0.51100000000E-03 0. -1.
         11   -1    0    0    0    0 -0.00000000000E+00 -0.00000000000E+00 -0.45593999997E+02  0.45594000000E+02  0.51100000000E-03 0.  1.
    9900012    2    1    2    0    0  0.52744008443E+01  0.31775507211E+02  0.29088163231E+02  0.47787269558E+02  0.19999993222E+02 0.  0.
        -12    1    1    2    0    0 -0.52744008443E+01 -0.31775507211E+02 -0.29088163231E+02  0.43400730442E+02  0.00000000000E+00 0.  1.
         11    1    3    3    0    0  0.10723044106E+02  0.16429250875E+02  0.15616780401E+02  0.25075641359E+02  0.51100000000E-03 0. -1.
        -11    1    3    3    0    0 -0.20149401965E+01 -0.46914139078E+00  0.19739921447E+01  0.28594969642E+01  0.51100000000E-03 0.  1.
        -12    1    3    3    0    0 -0.34337030655E+01  0.15815397726E+02  0.11497390685E+02  0.19852131235E+02  0.00000000000E+00 0.  1.
</event>
<event>
 7    1  0.2110035E-010  0.4778727E+02  0.7816164E-02  0.1312668E+00
        -11   -1    0    0    0    0  0.00000000000E+00  0.00000000000E+00  0.45593999997E+02  0.45594000000E+02  0.51100000000E-03 0. -1.
         11   -1    0    0    0    0 -0.00000000000E+00 -0.00000000000E+00 -0.45593999997E+02  0.45594000000E+02  0.51100000000E-03 0.  1.
    9900012    2    1    2    0    0 -0.29743372154E+02 -0.28659508109E+02  0.13326208512E+02  0.47787269299E+02  0.19999992041E+02 0.  0.
        -12    1    1    2    0    0  0.29743372154E+02  0.28659508109E+02 -0.13326208512E+02  0.43400730701E+02  0.00000000000E+00 0.  1.
         11    1    3    3    0    0 -0.18174103683E+02 -0.14509049817E+02  0.13110823846E+02  0.26696521749E+02  0.51100000000E-03 0. -1.
        -11    1    3    3    0    0  0.79463309782E+00  0.66736785546E+00 -0.13797097780E+01  0.17263895700E+01  0.51100000000E-03 0.  1.
        -12    1    3    3    0    0 -0.12363901568E+02 -0.14817826147E+02  0.15950944440E+01  0.19364357980E+02  0.00000000000E+00 0.  1.
</event>
<event>
 7    1  0.2110035E-010  0.4778727E+02  0.7816164E-02  0.1312668E+00
        -11   -1    0    0    0    0  0.00000000000E+00  0.00000000000E+00  0.45593999997E+02  0.45594000000E+02  0.51100000000E-03 0.  1.
         11   -1    0    0    0    0 -0.00000000000E+00 -0.00000000000E+00 -0.45593999997E+02  0.45594000000E+02  0.51100000000E-03 0. -1.
    9900012    2    1    2    0    0  0.32886361985E+02  0.93155584950E+01 -0.26745668306E+02  0.47787271805E+02  0.20000003468E+02 0.  0.
        -12    1    1    2    0    0 -0.32886361985E+02 -0.93155584950E+01  0.26745668306E+02  0.43400728195E+02  0.00000000000E+00 0.  1.
         11    1    3    3    0    0 -0.64359863349E+00  0.12883375085E+01  0.26485575521E-01  0.14403938641E+01  0.51100000000E-03 0.  1.
        -11    1    3    3    0    0  0.18678642146E+01  0.20758712696E+01 -0.92733821729E+01  0.96847186556E+01  0.51100000000E-03 0. -1.
         12    1    3    3    0    0  0.31662096404E+02  0.59513497169E+01 -0.17498771709E+02  0.36662159285E+02  0.00000000000E+00 0. -1.
</event>
<event>
 7    1  0.2110035E-010  0.4778727E+02  0.7816164E-02  0.1312668E+00
        -11   -1    0    0    0    0  0.00000000000E+00  0.00000000000E+00  0.45593999997E+02  0.45594000000E+02  0.51100000000E-03 0.  1.
         11   -1    0    0    0    0 -0.00000000000E+00 -0.00000000000E+00 -0.45593999997E+02  0.45594000000E+02  0.51100000000E-03 0. -1.
    9900012    2    1    2    0    0 -0.80847068022E+01  0.31616766240E+02 -0.28611896856E+02  0.47787273816E+02  0.20000012638E+02 0.  0.
        -12    1    1    2    0    0  0.80847068022E+01 -0.31616766240E+02  0.28611896856E+02  0.43400726184E+02  0.00000000000E+00 0.  1.
         11    1    3    3    0    0 -0.70083002212E+01  0.62195870478E+01 -0.76026207380E+01  0.12066456704E+02  0.51100000000E-03 0. -1.
        -11    1    3    3    0    0 -0.68299741572E+01  0.19351160235E+02 -0.14296595458E+02  0.25010169759E+02  0.51100000000E-03 0.  1.
         12    1    3    3    0    0  0.57535675762E+01  0.60460189579E+01 -0.67126806603E+01  0.10710647354E+02  0.00000000000E+00 0. -1.
</event>
<event>
 7    1  0.2110035E-010  0.4778727E+02  0.7816164E-02  0.1312668E+00
        -11   -1    0    0    0    0  0.00000000000E+00  0.00000000000E+00  0.45593999997E+02  0.45594000000E+02  0.51100000000E-03 0.  1.
         11   -1    0    0    0    0 -0.00000000000E+00 -0.00000000000E+00 -0.45593999997E+02  0.45594000000E+02  0.51100000000E-03 0. -1.
    9900012    2    1    2    0    0  0.13698535280E+02  0.41152194642E+02  0.15716074913E+01  0.47787274859E+02  0.20000017392E+02 0.  0.
        -12    1    1    2    0    0 -0.13698535280E+02 -0.41152194642E+02 -0.15716074913E+01  0.43400725141E+02  0.00000000000E+00 0.  1.
         11    1    3    3    0    0  0.70691072711E+01  0.15821362234E+02  0.24392864958E+01  0.17499654266E+02  0.51100000000E-03 0. -1.
        -11    1    3    3    0    0  0.77945532196E+01  0.43900619568E+01  0.18620796290E+01  0.91375622944E+01  0.51100000000E-03 0.  1.
         12    1    3    3    0    0 -0.11651252112E+01  0.20940770451E+02 -0.27297586335E+01  0.21150058299E+02  0.00000000000E+00 0. -1.
</event>
<event>
 7    1  0.2110035E-010  0.4778727E+02  0.7816164E-02  0.1312668E+00
        -11   -1    0    0    0    0  0.00000000000E+00  0.00000000000E+00  0.45593999997E+02  0.45594000000E+02  0.51100000000E-03 0.  1.
         11   -1    0    0    0    0 -0.00000000000E+00 -0.00000000000E+00 -0.45593999997E+02  0.45594000000E+02  0.51100000000E-03 0. -1.
    9900012    2    1    2    0    0 -0.20823653171E+02  0.27182521216E+02 -0.26666632033E+02  0.47787271261E+02  0.20000000989E+02 0.  0.
        -12    1    1    2    0    0  0.20823653171E+02 -0.27182521216E+02  0.26666632033E+02  0.43400728739E+02  0.00000000000E+00 0.  1.
         11    1    3    3    0    0 -0.25944022273E+01  0.13368495740E+02 -0.10628098207E+02  0.17274376198E+02  0.51100000000E-03 0. -1.
        -11    1    3    3    0    0 -0.79184257244E+01  0.50955874833E+01  0.16883182007E+00  0.94178013463E+01  0.51100000000E-03 0.  1.
        -12    1    3    3    0    0 -0.10310825219E+02  0.87184379930E+01 -0.16207365646E+02  0.21095093717E+02  0.00000000000E+00 0.  1.
</event>
<event>
 7    1  0.2110035E-010  0.4778727E+02  0.7816164E-02  0.1312668E+00
        -11   -1    0    0    0    0  0.00000000000E+00  0.00000000000E+00  0.45593999997E+02  0.45594000000E+02  0.51100000000E-03 0.  1.
         11   -1    0    0    0    0 -0.00000000000E+00 -0.00000000000E+00 -0.45593999997E+02  0.45594000000E+02  0.51100000000E-03 0. -1.
    9900012    2    1    2    0    0  0.62969881029E+01 -0.29167235787E+02 -0.31515766390E+02  0.47787271506E+02  0.20000002106E+02 0.  0.
        -12    1    1    2    0    0 -0.62969881029E+01  0.29167235787E+02  0.31515766390E+02  0.43400728494E+02  0.00000000000E+00 0.  1.
         11    1    3    3    0    0  0.45696582341E+01 -0.47559654275E+00 -0.52293478967E+01  0.69608942051E+01  0.51100000000E-03 0. -1.
        -11    1    3    3    0    0 -0.46702785897E+01 -0.93900699155E+01 -0.12208374748E+02  0.16094388133E+02  0.51100000000E-03 0.  1.
         12    1    3    3    0    0  0.63976084585E+01 -0.19301569328E+02 -0.14078043746E+02  0.24731989168E+02  0.00000000000E+00 0. -1.
</event>
<event>
 7    1  0.2110035E-010  0.4778727E+02  0.7816164E-02  0.1312668E+00
        -11   -1    0    0    0    0  0.00000000000E+00  0.00000000000E+00  0.45593999997E+02  0.45594000000E+02  0.51100000000E-03 0.  1.
         11   -1    0    0    0    0 -0.00000000000E+00 -0.00000000000E+00 -0.45593999997E+02  0.45594000000E+02  0.51100000000E-03 0. -1.
    9900012    2    1    2    0    0 -0.88872210157E+01 -0.97014123258E+01 -0.41358471707E+02  0.47787270969E+02  0.19999999656E+02 0.  0.
        -12    1    1    2    0    0  0.88872210157E+01  0.97014123258E+01  0.41358471707E+02  0.43400729031E+02  0.00000000000E+00 0.  1.
         11    1    3    3    0    0 -0.10539217416E+00 -0.70913038870E+01 -0.65708261344E+01  0.96681670796E+01  0.51100000000E-03 0. -1.
        -11    1    3    3    0    0  0.16922600961E+01  0.15828165545E+01 -0.16277792530E+02  0.16441885001E+02  0.51100000000E-03 0.  1.
         12    1    3    3    0    0 -0.10474088938E+02 -0.41929249932E+01 -0.18509853042E+02  0.21677218888E+02  0.00000000000E+00 0. -1.
</event>
<event>
 7    1  0.2110035E-010  0.4778723E+02  0.7816164E-02  0.1312668E+00
        -11   -1    0    0    0    0  0.00000000000E+00  0.00000000000E+00  0.45593999997E+02  0.45594000000E+02  0.51100000000E-03 0.  1.
         11   -1    0    0    0    0 -0.00000000000E+00 -0.00000000000E+00 -0.45593999997E+02  0.45594000000E+02  0.51100000000E-03 0. -1.
    9900012    2    1    2    0    0 -0.27867132860E+02 -0.11800723551E+02 -0.31109368489E+02  0.47787228372E+02  0.19999805436E+02 0.  0.
        -12    1    1    2    0    0  0.27867132860E+02  0.11800723551E+02  0.31109368489E+02  0.43400771628E+02  0.00000000000E+00 0.  1.
         11    1    3    3    0    0 -0.11438836510E+02 -0.63382165504E+01 -0.17564136961E+02  0.21897919471E+02  0.51100000000E-03 0. -1.
        -11    1    3    3    0    0 -0.47272542152E+01 -0.80307243014E+01 -0.26300811198E+01  0.96828091057E+01  0.51100000000E-03 0.  1.
        -12    1    3    3    0    0 -0.11701042135E+02  0.25682173009E+01 -0.10915150408E+02  0.16206499794E+02  0.00000000000E+00 0.  1.
</event>
<event>
 7    1  0.2110035E-010  0.4778727E+02  0.7816164E-02  0.1312668E+00
        -11   -1    0    0    0    0  0.00000000000E+00  0.00000000000E+00  0.45593999997E+02  0.45594000000E+02  0.51100000000E-03 0.  1.
         11   -1    0    0    0    0 -0.00000000000E+00 -0.00000000000E+00 -0.45593999997E+02  0.45594000000E+02  0.51100000000E-03 0. -1.
    9900012    2    1    2    0    0  0.21917327129E+02  0.30620995160E+02 -0.21577966288E+02  0.47787271871E+02  0.20000003767E+02 0.  0.
        -12    1    1    2    0    0 -0.21917327129E+02 -0.30620995160E+02  0.21577966288E+02  0.43400728129E+02  0.00000000000E+00 0.  1.
         11    1    3    3    0    0  0.28964861775E+01 -0.69082346574E+00  0.36652497089E+00  0.30002016687E+01  0.51100000000E-03 0. -1.
        -11    1    3    3    0    0  0.38142083960E+01  0.17458182250E+02 -0.63182639011E+01  0.18954070068E+02  0.51100000000E-03 0.  1.
         12    1    3    3    0    0  0.15206632555E+02  0.13853636376E+02 -0.15626227357E+02  0.25833000134E+02  0.00000000000E+00 0. -1.
</event>
<event>
 7    1  0.2110035E-010  0.4778727E+02  0.7816164E-02  0.1312668E+00
        -11   -1    0    0    0    0  0.00000000000E+00  0.00000000000E+00  0.45593999997E+02  0.45594000000E+02  0.51100000000E-03 0.  1.
         11   -1    0    0    0    0 -0.00000000000E+00 -0.00000000000E+00 -0.45593999997E+02  0.45594000000E+02  0.51100000000E-03 0. -1.
    9900012    2    1    2    0    0  0.45090790392E+01 -0.75122177129E+01 -0.42507153968E+02  0.47787270200E+02  0.19999996149E+02 0.  0.
        -12    1    1    2    0    0 -0.45090790392E+01  0.75122177129E+01  0.42507153968E+02  0.43400729800E+02  0.00000000000E+00 0.  1.
         11    1    3    3    0    0 -0.33978840359E+01 -0.13755503125E+01 -0.19355396136E+02  0.19699469903E+02  0.51100000000E-03 0. -1.
        -11    1    3    3    0    0 -0.23650701957E+01  0.13825789146E+01 -0.70373945279E+01  0.75518212034E+01  0.51100000000E-03 0.  1.
        -12    1    3    3    0    0  0.10272033271E+02 -0.75192463149E+01 -0.16114363304E+02  0.20535979094E+02  0.00000000000E+00 0.  1.
</event>
<event>
 7    1  0.2110035E-010  0.4778731E+02  0.7816164E-02  0.1312668E+00
        -11   -1    0    0    0    0  0.00000000000E+00  0.00000000000E+00  0.45593999997E+02  0.45594000000E+02  0.51100000000E-03 0.  1.
         11   -1    0    0    0    0 -0.00000000000E+00 -0.00000000000E+00 -0.45593999997E+02  0.45594000000E+02  0.51100000000E-03 0. -1.
    9900012    2    1    2    0    0  0.16035549312E+02 -0.61856196689E+00 -0.40324906113E+02  0.47787314364E+02  0.20000197509E+02 0.  0.
        -12    1    1    2    0    0 -0.16035549312E+02  0.61856196689E+00  0.40324906113E+02  0.43400685636E+02  0.00000000000E+00 0.  1.
         11    1    3    3    0    0  0.91467659451E+01 -0.77829445559E+01 -0.13655957841E+02  0.18185783954E+02  0.51100000000E-03 0. -1.
        -11    1    3    3    0    0  0.65765410276E+01  0.35052839477E+01 -0.23805475234E+02  0.24944710037E+02  0.51100000000E-03 0.  1.
        -12    1    3    3    0    0  0.31224233976E+00  0.36590986413E+01 -0.28634730385E+01  0.46568203732E+01  0.00000000000E+00 0.  1.
</event>
<event>
 7    1  0.2110035E-010  0.4778727E+02  0.7816164E-02  0.1312668E+00
        -11   -1    0    0    0    0  0.00000000000E+00  0.00000000000E+00  0.45593999997E+02  0.45594000000E+02  0.51100000000E-03 0.  1.
         11   -1    0    0    0    0 -0.00000000000E+00 -0.00000000000E+00 -0.45593999997E+02  0.45594000000E+02  0.51100000000E-03 0. -1.
    9900012    2    1    2    0    0 -0.42457147156E+01  0.19924234885E+02 -0.38322608044E+02  0.47787268249E+02  0.19999987256E+02 0.  0.
        -12    1    1    2    0    0  0.42457147156E+01 -0.19924234885E+02  0.38322608044E+02  0.43400731751E+02  0.00000000000E+00 0.  1.
         11    1    3    3    0    0 -0.15820073546E+01  0.53253616558E+01 -0.14352042467E+02  0.15389715633E+02  0.51100000000E-03 0. -1.
        -11    1    3    3    0    0  0.75444189707E+00 -0.14962980478E+01  0.13829775479E+01  0.21727212392E+01  0.51100000000E-03 0.  1.
        -12    1    3    3    0    0 -0.34181492580E+01  0.16095171277E+02 -0.25353543125E+02  0.30224831377E+02  0.00000000000E+00 0.  1.
</event>
<event>
 7    1  0.2110035E-010  0.4778727E+02  0.7816164E-02  0.1312668E+00
        -11   -1    0    0    0    0  0.00000000000E+00  0.00000000000E+00  0.45593999997E+02  0.45594000000E+02  0.51100000000E-03 0.  1.
         11   -1    0    0    0    0 -0.00000000000E+00 -0.00000000000E+00 -0.45593999997E+02  0.45594000000E+02  0.51100000000E-03 0. -1.
    9900012    2    1    2    0    0  0.20345458622E+02  0.10758916801E+01 -0.38321381689E+02  0.47787268163E+02  0.19999986861E+02 0.  0.
        -12    1    1    2    0    0 -0.20345458622E+02 -0.10758916801E+01  0.38321381689E+02  0.43400731837E+02  0.00000000000E+00 0.  1.
         11    1    3    3    0    0  0.19869816546E+01  0.39509017356E+01 -0.45408678936E+01  0.63385488961E+01  0.51100000000E-03 0. -1.
        -11    1    3    3    0    0  0.21044841721E+02 -0.20999666120E+01 -0.30798446137E+02  0.37360935581E+02  0.51100000000E-03 0.  1.
         12    1    3    3    0    0 -0.26863647540E+01 -0.77504344361E+00 -0.29820676594E+01  0.40877836851E+01  0.00000000000E+00 0. -1.
</event>
<event>
 7    1  0.2110035E-010  0.4778727E+02  0.7816164E-02  0.1312668E+00
        -11   -1    0    0    0    0  0.00000000000E+00  0.00000000000E+00  0.45593999997E+02  0.45594000000E+02  0.51100000000E-03 0.  1.
         11   -1    0    0    0    0 -0.00000000000E+00 -0.00000000000E+00 -0.45593999997E+02  0.45594000000E+02  0.51100000000E-03 0. -1.
    9900012    2    1    2    0    0 -0.27678800644E+02 -0.97960251782E+01 -0.31961615991E+02  0.47787274072E+02  0.20000013802E+02 0.  0.
        -12    1    1    2    0    0  0.27678800644E+02  0.97960251782E+01  0.31961615991E+02  0.43400725928E+02  0.00000000000E+00 0.  1.
         11    1    3    3    0    0 -0.88053501083E+01 -0.51515294231E+01 -0.45057383439E+01  0.11152314747E+02  0.51100000000E-03 0. -1.
        -11    1    3    3    0    0 -0.46287177755E+01 -0.63576383184E+01 -0.17458569355E+02  0.19148008706E+02  0.51100000000E-03 0.  1.
        -12    1    3    3    0    0 -0.14244732760E+02  0.17131425633E+01 -0.99973082918E+01  0.17486950618E+02  0.00000000000E+00 0.  1.
</event>
<event>
 7    1  0.2110035E-010  0.4778727E+02  0.7816164E-02  0.1312668E+00
        -11   -1    0    0    0    0  0.00000000000E+00  0.00000000000E+00  0.45593999997E+02  0.45594000000E+02  0.51100000000E-03 0.  1.
         11   -1    0    0    0    0 -0.00000000000E+00 -0.00000000000E+00 -0.45593999997E+02  0.45594000000E+02  0.51100000000E-03 0. -1.
    9900012    2    1    2    0    0 -0.16109022701E+02  0.37124765524E+02 -0.15680380476E+02  0.47787272362E+02  0.20000006009E+02 0.  0.
        -12    1    1    2    0    0  0.16109022701E+02 -0.37124765524E+02  0.15680380476E+02  0.43400727638E+02  0.00000000000E+00 0.  1.
         11    1    3    3    0    0 -0.86198428950E+01  0.11245248813E+02 -0.11406574697E+02  0.18189756980E+02  0.51100000000E-03 0. -1.
        -11    1    3    3    0    0  0.26378013525E+01  0.46110346896E+01  0.11257690941E+01  0.54301927404E+01  0.51100000000E-03 0.  1.
         12    1    3    3    0    0 -0.10126981159E+02  0.21268482021E+02 -0.53995748729E+01  0.24167322642E+02  0.00000000000E+00 0. -1.
</event>
<event>
 7    1  0.2110035E-010  0.4778727E+02  0.7816164E-02  0.1312668E+00
        -11   -1    0    0    0    0  0.00000000000E+00  0.00000000000E+00  0.45593999997E+02  0.45594000000E+02  0.51100000000E-03 0. -1.
         11   -1    0    0    0    0 -0.00000000000E+00 -0.00000000000E+00 -0.45593999997E+02  0.45594000000E+02  0.51100000000E-03 0.  1.
    9900012    2    1    2    0    0  0.42718418817E+02 -0.75044497369E+01 -0.15630729063E+01  0.47787271101E+02  0.20000000257E+02 0.  0.
        -12    1    1    2    0    0 -0.42718418817E+02  0.75044497369E+01  0.15630729063E+01  0.43400728899E+02  0.00000000000E+00 0.  1.
         11    1    3    3    0    0  0.32340215207E+02  0.51307915626E+00  0.33511008467E+00  0.32346020913E+02  0.51100000000E-03 0. -1.
        -11    1    3    3    0    0  0.97001851507E+01 -0.89023418438E+01  0.84899603424E-01  0.13166339296E+02  0.51100000000E-03 0.  1.
        -12    1    3    3    0    0  0.67801845889E+00  0.88481295064E+00 -0.19830825944E+01  0.22749108915E+01  0.00000000000E+00 0.  1.
</event>
<event>
 7    1  0.2110035E-010  0.4778726E+02  0.7816164E-02  0.1312668E+00
        -11   -1    0    0    0    0  0.00000000000E+00  0.00000000000E+00  0.45593999997E+02  0.45594000000E+02  0.51100000000E-03 0. -1.
         11   -1    0    0    0    0 -0.00000000000E+00 -0.00000000000E+00 -0.45593999997E+02  0.45594000000E+02  0.51100000000E-03 0.  1.
    9900012    2    1    2    0    0 -0.45875656332E+01 -0.10429560039E+02  0.41878427973E+02  0.47787260253E+02  0.19999950799E+02 0.  0.
        -12    1    1    2    0    0  0.45875656332E+01  0.10429560039E+02 -0.41878427973E+02  0.43400739747E+02  0.00000000000E+00 0.  1.
         11    1    3    3    0    0 -0.39699414464E+01 -0.28205780208E+00  0.98328655624E-01  0.39811632065E+01  0.51100000000E-03 0.  1.
        -11    1    3    3    0    0 -0.21977696745E+01 -0.91167913386E+01  0.21727680421E+02  0.23665125662E+02  0.51100000000E-03 0. -1.
        -12    1    3    3    0    0  0.15801454877E+01 -0.10307108982E+01  0.20052418897E+02  0.20140971385E+02  0.00000000000E+00 0.  1.
</event>
<event>
 7    1  0.2110035E-010  0.4778727E+02  0.7816164E-02  0.1312668E+00
        -11   -1    0    0    0    0  0.00000000000E+00  0.00000000000E+00  0.45593999997E+02  0.45594000000E+02  0.51100000000E-03 0.  1.
         11   -1    0    0    0    0 -0.00000000000E+00 -0.00000000000E+00 -0.45593999997E+02  0.45594000000E+02  0.51100000000E-03 0. -1.
    9900012    2    1    2    0    0  0.48706851721E+01 -0.13877166041E+02 -0.40832874822E+02  0.47787274458E+02  0.20000015564E+02 0.  0.
        -12    1    1    2    0    0 -0.48706851721E+01  0.13877166041E+02  0.40832874822E+02  0.43400725542E+02  0.00000000000E+00 0.  1.
         11    1    3    3    0    0  0.55181098196E+01 -0.93261676365E+00 -0.16251159330E+02  0.17187771520E+02  0.51100000000E-03 0. -1.
        -11    1    3    3    0    0 -0.61559524321E+01 -0.34695322695E+01 -0.11881973772E+02  0.13824424238E+02  0.51100000000E-03 0.  1.
         12    1    3    3    0    0  0.55085277846E+01 -0.94750170078E+01 -0.12699741719E+02  0.16775078700E+02  0.00000000000E+00 0. -1.
</event>
<event>
 7    1  0.2110035E-010  0.4778727E+02  0.7816164E-02  0.1312668E+00
        -11   -1    0    0    0    0  0.00000000000E+00  0.00000000000E+00  0.45593999997E+02  0.45594000000E+02  0.51100000000E-03 0. -1.
         11   -1    0    0    0    0 -0.00000000000E+00 -0.00000000000E+00 -0.45593999997E+02  0.45594000000E+02  0.51100000000E-03 0.  1.
    9900012    2    1    2    0    0  0.14896506405E+02  0.38329645176E+02  0.13876448344E+02  0.47787269349E+02  0.19999992272E+02 0.  0.
        -12    1    1    2    0    0 -0.14896506405E+02 -0.38329645176E+02 -0.13876448344E+02  0.43400730651E+02  0.00000000000E+00 0.  1.
         11    1    3    3    0    0  0.77791401906E+01  0.24329490747E+02  0.11756030727E+02  0.28118381903E+02  0.51100000000E-03 0. -1.
        -11    1    3    3    0    0  0.66228921159E+01  0.28843844006E+01  0.41904867215E+01  0.83512006666E+01  0.51100000000E-03 0.  1.
         12    1    3    3    0    0  0.49447409855E+00  0.11115770028E+02 -0.20700691052E+01  0.11317686780E+02  0.00000000000E+00 0. -1.
</event>
<event>
 7    1  0.2110035E-010  0.4778728E+02  0.7816164E-02  0.1312668E+00
        -11   -1    0    0    0    0  0.00000000000E+00  0.00000000000E+00  0.45593999997E+02  0.45594000000E+02  0.51100000000E-03 0. -1.
         11   -1    0    0    0    0 -0.00000000000E+00 -0.00000000000E+00 -0.45593999997E+02  0.45594000000E+02  0.51100000000E-03 0.  1.
    9900012    2    1    2    0    0 -0.24714640122E+02 -0.35466742297E+02 -0.38625870891E+01  0.47787276221E+02  0.20000023601E+02 0.  0.
        -12    1    1    2    0    0  0.24714640122E+02  0.35466742297E+02  0.38625870891E+01  0.43400723779E+02  0.00000000000E+00 0.  1.
         11    1    3    3    0    0 -0.79068967606E+01 -0.99588694836E+01  0.43129594057E+01  0.13427573007E+02  0.51100000000E-03 0. -1.
        -11    1    3    3    0    0  0.21036990772E+00 -0.17417897432E+00  0.21301592329E+01  0.21475968969E+01  0.51100000000E-03 0.  1.
         12    1    3    3    0    0 -0.17018113269E+02 -0.25333693839E+02 -0.10305705728E+02  0.32212106316E+02  0.00000000000E+00 0. -1.
</event>
<event>
 7    1  0.2110035E-010  0.4778727E+02  0.7816164E-02  0.1312668E+00
        -11   -1    0    0    0    0  0.00000000000E+00  0.00000000000E+00  0.45593999997E+02  0.45594000000E+02  0.51100000000E-03 0.  1.
         11   -1    0    0    0    0 -0.00000000000E+00 -0.00000000000E+00 -0.45593999997E+02  0.45594000000E+02  0.51100000000E-03 0. -1.
    9900012    2    1    2    0    0 -0.76330722807E+01  0.42414360073E+02 -0.51362802939E+01  0.47787272955E+02  0.20000008709E+02 0.  0.
        -12    1    1    2    0    0  0.76330722807E+01 -0.42414360073E+02  0.51362802939E+01  0.43400727045E+02  0.00000000000E+00 0.  1.
         11    1    3    3    0    0  0.48181901079E+01  0.14073157907E+02  0.15865164775E+01  0.14959470719E+02  0.51100000000E-03 0. -1.
        -11    1    3    3    0    0 -0.61972205365E+01  0.98324094616E+01  0.13261236551E+01  0.11697881108E+02  0.51100000000E-03 0.  1.
        -12    1    3    3    0    0 -0.62540418521E+01  0.18508792704E+02 -0.80489204266E+01  0.21129921128E+02  0.00000000000E+00 0.  1.
</event>
<event>
 7    1  0.2110035E-010  0.4778727E+02  0.7816164E-02  0.1312668E+00
        -11   -1    0    0    0    0  0.00000000000E+00  0.00000000000E+00  0.45593999997E+02  0.45594000000E+02  0.51100000000E-03 0.  1.
         11   -1    0    0    0    0 -0.00000000000E+00 -0.00000000000E+00 -0.45593999997E+02  0.45594000000E+02  0.51100000000E-03 0. -1.
    9900012    2    1    2    0    0  0.36206894146E+02  0.34461948490E+00 -0.23928338698E+02  0.47787270293E+02  0.19999996573E+02 0.  0.
        -12    1    1    2    0    0 -0.36206894146E+02 -0.34461948490E+00  0.23928338698E+02  0.43400729707E+02  0.00000000000E+00 0.  1.
         11    1    3    3    0    0  0.25441913596E+02 -0.63786062626E+01 -0.21855266884E+02  0.34141327978E+02  0.51100000000E-03 0. -1.
        -11    1    3    3    0    0 -0.10256981270E-02  0.11484124830E+01  0.49935666728E+00  0.12522817676E+01  0.51100000000E-03 0.  1.
         12    1    3    3    0    0  0.10766006248E+02  0.55748132645E+01 -0.25724284815E+01  0.12393660547E+02  0.00000000000E+00 0. -1.
</event>
<event>
 7    1  0.2110035E-010  0.4778727E+02  0.7816164E-02  0.1312668E+00
        -11   -1    0    0    0    0  0.00000000000E+00  0.00000000000E+00  0.45593999997E+02  0.45594000000E+02  0.51100000000E-03 0.  1.
         11   -1    0    0    0    0 -0.00000000000E+00 -0.00000000000E+00 -0.45593999997E+02  0.45594000000E+02  0.51100000000E-03 0. -1.
    9900012    2    1    2    0    0  0.10503754359E+02  0.38018639179E+02  0.18107386758E+02  0.47787271482E+02  0.20000001996E+02 0.  0.
        -12    1    1    2    0    0 -0.10503754359E+02 -0.38018639179E+02 -0.18107386758E+02  0.43400728518E+02  0.00000000000E+00 0.  1.
         11    1    3    3    0    0  0.51088236356E+01  0.31107978045E+02  0.10314508944E+02  0.33169194624E+02  0.51100000000E-03 0. -1.
        -11    1    3    3    0    0  0.61595437942E+01  0.50702838192E+01  0.16323691321E+01  0.81432417995E+01  0.51100000000E-03 0.  1.
         12    1    3    3    0    0 -0.76461307050E+00  0.18403773145E+01  0.61605086823E+01  0.64748350583E+01  0.00000000000E+00 0. -1.
</event>
<event>
 7    1  0.2110035E-010  0.4778727E+02  0.7816164E-02  0.1312668E+00
        -11   -1    0    0    0    0  0.00000000000E+00  0.00000000000E+00  0.45593999997E+02  0.45594000000E+02  0.51100000000E-03 0. -1.
         11   -1    0    0    0    0 -0.00000000000E+00 -0.00000000000E+00 -0.45593999997E+02  0.45594000000E+02  0.51100000000E-03 0.  1.
    9900012    2    1    2    0    0  0.13274836612E+02  0.23750084481E+02  0.33813247595E+02  0.47787268291E+02  0.19999987445E+02 0.  0.
        -12    1    1    2    0    0 -0.13274836612E+02 -0.23750084481E+02 -0.33813247595E+02  0.43400731709E+02  0.00000000000E+00 0.  1.
         11    1    3    3    0    0 -0.20267575648E+01  0.33260195742E+01  0.90297566300E+01  0.98339543162E+01  0.51100000000E-03 0.  1.
        -11    1    3    3    0    0  0.59084736158E+01  0.58876866034E+00  0.18710112870E+01  0.62255435507E+01  0.51100000000E-03 0. -1.
         12    1    3    3    0    0  0.93931205615E+01  0.19835296247E+02  0.22912479678E+02  0.31727770424E+02  0.00000000000E+00 0. -1.
</event>
<event>
 7    1  0.2110035E-010  0.4778727E+02  0.7816164E-02  0.1312668E+00
        -11   -1    0    0    0    0  0.00000000000E+00  0.00000000000E+00  0.45593999997E+02  0.45594000000E+02  0.51100000000E-03 0. -1.
         11   -1    0    0    0    0 -0.00000000000E+00 -0.00000000000E+00 -0.45593999997E+02  0.45594000000E+02  0.51100000000E-03 0.  1.
    9900012    2    1    2    0    0  0.10575050354E+02  0.30889517535E+02  0.28594218490E+02  0.47787270575E+02  0.19999997862E+02 0.  0.
        -12    1    1    2    0    0 -0.10575050354E+02 -0.30889517535E+02 -0.28594218490E+02  0.43400729425E+02  0.00000000000E+00 0.  1.
         11    1    3    3    0    0  0.42552396398E+01  0.13222859596E+02  0.13853647014E+02  0.19618221534E+02  0.51100000000E-03 0. -1.
        -11    1    3    3    0    0 -0.47934766843E+01  0.66072150294E+01  0.35222923682E+01  0.88904022944E+01  0.51100000000E-03 0.  1.
        -12    1    3    3    0    0  0.11113287399E+02  0.11059442909E+02  0.11218279108E+02  0.19278646747E+02  0.00000000000E+00 0.  1.
</event>
<event>
 7    1  0.2110035E-010  0.4778728E+02  0.7816164E-02  0.1312668E+00
        -11   -1    0    0    0    0  0.00000000000E+00  0.00000000000E+00  0.45593999997E+02  0.45594000000E+02  0.51100000000E-03 0. -1.
         11   -1    0    0    0    0 -0.00000000000E+00 -0.00000000000E+00 -0.45593999997E+02  0.45594000000E+02  0.51100000000E-03 0.  1.
    9900012    2    1    2    0    0  0.36945214224E+02  0.76425659318E+01  0.21453793104E+02  0.47787275275E+02  0.20000019290E+02 0.  0.
        -12    1    1    2    0    0 -0.36945214224E+02 -0.76425659318E+01 -0.21453793104E+02  0.43400724725E+02  0.00000000000E+00 0.  1.
         11    1    3    3    0    0  0.14811436766E+02  0.25136691007E+01  0.71166865744E+01  0.16623610302E+02  0.51100000000E-03 0. -1.
        -11    1    3    3    0    0  0.25466884663E+01  0.54643262038E+01 -0.12163693842E+01  0.61501250187E+01  0.51100000000E-03 0.  1.
         12    1    3    3    0    0  0.19587088992E+02 -0.33542937272E+00  0.15553475914E+02  0.25013539954E+02  0.00000000000E+00 0. -1.
</event>
<event>
 7    1  0.2110035E-010  0.4778727E+02  0.7816164E-02  0.1312668E+00
        -11   -1    0    0    0    0  0.00000000000E+00  0.00000000000E+00  0.45593999997E+02  0.45594000000E+02  0.51100000000E-03 0.  1.
         11   -1    0    0    0    0 -0.00000000000E+00 -0.00000000000E+00 -0.45593999997E+02  0.45594000000E+02  0.51100000000E-03 0. -1.
    9900012    2    1    2    0    0 -0.19513589623E+02 -0.12744647341E+02 -0.36611709791E+02  0.47787268329E+02  0.19999987617E+02 0.  0.
        -12    1    1    2    0    0  0.19513589623E+02  0.12744647341E+02  0.36611709791E+02  0.43400731671E+02  0.00000000000E+00 0.  1.
         11    1    3    3    0    0 -0.13077728422E+01 -0.73263920167E+01 -0.11932719432E+02  0.14063288488E+02  0.51100000000E-03 0. -1.
        -11    1    3    3    0    0 -0.17052462599E+02 -0.72392251317E+01 -0.15083678439E+02  0.23889541995E+02  0.51100000000E-03 0.  1.
         12    1    3    3    0    0 -0.11533541814E+01  0.18209698078E+01 -0.95953119197E+01  0.98344378459E+01  0.00000000000E+00 0. -1.
</event>
<event>
 7    1  0.2110035E-010  0.4778728E+02  0.7816164E-02  0.1312668E+00
        -11   -1    0    0    0    0  0.00000000000E+00  0.00000000000E+00  0.45593999997E+02  0.45594000000E+02  0.51100000000E-03 0.  1.
         11   -1    0    0    0    0 -0.00000000000E+00 -0.00000000000E+00 -0.45593999997E+02  0.45594000000E+02  0.51100000000E-03 0. -1.
    9900012    2    1    2    0    0 -0.38151073178E+02  0.15913698156E+02 -0.13223944761E+02  0.47787275482E+02  0.20000020232E+02 0.  0.
        -12    1    1    2    0    0  0.38151073178E+02 -0.15913698156E+02  0.13223944761E+02  0.43400724518E+02  0.00000000000E+00 0.  1.
         11    1    3    3    0    0 -0.71539898722E+01  0.10324017763E+01  0.57741172117E+00  0.72511260558E+01  0.51100000000E-03 0. -1.
        -11    1    3    3    0    0 -0.24968940623E+02  0.16761229386E+02 -0.15723685638E+02  0.33935543265E+02  0.51100000000E-03 0.  1.
        -12    1    3    3    0    0 -0.60281426829E+01 -0.18799330061E+01  0.19223291563E+01  0.66006061614E+01  0.00000000000E+00 0.  1.
</event>
<event>
 7    1  0.2110035E-010  0.4778726E+02  0.7816164E-02  0.1312668E+00
        -11   -1    0    0    0    0  0.00000000000E+00  0.00000000000E+00  0.45593999997E+02  0.45594000000E+02  0.51100000000E-03 0.  1.
         11   -1    0    0    0    0 -0.00000000000E+00 -0.00000000000E+00 -0.45593999997E+02  0.45594000000E+02  0.51100000000E-03 0. -1.
    9900012    2    1    2    0    0 -0.31948116130E+02  0.20275272561E+02 -0.21256882131E+02  0.47787264527E+02  0.19999970283E+02 0.  0.
        -12    1    1    2    0    0  0.31948116130E+02 -0.20275272561E+02  0.21256882131E+02  0.43400735473E+02  0.00000000000E+00 0.  1.
         11    1    3    3    0    0 -0.22644952087E+02  0.15639893873E+02 -0.12873211256E+02  0.30382885046E+02  0.51100000000E-03 0.  1.
        -11    1    3    3    0    0 -0.10290132733E+02  0.33927051246E+01 -0.22466137198E+01  0.11065466695E+02  0.51100000000E-03 0. -1.
        -12    1    3    3    0    0  0.98696868978E+00  0.12426735633E+01 -0.61370571551E+01  0.63389127857E+01  0.00000000000E+00 0.  1.
</event>
<event>
 7    1  0.2110035E-010  0.4778728E+02  0.7816164E-02  0.1312668E+00
        -11   -1    0    0    0    0  0.00000000000E+00  0.00000000000E+00  0.45593999997E+02  0.45594000000E+02  0.51100000000E-03 0.  1.
         11   -1    0    0    0    0 -0.00000000000E+00 -0.00000000000E+00 -0.45593999997E+02  0.45594000000E+02  0.51100000000E-03 0. -1.
    9900012    2    1    2    0    0  0.41528366933E+00 -0.23144894323E+02 -0.36711904876E+02  0.47787279345E+02  0.20000037847E+02 0.  0.
        -12    1    1    2    0    0 -0.41528366933E+00  0.23144894323E+02  0.36711904876E+02  0.43400720655E+02  0.00000000000E+00 0.  1.
         11    1    3    3    0    0  0.27953118370E+01 -0.82390940156E+01 -0.74340945376E+01  0.11443871736E+02  0.51100000000E-03 0. -1.
        -11    1    3    3    0    0 -0.85661788996E+01 -0.86083914315E+01 -0.12764179873E+02  0.17618402654E+02  0.51100000000E-03 0.  1.
        -12    1    3    3    0    0  0.61861507320E+01 -0.62974088759E+01 -0.16513630465E+02  0.18725004955E+02  0.00000000000E+00 0.  1.
</event>
<event>
 7    1  0.2110035E-010  0.4778727E+02  0.7816164E-02  0.1312668E+00
        -11   -1    0    0    0    0  0.00000000000E+00  0.00000000000E+00  0.45593999997E+02  0.45594000000E+02  0.51100000000E-03 0.  1.
         11   -1    0    0    0    0 -0.00000000000E+00 -0.00000000000E+00 -0.45593999997E+02  0.45594000000E+02  0.51100000000E-03 0. -1.
    9900012    2    1    2    0    0  0.25701534504E+02  0.34941346870E+02 -0.14685268610E+01  0.47787272263E+02  0.20000005556E+02 0.  0.
        -12    1    1    2    0    0 -0.25701534504E+02 -0.34941346870E+02  0.14685268610E+01  0.43400727737E+02  0.00000000000E+00 0.  1.
         11    1    3    3    0    0  0.38976629849E+01 -0.57676720480E+00 -0.43148644895E+01  0.58431577915E+01  0.51100000000E-03 0. -1.
        -11    1    3    3    0    0  0.54240758440E+01  0.11421252286E+02  0.19515594799E+01  0.12793521299E+02  0.51100000000E-03 0.  1.
         12    1    3    3    0    0  0.16379795676E+02  0.24096861788E+02  0.89477814856E+00  0.29150593173E+02  0.00000000000E+00 0. -1.
</event>
<event>
 7    1  0.2110035E-010  0.4778727E+02  0.7816164E-02  0.1312668E+00
        -11   -1    0    0    0    0  0.00000000000E+00  0.00000000000E+00  0.45593999997E+02  0.45594000000E+02  0.51100000000E-03 0.  1.
         11   -1    0    0    0    0 -0.00000000000E+00 -0.00000000000E+00 -0.45593999997E+02  0.45594000000E+02  0.51100000000E-03 0. -1.
    9900012    2    1    2    0    0 -0.35358828919E+02  0.24115849720E+02 -0.71973869102E+01  0.47787269953E+02  0.19999995024E+02 0.  0.
        -12    1    1    2    0    0  0.35358828919E+02 -0.24115849720E+02  0.71973869102E+01  0.43400730047E+02  0.00000000000E+00 0.  1.
         11    1    3    3    0    0 -0.12562168434E+01  0.23308696303E+01 -0.45167487004E+01  0.52356521156E+01  0.51100000000E-03 0. -1.
        -11    1    3    3    0    0 -0.19787740127E+02  0.57452530260E+01 -0.40899372702E+01  0.21006907883E+02  0.51100000000E-03 0.  1.
        -12    1    3    3    0    0 -0.14314871949E+02  0.16039727063E+02  0.14092990604E+01  0.21544709955E+02  0.00000000000E+00 0.  1.
</event>
<event>
 7    1  0.2110035E-010  0.4778727E+02  0.7816164E-02  0.1312668E+00
        -11   -1    0    0    0    0  0.00000000000E+00  0.00000000000E+00  0.45593999997E+02  0.45594000000E+02  0.51100000000E-03 0.  1.
         11   -1    0    0    0    0 -0.00000000000E+00 -0.00000000000E+00 -0.45593999997E+02  0.45594000000E+02  0.51100000000E-03 0. -1.
    9900012    2    1    2    0    0 -0.29081550617E+02  0.21435622633E+02 -0.24049959124E+02  0.47787273764E+02  0.20000012398E+02 0.  0.
        -12    1    1    2    0    0  0.29081550617E+02 -0.21435622633E+02  0.24049959124E+02  0.43400726236E+02  0.00000000000E+00 0.  1.
         11    1    3    3    0    0 -0.23147060637E+02  0.20298940053E+02 -0.26758133207E+02  0.40790085516E+02  0.51100000000E-03 0. -1.
        -11    1    3    3    0    0 -0.25988253560E+01  0.16042995069E+01  0.16219532114E+01  0.34580923382E+01  0.51100000000E-03 0.  1.
         12    1    3    3    0    0 -0.33356646247E+01 -0.46761692744E+00  0.10862208710E+01  0.35390959099E+01  0.00000000000E+00 0. -1.
</event>
<event>
 7    1  0.2110035E-010  0.4778727E+02  0.7816164E-02  0.1312668E+00
        -11   -1    0    0    0    0  0.00000000000E+00  0.00000000000E+00  0.45593999997E+02  0.45594000000E+02  0.51100000000E-03 0.  1.
         11   -1    0    0    0    0 -0.00000000000E+00 -0.00000000000E+00 -0.45593999997E+02  0.45594000000E+02  0.51100000000E-03 0. -1.
    9900012    2    1    2    0    0  0.33474312020E+02  0.20277236202E+02 -0.18759722594E+02  0.47787273451E+02  0.20000010971E+02 0.  0.
        -12    1    1    2    0    0 -0.33474312020E+02 -0.20277236202E+02  0.18759722594E+02  0.43400726549E+02  0.00000000000E+00 0.  1.
         11    1    3    3    0    0  0.13672583548E+02  0.35145704227E+01 -0.58760049268E+01  0.15291147121E+02  0.51100000000E-03 0. -1.
        -11    1    3    3    0    0 -0.14768559489E+01  0.40244779641E+01  0.49874391033E+00  0.43158165075E+01  0.51100000000E-03 0.  1.
        -12    1    3    3    0    0  0.21278584421E+02  0.12738187815E+02 -0.13382461578E+02  0.28180309822E+02  0.00000000000E+00 0.  1.
</event>
<event>
 7    1  0.2110035E-010  0.4778727E+02  0.7816164E-02  0.1312668E+00
        -11   -1    0    0    0    0  0.00000000000E+00  0.00000000000E+00  0.45593999997E+02  0.45594000000E+02  0.51100000000E-03 0.  1.
         11   -1    0    0    0    0 -0.00000000000E+00 -0.00000000000E+00 -0.45593999997E+02  0.45594000000E+02  0.51100000000E-03 0. -1.
    9900012    2    1    2    0    0 -0.10174435263E+02  0.19157787026E+02 -0.37590999244E+02  0.47787272347E+02  0.20000005938E+02 0.  0.
        -12    1    1    2    0    0  0.10174435263E+02 -0.19157787026E+02  0.37590999244E+02  0.43400727653E+02  0.00000000000E+00 0.  1.
         11    1    3    3    0    0  0.16196174277E+01  0.18794641862E+01 -0.19495335228E+02  0.19652573423E+02  0.51100000000E-03 0. -1.
        -11    1    3    3    0    0 -0.57103058455E+01  0.42122491150E+01 -0.67266445757E+01  0.97774425574E+01  0.51100000000E-03 0.  1.
         12    1    3    3    0    0 -0.60837468454E+01  0.13066073725E+02 -0.11369019441E+02  0.18357256366E+02  0.00000000000E+00 0. -1.
</event>
<event>
 7    1  0.2110035E-010  0.4778727E+02  0.7816164E-02  0.1312668E+00
        -11   -1    0    0    0    0  0.00000000000E+00  0.00000000000E+00  0.45593999997E+02  0.45594000000E+02  0.51100000000E-03 0.  1.
         11   -1    0    0    0    0 -0.00000000000E+00 -0.00000000000E+00 -0.45593999997E+02  0.45594000000E+02  0.51100000000E-03 0. -1.
    9900012    2    1    2    0    0  0.40147896631E+02 -0.10450496832E+02  0.12749779916E+02  0.47787269870E+02  0.19999994643E+02 0.  0.
        -12    1    1    2    0    0 -0.40147896631E+02  0.10450496832E+02 -0.12749779916E+02  0.43400730130E+02  0.00000000000E+00 0.  1.
         11    1    3    3    0    0  0.10802434287E+02 -0.74089156626E+00  0.53817143444E+01  0.12091499344E+02  0.51100000000E-03 0.  1.
        -11    1    3    3    0    0  0.10003237203E+02 -0.10316597132E+02 -0.14240414037E+01  0.14440388676E+02  0.51100000000E-03 0. -1.
         12    1    3    3    0    0  0.19342225141E+02  0.60699186609E+00  0.87921069750E+01  0.21255381850E+02  0.00000000000E+00 0. -1.
</event>
<event>
 7    1  0.2110035E-010  0.4778727E+02  0.7816164E-02  0.1312668E+00
        -11   -1    0    0    0    0  0.00000000000E+00  0.00000000000E+00  0.45593999997E+02  0.45594000000E+02  0.51100000000E-03 0. -1.
         11   -1    0    0    0    0 -0.00000000000E+00 -0.00000000000E+00 -0.45593999997E+02  0.45594000000E+02  0.51100000000E-03 0.  1.
    9900012    2    1    2    0    0  0.29440018296E+02  0.19489115064E+02  0.25240502415E+02  0.47787271372E+02  0.20000001494E+02 0.  0.
        -12    1    1    2    0    0 -0.29440018296E+02 -0.19489115064E+02 -0.25240502415E+02  0.43400728628E+02  0.00000000000E+00 0.  1.
         11    1    3    3    0    0  0.10755735567E+02  0.33312003831E+01  0.51772534994E+01  0.12393010031E+02  0.51100000000E-03 0.  1.
        -11    1    3    3    0    0  0.89841630422E+01  0.11929290011E+02  0.19811320411E+02  0.24809505485E+02  0.51100000000E-03 0. -1.
         12    1    3    3    0    0  0.97001196873E+01  0.42286246699E+01  0.25192850473E+00  0.10584755855E+02  0.00000000000E+00 0. -1.
</event>
<event>
 7    1  0.2110035E-010  0.4778727E+02  0.7816164E-02  0.1312668E+00
        -11   -1    0    0    0    0  0.00000000000E+00  0.00000000000E+00  0.45593999997E+02  0.45594000000E+02  0.51100000000E-03 0.  1.
         11   -1    0    0    0    0 -0.00000000000E+00 -0.00000000000E+00 -0.45593999997E+02  0.45594000000E+02  0.51100000000E-03 0. -1.
    9900012    2    1    2    0    0  0.20502431154E+02  0.38131852786E+02  0.30389518415E+01  0.47787272951E+02  0.20000008692E+02 0.  0.
        -12    1    1    2    0    0 -0.20502431154E+02 -0.38131852786E+02 -0.30389518415E+01  0.43400727049E+02  0.00000000000E+00 0.  1.
         11    1    3    3    0    0  0.89748159028E+01  0.11685533120E+02 -0.33903337513E+00  0.14738179965E+02  0.51100000000E-03 0. -1.
        -11    1    3    3    0    0 -0.14063972988E+01 -0.14962554589E+01 -0.13829239315E+00  0.20581202121E+01  0.51100000000E-03 0.  1.
         12    1    3    3    0    0  0.12934012550E+02  0.27942575124E+02  0.35162776098E+01  0.30990972774E+02  0.00000000000E+00 0. -1.
</event>
<event>
 7    1  0.2151448E-010  0.4778728E+02  0.7816164E-02  0.1312668E+00
        -11   -1    0    0    0    0  0.00000000000E+00  0.00000000000E+00  0.45593999997E+02  0.45594000000E+02  0.51100000000E-03 0.  1.
         11   -1    0    0    0    0 -0.00000000000E+00 -0.00000000000E+00 -0.45593999997E+02  0.45594000000E+02  0.51100000000E-03 0. -1.
    9900012    2    1    2    0    0 -0.87546760463E+01 -0.12966714729E+02 -0.40482623831E+02  0.47787275630E+02  0.20000020908E+02 0.  0.
        -12    1    1    2    0    0  0.87546760463E+01  0.12966714729E+02  0.40482623831E+02  0.43400724370E+02  0.00000000000E+00 0.  1.
         11    1    3    3    0    0 -0.45034860593E+01 -0.12951338044E+02 -0.20242592533E+02  0.24449562297E+02  0.51100000000E-03 0. -1.
        -11    1    3    3    0    0 -0.35759808819E+01 -0.97300988068E+00 -0.21382445562E+02  0.21701229596E+02  0.51100000000E-03 0.  1.
        -12    1    3    3    0    0 -0.67520910509E+00  0.95763319549E+00  0.11424142633E+01  0.16364837371E+01  0.00000000000E+00 0.  1.
</event>
<event>
 7    1  0.2110035E-010  0.4778727E+02  0.7816164E-02  0.1312668E+00
        -11   -1    0    0    0    0  0.00000000000E+00  0.00000000000E+00  0.45593999997E+02  0.45594000000E+02  0.51100000000E-03 0.  1.
         11   -1    0    0    0    0 -0.00000000000E+00 -0.00000000000E+00 -0.45593999997E+02  0.45594000000E+02  0.51100000000E-03 0. -1.
    9900012    2    1    2    0    0  0.23592697347E+02 -0.79641567708E+01 -0.35546870694E+02  0.47787272157E+02  0.20000005073E+02 0.  0.
        -12    1    1    2    0    0 -0.23592697347E+02  0.79641567708E+01  0.35546870694E+02  0.43400727843E+02  0.00000000000E+00 0.  1.
         11    1    3    3    0    0 -0.14660992850E+00  0.12444302023E+01 -0.83688515647E+01  0.84621378961E+01  0.51100000000E-03 0.  1.
        -11    1    3    3    0    0  0.20758721978E+02 -0.25754085189E+01 -0.22260473305E+02  0.30546455428E+02  0.51100000000E-03 0. -1.
         12    1    3    3    0    0  0.29805852974E+01 -0.66331784542E+01 -0.49175458246E+01  0.87786788333E+01  0.00000000000E+00 0. -1.
</event>
<event>
 7    1  0.2110035E-010  0.4778727E+02  0.7816164E-02  0.1312668E+00
        -11   -1    0    0    0    0  0.00000000000E+00  0.00000000000E+00  0.45593999997E+02  0.45594000000E+02  0.51100000000E-03 0.  1.
         11   -1    0    0    0    0 -0.00000000000E+00 -0.00000000000E+00 -0.45593999997E+02  0.45594000000E+02  0.51100000000E-03 0. -1.
    9900012    2    1    2    0    0  0.10207415523E+02  0.23256173869E+02 -0.35193494890E+02  0.47787273770E+02  0.20000012428E+02 0.  0.
        -12    1    1    2    0    0 -0.10207415523E+02 -0.23256173869E+02  0.35193494890E+02  0.43400726230E+02  0.00000000000E+00 0.  1.
         11    1    3    3    0    0  0.11019769986E+02  0.10997498428E+02 -0.20327586073E+02  0.25604512454E+02  0.51100000000E-03 0. -1.
        -11    1    3    3    0    0 -0.19489549167E+01  0.13376329223E+02 -0.15409819008E+02  0.20498466549E+02  0.51100000000E-03 0.  1.
        -12    1    3    3    0    0  0.11366004530E+01 -0.11176537815E+01  0.54391019059E+00  0.16842947665E+01  0.00000000000E+00 0.  1.
</event>
<event>
 7    1  0.2110035E-010  0.4778727E+02  0.7816164E-02  0.1312668E+00
        -11   -1    0    0    0    0  0.00000000000E+00  0.00000000000E+00  0.45593999997E+02  0.45594000000E+02  0.51100000000E-03 0.  1.
         11   -1    0    0    0    0 -0.00000000000E+00 -0.00000000000E+00 -0.45593999997E+02  0.45594000000E+02  0.51100000000E-03 0. -1.
    9900012    2    1    2    0    0 -0.68498519101E+00  0.55418210931E+01 -0.43040007302E+02  0.47787271731E+02  0.20000003129E+02 0.  0.
        -12    1    1    2    0    0  0.68498519101E+00 -0.55418210931E+01  0.43040007302E+02  0.43400728269E+02  0.00000000000E+00 0.  1.
         11    1    3    3    0    0 -0.62783477998E+01 -0.45581190554E+01 -0.21107300894E+02  0.22488046863E+02  0.51100000000E-03 0.  1.
        -11    1    3    3    0    0  0.27599891546E+01  0.28349992845E+01 -0.12213963254E+02  0.12838834048E+02  0.51100000000E-03 0. -1.
        -12    1    3    3    0    0  0.28333734542E+01  0.72649408640E+01 -0.97187431546E+01  0.12460390820E+02  0.00000000000E+00 0.  1.
</event>
<event>
 7    1  0.2110035E-010  0.4778728E+02  0.7816164E-02  0.1312668E+00
        -11   -1    0    0    0    0  0.00000000000E+00  0.00000000000E+00  0.45593999997E+02  0.45594000000E+02  0.51100000000E-03 0. -1.
         11   -1    0    0    0    0 -0.00000000000E+00 -0.00000000000E+00 -0.45593999997E+02  0.45594000000E+02  0.51100000000E-03 0.  1.
    9900012    2    1    2    0    0 -0.31099856071E+02  0.33016257643E+01  0.30091875286E+02  0.47787277211E+02  0.20000028118E+02 0.  0.
        -12    1    1    2    0    0  0.31099856071E+02 -0.33016257643E+01 -0.30091875286E+02  0.43400722789E+02  0.00000000000E+00 0.  1.
         11    1    3    3    0    0 -0.43275862383E+01  0.10789247172E+01 -0.17400405661E+01  0.47874651568E+01  0.51100000000E-03 0. -1.
        -11    1    3    3    0    0 -0.11495995593E+02  0.62786358316E+01  0.14796645256E+02  0.19761576194E+02  0.51100000000E-03 0.  1.
         12    1    3    3    0    0 -0.15276274240E+02 -0.40559347845E+01  0.17035270596E+02  0.23238235861E+02  0.00000000000E+00 0. -1.
</event>
<event>
 7    1  0.2110035E-010  0.4778727E+02  0.7816164E-02  0.1312668E+00
        -11   -1    0    0    0    0  0.00000000000E+00  0.00000000000E+00  0.45593999997E+02  0.45594000000E+02  0.51100000000E-03 0. -1.
         11   -1    0    0    0    0 -0.00000000000E+00 -0.00000000000E+00 -0.45593999997E+02  0.45594000000E+02  0.51100000000E-03 0.  1.
    9900012    2    1    2    0    0  0.28571201203E+02 -0.21197166756E+02  0.24859400150E+02  0.47787271982E+02  0.20000004275E+02 0.  0.
        -12    1    1    2    0    0 -0.28571201203E+02  0.21197166756E+02 -0.24859400150E+02  0.43400728018E+02  0.00000000000E+00 0.  1.
         11    1    3    3    0    0  0.25017753696E+02 -0.20172349432E+02  0.12855838338E+02  0.34613353799E+02  0.51100000000E-03 0. -1.
        -11    1    3    3    0    0 -0.74269043599E+00  0.36061942940E+00  0.11202762188E+01  0.13916373536E+01  0.51100000000E-03 0.  1.
         12    1    3    3    0    0  0.42961379427E+01 -0.13854367536E+01  0.10883285594E+02  0.11782280829E+02  0.00000000000E+00 0. -1.
</event>
<event>
 7    1  0.2110035E-010  0.4778727E+02  0.7816164E-02  0.1312668E+00
        -11   -1    0    0    0    0  0.00000000000E+00  0.00000000000E+00  0.45593999997E+02  0.45594000000E+02  0.51100000000E-03 0. -1.
         11   -1    0    0    0    0 -0.00000000000E+00 -0.00000000000E+00 -0.45593999997E+02  0.45594000000E+02  0.51100000000E-03 0.  1.
    9900012    2    1    2    0    0 -0.31251679530E+02  0.17537048394E+02  0.24482802655E+02  0.47787272291E+02  0.20000005685E+02 0.  0.
        -12    1    1    2    0    0  0.31251679530E+02 -0.17537048394E+02 -0.24482802655E+02  0.43400727709E+02  0.00000000000E+00 0.  1.
         11    1    3    3    0    0 -0.19482434830E+01 -0.36919887005E+00  0.71108511164E+01  0.73821517415E+01  0.51100000000E-03 0. -1.
        -11    1    3    3    0    0 -0.13500098685E+02  0.15352212780E+02  0.10525814368E+02  0.22994257329E+02  0.51100000000E-03 0.  1.
         12    1    3    3    0    0 -0.15803337362E+02  0.25540344838E+01  0.68461371703E+01  0.17410863221E+02  0.00000000000E+00 0. -1.
</event>
<event>
 7    1  0.2110035E-010  0.4778727E+02  0.7816164E-02  0.1312668E+00
        -11   -1    0    0    0    0  0.00000000000E+00  0.00000000000E+00  0.45593999997E+02  0.45594000000E+02  0.51100000000E-03 0. -1.
         11   -1    0    0    0    0 -0.00000000000E+00 -0.00000000000E+00 -0.45593999997E+02  0.45594000000E+02  0.51100000000E-03 0.  1.
    9900012    2    1    2    0    0 -0.35982113144E+02 -0.24212893531E+02  0.16269348785E+01  0.47787267327E+02  0.19999983051E+02 0.  0.
        -12    1    1    2    0    0  0.35982113144E+02  0.24212893531E+02 -0.16269348785E+01  0.43400732673E+02  0.00000000000E+00 0.  1.
         11    1    3    3    0    0 -0.16277086717E+02 -0.14876408534E+02 -0.10335370273E+00  0.22051343839E+02  0.51100000000E-03 0. -1.
        -11    1    3    3    0    0 -0.15151047219E+02  0.13887733432E+00  0.61711770164E+00  0.15164245885E+02  0.51100000000E-03 0.  1.
        -12    1    3    3    0    0 -0.45539792082E+01 -0.94753623314E+01  0.11131708796E+01  0.10571677603E+02  0.00000000000E+00 0.  1.
</event>
<event>
 7    1  0.2110035E-010  0.4778727E+02  0.7816164E-02  0.1312668E+00
        -11   -1    0    0    0    0  0.00000000000E+00  0.00000000000E+00  0.45593999997E+02  0.45594000000E+02  0.51100000000E-03 0.  1.
         11   -1    0    0    0    0 -0.00000000000E+00 -0.00000000000E+00 -0.45593999997E+02  0.45594000000E+02  0.51100000000E-03 0. -1.
    9900012    2    1    2    0    0 -0.39788503716E+01 -0.23015127893E+02 -0.36579993986E+02  0.47787270488E+02  0.19999997462E+02 0.  0.
        -12    1    1    2    0    0  0.39788503716E+01  0.23015127893E+02  0.36579993986E+02  0.43400729512E+02  0.00000000000E+00 0.  1.
         11    1    3    3    0    0  0.32971279349E+01 -0.11413372407E+02 -0.88874004016E+01  0.14836509309E+02  0.51100000000E-03 0. -1.
        -11    1    3    3    0    0 -0.77182160367E+01 -0.10411693282E+02 -0.13546641496E+02  0.18747952205E+02  0.51100000000E-03 0.  1.
        -12    1    3    3    0    0  0.44223773027E+00 -0.11900622035E+01 -0.14145952088E+02  0.14202808974E+02  0.00000000000E+00 0.  1.
</event>
<event>
 7    1  0.2110035E-010  0.4778727E+02  0.7816164E-02  0.1312668E+00
        -11   -1    0    0    0    0  0.00000000000E+00  0.00000000000E+00  0.45593999997E+02  0.45594000000E+02  0.51100000000E-03 0. -1.
         11   -1    0    0    0    0 -0.00000000000E+00 -0.00000000000E+00 -0.45593999997E+02  0.45594000000E+02  0.51100000000E-03 0.  1.
    9900012    2    1    2    0    0 -0.64514634544E+01  0.36542550623E+02  0.22508755082E+02  0.47787269107E+02  0.19999991167E+02 0.  0.
        -12    1    1    2    0    0  0.64514634544E+01 -0.36542550623E+02 -0.22508755082E+02  0.43400730893E+02  0.00000000000E+00 0.  1.
         11    1    3    3    0    0  0.21679777558E+00  0.10113408979E+01  0.42420026135E+01  0.43662796660E+01  0.51100000000E-03 0. -1.
        -11    1    3    3    0    0  0.94911954276E+00  0.19513320917E+02  0.25117041904E+01  0.19697187092E+02  0.51100000000E-03 0.  1.
        -12    1    3    3    0    0 -0.76173807727E+01  0.16017888808E+02  0.15755048278E+02  0.23723802350E+02  0.00000000000E+00 0.  1.
</event>
<event>
 7    1  0.2110035E-010  0.4778728E+02  0.7816164E-02  0.1312668E+00
        -11   -1    0    0    0    0  0.00000000000E+00  0.00000000000E+00  0.45593999997E+02  0.45594000000E+02  0.51100000000E-03 0.  1.
         11   -1    0    0    0    0 -0.00000000000E+00 -0.00000000000E+00 -0.45593999997E+02  0.45594000000E+02  0.51100000000E-03 0. -1.
    9900012    2    1    2    0    0 -0.96843251032E+01  0.15678782358E+02 -0.39293924896E+02  0.47787275321E+02  0.20000019498E+02 0.  0.
        -12    1    1    2    0    0  0.96843251032E+01 -0.15678782358E+02  0.39293924896E+02  0.43400724679E+02  0.00000000000E+00 0.  1.
         11    1    3    3    0    0 -0.19050746509E+01  0.11184879314E+02 -0.67033609984E+01  0.13178235224E+02  0.51100000000E-03 0. -1.
        -11    1    3    3    0    0 -0.17101868019E+01 -0.20761573009E+01 -0.82281824881E+01  0.86566826991E+01  0.51100000000E-03 0.  1.
        -12    1    3    3    0    0 -0.60690636505E+01  0.65700603448E+01 -0.24362381410E+02  0.25952357397E+02  0.00000000000E+00 0.  1.
</event>
<event>
 7    1  0.2110035E-010  0.4778727E+02  0.7816164E-02  0.1312668E+00
        -11   -1    0    0    0    0  0.00000000000E+00  0.00000000000E+00  0.45593999997E+02  0.45594000000E+02  0.51100000000E-03 0. -1.
         11   -1    0    0    0    0 -0.00000000000E+00 -0.00000000000E+00 -0.45593999997E+02  0.45594000000E+02  0.51100000000E-03 0.  1.
    9900012    2    1    2    0    0  0.18859256716E+02  0.34434258726E+02 -0.18499557519E+02  0.47787269980E+02  0.19999995145E+02 0.  0.
        -12    1    1    2    0    0 -0.18859256716E+02 -0.34434258726E+02  0.18499557519E+02  0.43400730020E+02  0.00000000000E+00 0.  1.
         11    1    3    3    0    0  0.61501091620E+01  0.28499774010E+01 -0.78310132595E+01  0.10357170599E+02  0.51100000000E-03 0.  1.
        -11    1    3    3    0    0  0.16279628231E+01  0.75688537901E+01  0.21554773931E+01  0.80364104986E+01  0.51100000000E-03 0. -1.
         12    1    3    3    0    0  0.11081184731E+02  0.24015427535E+02 -0.12824021653E+02  0.29393688882E+02  0.00000000000E+00 0. -1.
</event>
<event>
 7    1  0.2110035E-010  0.4778727E+02  0.7816164E-02  0.1312668E+00
        -11   -1    0    0    0    0  0.00000000000E+00  0.00000000000E+00  0.45593999997E+02  0.45594000000E+02  0.51100000000E-03 0.  1.
         11   -1    0    0    0    0 -0.00000000000E+00 -0.00000000000E+00 -0.45593999997E+02  0.45594000000E+02  0.51100000000E-03 0. -1.
    9900012    2    1    2    0    0 -0.12008448015E+02  0.41697187762E+02  0.87472479686E+00  0.47787269194E+02  0.19999991564E+02 0.  0.
        -12    1    1    2    0    0  0.12008448015E+02 -0.41697187762E+02 -0.87472479686E+00  0.43400730806E+02  0.00000000000E+00 0.  1.
         11    1    3    3    0    0 -0.95699461180E+00  0.79186377732E+01 -0.48471230884E+01  0.93335558800E+01  0.51100000000E-03 0. -1.
        -11    1    3    3    0    0 -0.23561240474E+01  0.16188460166E+02  0.88255434572E+01  0.18587839591E+02  0.51100000000E-03 0.  1.
        -12    1    3    3    0    0 -0.86953293557E+01  0.17590089823E+02 -0.31036955720E+01  0.19865873724E+02  0.00000000000E+00 0.  1.
</event>
<event>
 7    1  0.2110035E-010  0.4778727E+02  0.7816164E-02  0.1312668E+00
        -11   -1    0    0    0    0  0.00000000000E+00  0.00000000000E+00  0.45593999997E+02  0.45594000000E+02  0.51100000000E-03 0. -1.
         11   -1    0    0    0    0 -0.00000000000E+00 -0.00000000000E+00 -0.45593999997E+02  0.45594000000E+02  0.51100000000E-03 0.  1.
    9900012    2    1    2    0    0 -0.23877451174E+02 -0.27300422255E+02  0.23836471161E+02  0.47787273194E+02  0.20000009801E+02 0.  0.
        -12    1    1    2    0    0  0.23877451174E+02  0.27300422255E+02 -0.23836471161E+02  0.43400726806E+02  0.00000000000E+00 0.  1.
         11    1    3    3    0    0 -0.22796511843E+01 -0.72660034452E+01  0.10193877414E+02  0.12724258429E+02  0.51100000000E-03 0. -1.
        -11    1    3    3    0    0 -0.19302745823E+02 -0.22007608089E+02  0.12353351886E+02  0.31773198032E+02  0.51100000000E-03 0.  1.
         12    1    3    3    0    0 -0.22950541666E+01  0.19731892789E+01  0.12892418615E+01  0.32898167328E+01  0.00000000000E+00 0. -1.
</event>
<event>
 7    1  0.2110035E-010  0.4778727E+02  0.7816164E-02  0.1312668E+00
        -11   -1    0    0    0    0  0.00000000000E+00  0.00000000000E+00  0.45593999997E+02  0.45594000000E+02  0.51100000000E-03 0.  1.
         11   -1    0    0    0    0 -0.00000000000E+00 -0.00000000000E+00 -0.45593999997E+02  0.45594000000E+02  0.51100000000E-03 0. -1.
    9900012    2    1    2    0    0 -0.18721850949E+01 -0.37918408220E+02 -0.21031222417E+02  0.47787273332E+02  0.20000010429E+02 0.  0.
        -12    1    1    2    0    0  0.18721850949E+01  0.37918408220E+02  0.21031222417E+02  0.43400726668E+02  0.00000000000E+00 0.  1.
         11    1    3    3    0    0 -0.64512385093E+01 -0.13115332396E+02 -0.79862440365E+01  0.16655645176E+02  0.51100000000E-03 0. -1.
        -11    1    3    3    0    0  0.66254601661E+01 -0.11966735435E+02 -0.15253283786E+01  0.13763215697E+02  0.51100000000E-03 0.  1.
         12    1    3    3    0    0 -0.20464067518E+01 -0.12836340388E+02 -0.11519650002E+02  0.17368412459E+02  0.00000000000E+00 0. -1.
</event>
<event>
 7    1  0.2110035E-010  0.4778731E+02  0.7816164E-02  0.1312668E+00
        -11   -1    0    0    0    0  0.00000000000E+00  0.00000000000E+00  0.45593999997E+02  0.45594000000E+02  0.51100000000E-03 0.  1.
         11   -1    0    0    0    0 -0.00000000000E+00 -0.00000000000E+00 -0.45593999997E+02  0.45594000000E+02  0.51100000000E-03 0. -1.
    9900012    2    1    2    0    0  0.20244645381E+02  0.17603545003E+02 -0.34115818374E+02  0.47787314215E+02  0.20000196831E+02 0.  0.
        -12    1    1    2    0    0 -0.20244645381E+02 -0.17603545003E+02  0.34115818374E+02  0.43400685785E+02  0.00000000000E+00 0.  1.
         11    1    3    3    0    0 -0.51662093991E+00 -0.17652794079E-01  0.48641639797E+00  0.70979573824E+00  0.51100000000E-03 0. -1.
        -11    1    3    3    0    0  0.48208260400E+01  0.33992425032E+01  0.56976245296E+00  0.59261996943E+01  0.51100000000E-03 0.  1.
         12    1    3    3    0    0  0.15940440281E+02  0.14221955293E+02 -0.35171997225E+02  0.41151318782E+02  0.00000000000E+00 0. -1.
</event>
<event>
 7    1  0.2110035E-010  0.4778728E+02  0.7816164E-02  0.1312668E+00
        -11   -1    0    0    0    0  0.00000000000E+00  0.00000000000E+00  0.45593999997E+02  0.45594000000E+02  0.51100000000E-03 0.  1.
         11   -1    0    0    0    0 -0.00000000000E+00 -0.00000000000E+00 -0.45593999997E+02  0.45594000000E+02  0.51100000000E-03 0. -1.
    9900012    2    1    2    0    0 -0.32605619848E+01  0.16231086303E+02 -0.40119114812E+02  0.47787276500E+02  0.20000024875E+02 0.  0.
        -12    1    1    2    0    0  0.32605619848E+01 -0.16231086303E+02  0.40119114812E+02  0.43400723500E+02  0.00000000000E+00 0.  1.
         11    1    3    3    0    0 -0.56824150848E+01  0.90115980949E+01 -0.27883372428E+02  0.29849308194E+02  0.51100000000E-03 0. -1.
        -11    1    3    3    0    0  0.24676843953E+01  0.99972299486E+01 -0.10198951824E+02  0.14493194661E+02  0.51100000000E-03 0.  1.
        -12    1    3    3    0    0 -0.45831295273E-01 -0.27777417403E+01 -0.20367905595E+01  0.34447736452E+01  0.00000000000E+00 0.  1.
</event>
<event>
 7    1  0.2110035E-010  0.4778728E+02  0.7816164E-02  0.1312668E+00
        -11   -1    0    0    0    0  0.00000000000E+00  0.00000000000E+00  0.45593999997E+02  0.45594000000E+02  0.51100000000E-03 0.  1.
         11   -1    0    0    0    0 -0.00000000000E+00 -0.00000000000E+00 -0.45593999997E+02  0.45594000000E+02  0.51100000000E-03 0. -1.
    9900012    2    1    2    0    0 -0.59648063793E+01  0.19193403182E+02 -0.38466310633E+02  0.47787277719E+02  0.20000030431E+02 0.  0.
        -12    1    1    2    0    0  0.59648063793E+01 -0.19193403182E+02  0.38466310633E+02  0.43400722281E+02  0.00000000000E+00 0.  1.
         11    1    3    3    0    0 -0.42039922934E+01  0.84806430826E+01 -0.22156079139E+02  0.24093291626E+02  0.51100000000E-03 0. -1.
        -11    1    3    3    0    0  0.55340889446E+01  0.72087064693E+01 -0.83190403480E+01  0.12320633993E+02  0.51100000000E-03 0.  1.
         12    1    3    3    0    0 -0.72949030305E+01  0.35040536302E+01 -0.79911911450E+01  0.11373352100E+02  0.00000000000E+00 0. -1.
</event>
<event>
 7    1  0.2110035E-010  0.4778727E+02  0.7816164E-02  0.1312668E+00
        -11   -1    0    0    0    0  0.00000000000E+00  0.00000000000E+00  0.45593999997E+02  0.45594000000E+02  0.51100000000E-03 0. -1.
         11   -1    0    0    0    0 -0.00000000000E+00 -0.00000000000E+00 -0.45593999997E+02  0.45594000000E+02  0.51100000000E-03 0.  1.
    9900012    2    1    2    0    0 -0.76129331101E+01  0.42698893192E+02 -0.15719528571E+01  0.47787271134E+02  0.20000000406E+02 0.  0.
        -12    1    1    2    0    0  0.76129331101E+01 -0.42698893192E+02  0.15719528571E+01  0.43400728866E+02  0.00000000000E+00 0.  1.
         11    1    3    3    0    0 -0.27157369911E+01  0.12329227531E+02  0.20451275342E+01  0.12789355958E+02  0.51100000000E-03 0. -1.
        -11    1    3    3    0    0 -0.40631140946E+01  0.58065046530E+01 -0.72675837768E+01  0.10150968754E+02  0.51100000000E-03 0.  1.
        -12    1    3    3    0    0 -0.83408202438E+00  0.24563161008E+02  0.36505033855E+01  0.24846946422E+02  0.00000000000E+00 0.  1.
</event>
<event>
 7    1  0.2110035E-010  0.4778722E+02  0.7816164E-02  0.1312668E+00
        -11   -1    0    0    0    0  0.00000000000E+00  0.00000000000E+00  0.45593999997E+02  0.45594000000E+02  0.51100000000E-03 0.  1.
         11   -1    0    0    0    0 -0.00000000000E+00 -0.00000000000E+00 -0.45593999997E+02  0.45594000000E+02  0.51100000000E-03 0. -1.
    9900012    2    1    2    0    0 -0.14636594556E+02  0.38032060587E+02  0.14931863728E+02  0.47787215594E+02  0.19999747177E+02 0.  0.
        -12    1    1    2    0    0  0.14636594556E+02 -0.38032060587E+02 -0.14931863728E+02  0.43400784406E+02  0.00000000000E+00 0.  1.
         11    1    3    3    0    0 -0.60471605161E+01  0.26858513723E+02  0.35734235671E+01  0.27761795078E+02  0.51100000000E-03 0.  1.
        -11    1    3    3    0    0 -0.17400345044E+01  0.52270906466E+01  0.24982438483E-01  0.55091579291E+01  0.51100000000E-03 0. -1.
        -12    1    3    3    0    0 -0.68493995351E+01  0.59464562177E+01  0.11333457723E+02  0.14516262587E+02  0.00000000000E+00 0.  1.
</event>
<event>
 7    1  0.2110035E-010  0.4778727E+02  0.7816164E-02  0.1312668E+00
        -11   -1    0    0    0    0  0.00000000000E+00  0.00000000000E+00  0.45593999997E+02  0.45594000000E+02  0.51100000000E-03 0.  1.
         11   -1    0    0    0    0 -0.00000000000E+00 -0.00000000000E+00 -0.45593999997E+02  0.45594000000E+02  0.51100000000E-03 0. -1.
    9900012    2    1    2    0    0  0.25303794772E+02  0.26018509548E+01 -0.35164923354E+02  0.47787268523E+02  0.19999988503E+02 0.  0.
        -12    1    1    2    0    0 -0.25303794772E+02 -0.26018509548E+01  0.35164923354E+02  0.43400731477E+02  0.00000000000E+00 0.  1.
         11    1    3    3    0    0  0.70621955850E+01 -0.27781881127E+01 -0.29447375015E+01  0.81402957491E+01  0.51100000000E-03 0. -1.
        -11    1    3    3    0    0  0.69194270315E+01  0.79674689842E+01 -0.20979837489E+02  0.23484305691E+02  0.51100000000E-03 0.  1.
         12    1    3    3    0    0  0.11322172156E+02 -0.25874299166E+01 -0.11240348363E+02  0.16162667083E+02  0.00000000000E+00 0. -1.
</event>
<event>
 7    1  0.2110035E-010  0.4778727E+02  0.7816164E-02  0.1312668E+00
        -11   -1    0    0    0    0  0.00000000000E+00  0.00000000000E+00  0.45593999997E+02  0.45594000000E+02  0.51100000000E-03 0.  1.
         11   -1    0    0    0    0 -0.00000000000E+00 -0.00000000000E+00 -0.45593999997E+02  0.45594000000E+02  0.51100000000E-03 0. -1.
    9900012    2    1    2    0    0  0.23975095804E+02 -0.51244227985E+01 -0.35812824154E+02  0.47787270723E+02  0.19999998536E+02 0.  0.
        -12    1    1    2    0    0 -0.23975095804E+02  0.51244227985E+01  0.35812824154E+02  0.43400729277E+02  0.00000000000E+00 0.  1.
         11    1    3    3    0    0  0.12746706623E+02 -0.86664413403E+01 -0.19893179532E+02  0.25165935854E+02  0.51100000000E-03 0. -1.
        -11    1    3    3    0    0 -0.22128153428E+01  0.21067266992E+00 -0.22748093021E+01  0.31805176210E+01  0.51100000000E-03 0.  1.
        -12    1    3    3    0    0  0.13441204524E+02  0.33313458719E+01 -0.13644835320E+02  0.19440817249E+02  0.00000000000E+00 0.  1.
</event>
<event>
 7    1  0.2110035E-010  0.4778728E+02  0.7816164E-02  0.1312668E+00
        -11   -1    0    0    0    0  0.00000000000E+00  0.00000000000E+00  0.45593999997E+02  0.45594000000E+02  0.51100000000E-03 0.  1.
         11   -1    0    0    0    0 -0.00000000000E+00 -0.00000000000E+00 -0.45593999997E+02  0.45594000000E+02  0.51100000000E-03 0. -1.
    9900012    2    1    2    0    0  0.39614991805E+02 -0.14369811599E+02 -0.10381895411E+02  0.47787276349E+02  0.20000024184E+02 0.  0.
        -12    1    1    2    0    0 -0.39614991805E+02  0.14369811599E+02  0.10381895411E+02  0.43400723651E+02  0.00000000000E+00 0.  1.
         11    1    3    3    0    0  0.14663549624E+02 -0.52466277695E+01  0.34201248470E+01  0.15945031977E+02  0.51100000000E-03 0. -1.
        -11    1    3    3    0    0  0.18054945059E+01 -0.37348017090E+01 -0.50068095245E+01  0.65020532213E+01  0.51100000000E-03 0.  1.
        -12    1    3    3    0    0  0.23145947676E+02 -0.53883821210E+01 -0.87952107337E+01  0.25340191151E+02  0.00000000000E+00 0.  1.
</event>
<event>
 7    1  0.2110035E-010  0.4778727E+02  0.7816164E-02  0.1312668E+00
        -11   -1    0    0    0    0  0.00000000000E+00  0.00000000000E+00  0.45593999997E+02  0.45594000000E+02  0.51100000000E-03 0.  1.
         11   -1    0    0    0    0 -0.00000000000E+00 -0.00000000000E+00 -0.45593999997E+02  0.45594000000E+02  0.51100000000E-03 0. -1.
    9900012    2    1    2    0    0 -0.40162590758E+02  0.12613134972E+02 -0.10559289813E+02  0.47787268766E+02  0.19999989614E+02 0.  0.
        -12    1    1    2    0    0  0.40162590758E+02 -0.12613134972E+02  0.10559289813E+02  0.43400731234E+02  0.00000000000E+00 0.  1.
         11    1    3    3    0    0 -0.18949224340E+01  0.20607166583E+01 -0.29737765854E+01  0.40841928967E+01  0.51100000000E-03 0. -1.
        -11    1    3    3    0    0 -0.38460473754E+02  0.11380192623E+02 -0.43339727489E+01  0.40342287312E+02  0.51100000000E-03 0.  1.
        -12    1    3    3    0    0  0.19280542951E+00 -0.82777431003E+00 -0.32515404791E+01  0.33607885576E+01  0.00000000000E+00 0.  1.
</event>
<event>
 7    1  0.2110035E-010  0.4778727E+02  0.7816164E-02  0.1312668E+00
        -11   -1    0    0    0    0  0.00000000000E+00  0.00000000000E+00  0.45593999997E+02  0.45594000000E+02  0.51100000000E-03 0.  1.
         11   -1    0    0    0    0 -0.00000000000E+00 -0.00000000000E+00 -0.45593999997E+02  0.45594000000E+02  0.51100000000E-03 0. -1.
    9900012    2    1    2    0    0 -0.38188327300E+02  0.14839846402E+02 -0.14319707323E+02  0.47787269579E+02  0.19999993320E+02 0.  0.
        -12    1    1    2    0    0  0.38188327300E+02 -0.14839846402E+02  0.14319707323E+02  0.43400730421E+02  0.00000000000E+00 0.  1.
         11    1    3    3    0    0 -0.81184197840E+01 -0.32562515998E+00 -0.27829107050E+01  0.85883271822E+01  0.51100000000E-03 0. -1.
        -11    1    3    3    0    0 -0.20247440524E+02  0.40205605413E+01 -0.42465249243E+00  0.20647132606E+02  0.51100000000E-03 0.  1.
         12    1    3    3    0    0 -0.98224669924E+01  0.11144911021E+02 -0.11112144125E+02  0.18551809792E+02  0.00000000000E+00 0. -1.
</event>
<event>
 7    1  0.2110035E-010  0.4778728E+02  0.7816164E-02  0.1312668E+00
        -11   -1    0    0    0    0  0.00000000000E+00  0.00000000000E+00  0.45593999997E+02  0.45594000000E+02  0.51100000000E-03 0. -1.
         11   -1    0    0    0    0 -0.00000000000E+00 -0.00000000000E+00 -0.45593999997E+02  0.45594000000E+02  0.51100000000E-03 0.  1.
    9900012    2    1    2    0    0 -0.58378929981E+00  0.34951657638E+02  0.25722818679E+02  0.47787279011E+02  0.20000036322E+02 0.  0.
        -12    1    1    2    0    0  0.58378929981E+00 -0.34951657638E+02 -0.25722818679E+02  0.43400720989E+02  0.00000000000E+00 0.  1.
         11    1    3    3    0    0 -0.12871904159E+01  0.19203734310E+02  0.69326553924E+01  0.20457320980E+02  0.51100000000E-03 0. -1.
        -11    1    3    3    0    0  0.25575004399E+01 -0.94922984844E+00  0.11219773996E+01  0.29496913994E+01  0.51100000000E-03 0.  1.
         12    1    3    3    0    0 -0.18540993238E+01  0.16697153176E+02  0.17668185887E+02  0.24380266632E+02  0.00000000000E+00 0. -1.
</event>
<event>
 7    1  0.2110035E-010  0.4778727E+02  0.7816164E-02  0.1312668E+00
        -11   -1    0    0    0    0  0.00000000000E+00  0.00000000000E+00  0.45593999997E+02  0.45594000000E+02  0.51100000000E-03 0. -1.
         11   -1    0    0    0    0 -0.00000000000E+00 -0.00000000000E+00 -0.45593999997E+02  0.45594000000E+02  0.51100000000E-03 0.  1.
    9900012    2    1    2    0    0  0.12726642300E+02 -0.41353397128E+02 -0.33989074151E+01  0.47787269017E+02  0.19999990754E+02 0.  0.
        -12    1    1    2    0    0 -0.12726642300E+02  0.41353397128E+02  0.33989074151E+01  0.43400730983E+02  0.00000000000E+00 0.  1.
         11    1    3    3    0    0  0.56615743765E+01 -0.70189540289E+01  0.43960831760E+01  0.10032182596E+02  0.51100000000E-03 0. -1.
        -11    1    3    3    0    0 -0.16430816434E+01 -0.19212703129E+02 -0.20874790329E+01  0.19395495554E+02  0.51100000000E-03 0.  1.
         12    1    3    3    0    0  0.87081495670E+01 -0.15121739971E+02 -0.57075115582E+01  0.18359590867E+02  0.00000000000E+00 0. -1.
</event>
<event>
 7    1  0.2110035E-010  0.4778727E+02  0.7816164E-02  0.1312668E+00
        -11   -1    0    0    0    0  0.00000000000E+00  0.00000000000E+00  0.45593999997E+02  0.45594000000E+02  0.51100000000E-03 0. -1.
         11   -1    0    0    0    0 -0.00000000000E+00 -0.00000000000E+00 -0.45593999997E+02  0.45594000000E+02  0.51100000000E-03 0.  1.
    9900012    2    1    2    0    0  0.12768516298E+02 -0.12691254507E+02  0.39490763936E+02  0.47787269757E+02  0.19999994129E+02 0.  0.
        -12    1    1    2    0    0 -0.12768516298E+02  0.12691254507E+02 -0.39490763936E+02  0.43400730243E+02  0.00000000000E+00 0.  1.
         11    1    3    3    0    0 -0.14263870986E+00 -0.70322320671E+01  0.12254076837E+02  0.14129226200E+02  0.51100000000E-03 0. -1.
        -11    1    3    3    0    0  0.96734652524E+01 -0.37325343226E+01  0.57753880278E+01  0.11868565608E+02  0.51100000000E-03 0.  1.
         12    1    3    3    0    0  0.32376897551E+01 -0.19264881173E+01  0.21461299072E+02  0.21789477948E+02  0.00000000000E+00 0. -1.
</event>
<event>
 7    1  0.2110035E-010  0.4778727E+02  0.7816164E-02  0.1312668E+00
        -11   -1    0    0    0    0  0.00000000000E+00  0.00000000000E+00  0.45593999997E+02  0.45594000000E+02  0.51100000000E-03 0.  1.
         11   -1    0    0    0    0 -0.00000000000E+00 -0.00000000000E+00 -0.45593999997E+02  0.45594000000E+02  0.51100000000E-03 0. -1.
    9900012    2    1    2    0    0 -0.24680309919E+02 -0.23633908666E+02 -0.26757129432E+02  0.47787270605E+02  0.19999997998E+02 0.  0.
        -12    1    1    2    0    0  0.24680309919E+02  0.23633908666E+02  0.26757129432E+02  0.43400729395E+02  0.00000000000E+00 0.  1.
         11    1    3    3    0    0 -0.61228045656E+01 -0.12837275697E+02 -0.11542820250E+02  0.18317234580E+02  0.51100000000E-03 0. -1.
        -11    1    3    3    0    0 -0.16005025689E+01 -0.66226112110E+00  0.24291780722E+01  0.29834719092E+01  0.51100000000E-03 0.  1.
        -12    1    3    3    0    0 -0.16957002785E+02 -0.10134371848E+02 -0.17643487254E+02  0.26486564116E+02  0.00000000000E+00 0.  1.
</event>
<event>
 7    1  0.2110035E-010  0.4778727E+02  0.7816164E-02  0.1312668E+00
        -11   -1    0    0    0    0  0.00000000000E+00  0.00000000000E+00  0.45593999997E+02  0.45594000000E+02  0.51100000000E-03 0. -1.
         11   -1    0    0    0    0 -0.00000000000E+00 -0.00000000000E+00 -0.45593999997E+02  0.45594000000E+02  0.51100000000E-03 0.  1.
    9900012    2    1    2    0    0 -0.40491740009E+02  0.23103386318E+01  0.15450068823E+02  0.47787270741E+02  0.19999998616E+02 0.  0.
        -12    1    1    2    0    0  0.40491740009E+02 -0.23103386318E+01 -0.15450068823E+02  0.43400729259E+02  0.00000000000E+00 0.  1.
         11    1    3    3    0    0 -0.88455403181E+01 -0.51872044792E+01  0.38392486587E+01  0.10949452240E+02  0.51100000000E-03 0. -1.
        -11    1    3    3    0    0 -0.14878467315E+02  0.37404764630E+01  0.12265507759E+02  0.19641859247E+02  0.51100000000E-03 0.  1.
         12    1    3    3    0    0 -0.16767732376E+02  0.37570666481E+01 -0.65468759403E+00  0.17195959254E+02  0.00000000000E+00 0. -1.
</event>
<event>
 7    1  0.2309420E-010  0.4778727E+02  0.7816164E-02  0.1312668E+00
        -11   -1    0    0    0    0  0.00000000000E+00  0.00000000000E+00  0.45593999997E+02  0.45594000000E+02  0.51100000000E-03 0.  1.
         11   -1    0    0    0    0 -0.00000000000E+00 -0.00000000000E+00 -0.45593999997E+02  0.45594000000E+02  0.51100000000E-03 0. -1.
    9900012    2    1    2    0    0 -0.27188804495E+02 -0.19330666428E+01 -0.33773592888E+02  0.47787269440E+02  0.19999992686E+02 0.  0.
        -12    1    1    2    0    0  0.27188804495E+02  0.19330666428E+01  0.33773592888E+02  0.43400730560E+02  0.00000000000E+00 0.  1.
         11    1    3    3    0    0 -0.15947212637E+02 -0.72274857300E+00 -0.22934573467E+02  0.27943346556E+02  0.51100000000E-03 0. -1.
        -11    1    3    3    0    0 -0.65299556941E+01  0.54213724880E+01 -0.55380538058E+01  0.10134181824E+02  0.51100000000E-03 0.  1.
        -12    1    3    3    0    0 -0.47116361644E+01 -0.66316905579E+01 -0.53009656157E+01  0.97097410604E+01  0.00000000000E+00 0.  1.
</event>
<event>
 7    1  0.2110035E-010  0.4778726E+02  0.7816164E-02  0.1312668E+00
        -11   -1    0    0    0    0  0.00000000000E+00  0.00000000000E+00  0.45593999997E+02  0.45594000000E+02  0.51100000000E-03 0. -1.
         11   -1    0    0    0    0 -0.00000000000E+00 -0.00000000000E+00 -0.45593999997E+02  0.45594000000E+02  0.51100000000E-03 0.  1.
    9900012    2    1    2    0    0  0.31249755949E+02 -0.83691478267E+01  0.28931539600E+02  0.47787264224E+02  0.19999968904E+02 0.  0.
        -12    1    1    2    0    0 -0.31249755949E+02  0.83691478267E+01 -0.28931539600E+02  0.43400735776E+02  0.00000000000E+00 0.  1.
         11    1    3    3    0    0  0.11128717887E+02  0.59544825972E+01  0.13951971290E+02  0.18813870627E+02  0.51100000000E-03 0. -1.
        -11    1    3    3    0    0  0.86677426883E+01 -0.49164613351E+01  0.65052920577E+01  0.11900427740E+02  0.51100000000E-03 0.  1.
         12    1    3    3    0    0  0.11453295374E+02 -0.94071690889E+01  0.84742762524E+01  0.17072965858E+02  0.00000000000E+00 0. -1.
</event>
<event>
 7    1  0.2110035E-010  0.4778727E+02  0.7816164E-02  0.1312668E+00
        -11   -1    0    0    0    0  0.00000000000E+00  0.00000000000E+00  0.45593999997E+02  0.45594000000E+02  0.51100000000E-03 0.  1.
         11   -1    0    0    0    0 -0.00000000000E+00 -0.00000000000E+00 -0.45593999997E+02  0.45594000000E+02  0.51100000000E-03 0. -1.
    9900012    2    1    2    0    0 -0.70297386089E+01 -0.18995596662E+02 -0.38384552350E+02  0.47787265253E+02  0.19999973594E+02 0.  0.
        -12    1    1    2    0    0  0.70297386089E+01  0.18995596662E+02  0.38384552350E+02  0.43400734747E+02  0.00000000000E+00 0.  1.
         11    1    3    3    0    0 -0.83840919864E+00  0.13283408420E+01 -0.65982624868E+01  0.67826607967E+01  0.51100000000E-03 0. -1.
        -11    1    3    3    0    0 -0.57085591443E+00 -0.15803314447E+02 -0.11725441212E+02  0.19686457169E+02  0.51100000000E-03 0.  1.
         12    1    3    3    0    0 -0.56204734959E+01 -0.45206230569E+01 -0.20060848651E+02  0.21318147287E+02  0.00000000000E+00 0. -1.
</event>
<event>
 7    1  0.2110035E-010  0.4778727E+02  0.7816164E-02  0.1312668E+00
        -11   -1    0    0    0    0  0.00000000000E+00  0.00000000000E+00  0.45593999997E+02  0.45594000000E+02  0.51100000000E-03 0.  1.
         11   -1    0    0    0    0 -0.00000000000E+00 -0.00000000000E+00 -0.45593999997E+02  0.45594000000E+02  0.51100000000E-03 0. -1.
    9900012    2    1    2    0    0  0.36220084283E+02 -0.21981746426E+02 -0.94091253904E+01  0.47787270490E+02  0.19999997471E+02 0.  0.
        -12    1    1    2    0    0 -0.36220084283E+02  0.21981746426E+02  0.94091253904E+01  0.43400729510E+02  0.00000000000E+00 0.  1.
         11    1    3    3    0    0  0.15166870779E+02 -0.87511363122E+01 -0.10187813481E+02  0.20258526594E+02  0.51100000000E-03 0. -1.
        -11    1    3    3    0    0  0.21956198218E+02 -0.10062378089E+02  0.38322431928E-01  0.24152175096E+02  0.51100000000E-03 0.  1.
        -12    1    3    3    0    0 -0.90298471313E+00 -0.31682320247E+01  0.74036565879E+00  0.33765688003E+01  0.00000000000E+00 0.  1.
</event>
<event>
 7    1  0.2110035E-010  0.4778725E+02  0.7816164E-02  0.1312668E+00
        -11   -1    0    0    0    0  0.00000000000E+00  0.00000000000E+00  0.45593999997E+02  0.45594000000E+02  0.51100000000E-03 0. -1.
         11   -1    0    0    0    0 -0.00000000000E+00 -0.00000000000E+00 -0.45593999997E+02  0.45594000000E+02  0.51100000000E-03 0.  1.
    9900012    2    1    2    0    0  0.86327839354E+01 -0.37637444045E+02  0.19812198991E+02  0.47787246763E+02  0.19999889290E+02 0.  0.
        -12    1    1    2    0    0 -0.86327839354E+01  0.37637444045E+02 -0.19812198991E+02  0.43400753237E+02  0.00000000000E+00 0.  1.
         11    1    3    3    0    0  0.52341211344E+01 -0.10600083238E+02  0.62230735609E+01  0.13359806642E+02  0.51100000000E-03 0. -1.
        -11    1    3    3    0    0 -0.23697168818E+01 -0.21881169901E+02  0.44523903241E+01  0.22454953444E+02  0.51100000000E-03 0.  1.
         12    1    3    3    0    0  0.57683796828E+01 -0.51561909056E+01  0.91367351059E+01  0.11972486676E+02  0.00000000000E+00 0. -1.
</event>
<event>
 7    1  0.2110035E-010  0.4778727E+02  0.7816164E-02  0.1312668E+00
        -11   -1    0    0    0    0  0.00000000000E+00  0.00000000000E+00  0.45593999997E+02  0.45594000000E+02  0.51100000000E-03 0. -1.
         11   -1    0    0    0    0 -0.00000000000E+00 -0.00000000000E+00 -0.45593999997E+02  0.45594000000E+02  0.51100000000E-03 0.  1.
    9900012    2    1    2    0    0 -0.29731216539E+01  0.19035929214E+02  0.38889812864E+02  0.47787267310E+02  0.19999982972E+02 0.  0.
        -12    1    1    2    0    0  0.29731216539E+01 -0.19035929214E+02 -0.38889812864E+02  0.43400732690E+02  0.00000000000E+00 0.  1.
         11    1    3    3    0    0  0.81321717659E+01  0.76348447662E+01  0.11795465239E+02  0.16234410143E+02  0.51100000000E-03 0. -1.
        -11    1    3    3    0    0 -0.38054908561E+01  0.40853669238E+01  0.69746181128E+01  0.89340518041E+01  0.51100000000E-03 0.  1.
        -12    1    3    3    0    0 -0.72998025637E+01  0.73157175241E+01  0.20119729513E+02  0.22618805363E+02  0.00000000000E+00 0.  1.
</event>
<event>
 7    1  0.2110035E-010  0.4778727E+02  0.7816164E-02  0.1312668E+00
        -11   -1    0    0    0    0  0.00000000000E+00  0.00000000000E+00  0.45593999997E+02  0.45594000000E+02  0.51100000000E-03 0.  1.
         11   -1    0    0    0    0 -0.00000000000E+00 -0.00000000000E+00 -0.45593999997E+02  0.45594000000E+02  0.51100000000E-03 0. -1.
    9900012    2    1    2    0    0 -0.10389528010E+02  0.19343046586E+02 -0.37436977841E+02  0.47787273585E+02  0.20000011584E+02 0.  0.
        -12    1    1    2    0    0  0.10389528010E+02 -0.19343046586E+02  0.37436977841E+02  0.43400726415E+02  0.00000000000E+00 0.  1.
         11    1    3    3    0    0  0.21813537463E+01  0.77532076738E+01 -0.17475935350E+02  0.19242631058E+02  0.51100000000E-03 0. -1.
        -11    1    3    3    0    0 -0.74456531137E+01  0.48663871458E+00 -0.11369574992E+02  0.13599330987E+02  0.51100000000E-03 0.  1.
        -12    1    3    3    0    0 -0.51252286429E+01  0.11103200198E+02 -0.85914674981E+01  0.14945311540E+02  0.00000000000E+00 0.  1.
</event>
<event>
 7    1  0.2110035E-010  0.4778729E+02  0.7816164E-02  0.1312668E+00
        -11   -1    0    0    0    0  0.00000000000E+00  0.00000000000E+00  0.45593999997E+02  0.45594000000E+02  0.51100000000E-03 0. -1.
         11   -1    0    0    0    0 -0.00000000000E+00 -0.00000000000E+00 -0.45593999997E+02  0.45594000000E+02  0.51100000000E-03 0.  1.
    9900012    2    1    2    0    0 -0.31967065115E+02  0.25003752106E+02  0.15379889728E+02  0.47787287109E+02  0.20000073243E+02 0.  0.
        -12    1    1    2    0    0  0.31967065115E+02 -0.25003752106E+02 -0.15379889728E+02  0.43400712891E+02  0.00000000000E+00 0.  1.
         11    1    3    3    0    0 -0.35895745455E+01  0.10585626299E+01  0.55954656185E+01  0.67316295210E+01  0.51100000000E-03 0. -1.
        -11    1    3    3    0    0 -0.20223397807E+02  0.22776475631E+02  0.11647648861E+02  0.32610142369E+02  0.51100000000E-03 0.  1.
         12    1    3    3    0    0 -0.81540927631E+01  0.11687138443E+01 -0.18632247523E+01  0.84455152192E+01  0.00000000000E+00 0. -1.
</event>
<event>
 7    1  0.2110035E-010  0.4778727E+02  0.7816164E-02  0.1312668E+00
        -11   -1    0    0    0    0  0.00000000000E+00  0.00000000000E+00  0.45593999997E+02  0.45594000000E+02  0.51100000000E-03 0. -1.
         11   -1    0    0    0    0 -0.00000000000E+00 -0.00000000000E+00 -0.45593999997E+02  0.45594000000E+02  0.51100000000E-03 0.  1.
    9900012    2    1    2    0    0 -0.24127508186E+02  0.26134486003E+02 -0.24869164343E+02  0.47787270225E+02  0.19999996264E+02 0.  0.
        -12    1    1    2    0    0  0.24127508186E+02 -0.26134486003E+02  0.24869164343E+02  0.43400729775E+02  0.00000000000E+00 0.  1.
         11    1    3    3    0    0 -0.76678657299E+01  0.81866551585E+01 -0.62354532722E+01  0.12833486093E+02  0.51100000000E-03 0. -1.
        -11    1    3    3    0    0  0.16325913555E+01  0.21541829957E+01 -0.84430097826E+01  0.88651155301E+01  0.51100000000E-03 0.  1.
        -12    1    3    3    0    0 -0.18092233811E+02  0.15793647848E+02 -0.10190701289E+02  0.26088668601E+02  0.00000000000E+00 0.  1.
</event>
<event>
 7    1  0.2110035E-010  0.4778726E+02  0.7816164E-02  0.1312668E+00
        -11   -1    0    0    0    0  0.00000000000E+00  0.00000000000E+00  0.45593999997E+02  0.45594000000E+02  0.51100000000E-03 0.  1.
         11   -1    0    0    0    0 -0.00000000000E+00 -0.00000000000E+00 -0.45593999997E+02  0.45594000000E+02  0.51100000000E-03 0. -1.
    9900012    2    1    2    0    0  0.16211647380E+02 -0.38848812247E+02  0.10562961711E+02  0.47787264017E+02  0.19999967957E+02 0.  0.
        -12    1    1    2    0    0 -0.16211647380E+02  0.38848812247E+02 -0.10562961711E+02  0.43400735983E+02  0.00000000000E+00 0.  1.
         11    1    3    3    0    0  0.56837255615E+01 -0.45227583367E+01  0.27503661362E+01  0.77668908435E+01  0.51100000000E-03 0. -1.
        -11    1    3    3    0    0  0.70346945474E+00  0.76914888207E+00 -0.20198343976E+01  0.22729255446E+01  0.51100000000E-03 0.  1.
         12    1    3    3    0    0  0.98244523634E+01 -0.35095202793E+02  0.98324299723E+01  0.37747447628E+02  0.00000000000E+00 0. -1.
</event>
<event>
 7    1  0.2110035E-010  0.4778727E+02  0.7816164E-02  0.1312668E+00
        -11   -1    0    0    0    0  0.00000000000E+00  0.00000000000E+00  0.45593999997E+02  0.45594000000E+02  0.51100000000E-03 0. -1.
         11   -1    0    0    0    0 -0.00000000000E+00 -0.00000000000E+00 -0.45593999997E+02  0.45594000000E+02  0.51100000000E-03 0.  1.
    9900012    2    1    2    0    0  0.24874899674E+02 -0.52847609265E+01  0.35170069709E+02  0.47787272643E+02  0.20000007286E+02 0.  0.
        -12    1    1    2    0    0 -0.24874899674E+02  0.52847609265E+01 -0.35170069709E+02  0.43400727357E+02  0.00000000000E+00 0.  1.
         11    1    3    3    0    0 -0.10472938704E+01 -0.55228509592E+01  0.46007510806E+01  0.72639946266E+01  0.51100000000E-03 0. -1.
        -11    1    3    3    0    0  0.16007585279E+00  0.52690849877E+00  0.19014029247E+01  0.19795429240E+01  0.51100000000E-03 0.  1.
         12    1    3    3    0    0  0.25762117691E+02 -0.28881846613E+00  0.28667915704E+02  0.38543735092E+02  0.00000000000E+00 0. -1.
</event>
<event>
 7    1  0.2110035E-010  0.4778727E+02  0.7816164E-02  0.1312668E+00
        -11   -1    0    0    0    0  0.00000000000E+00  0.00000000000E+00  0.45593999997E+02  0.45594000000E+02  0.51100000000E-03 0.  1.
         11   -1    0    0    0    0 -0.00000000000E+00 -0.00000000000E+00 -0.45593999997E+02  0.45594000000E+02  0.51100000000E-03 0. -1.
    9900012    2    1    2    0    0 -0.22678646341E+02  0.16945330579E+02 -0.32896170332E+02  0.47787271310E+02  0.20000001212E+02 0.  0.
        -12    1    1    2    0    0  0.22678646341E+02 -0.16945330579E+02  0.32896170332E+02  0.43400728690E+02  0.00000000000E+00 0.  1.
         11    1    3    3    0    0 -0.86381618762E+01  0.33383687034E+01 -0.19821492224E+02  0.21878164924E+02  0.51100000000E-03 0. -1.
        -11    1    3    3    0    0 -0.54094507427E+01 -0.79031991350E+00 -0.43781226229E+01  0.70039075426E+01  0.51100000000E-03 0.  1.
        -12    1    3    3    0    0 -0.86310337218E+01  0.14397281789E+02 -0.86965554857E+01  0.18905198844E+02  0.00000000000E+00 0.  1.
</event>
<event>
 7    1  0.2110035E-010  0.4778725E+02  0.7816164E-02  0.1312668E+00
        -11   -1    0    0    0    0  0.00000000000E+00  0.00000000000E+00  0.45593999997E+02  0.45594000000E+02  0.51100000000E-03 0. -1.
         11   -1    0    0    0    0 -0.00000000000E+00 -0.00000000000E+00 -0.45593999997E+02  0.45594000000E+02  0.51100000000E-03 0.  1.
    9900012    2    1    2    0    0 -0.34918087071E+02  0.17793846209E+02  0.18647553780E+02  0.47787250817E+02  0.19999907777E+02 0.  0.
        -12    1    1    2    0    0  0.34918087071E+02 -0.17793846209E+02 -0.18647553780E+02  0.43400749183E+02  0.00000000000E+00 0.  1.
         11    1    3    3    0    0 -0.54998912940E+01  0.39717759102E+01  0.45301212105E+01  0.81575613126E+01  0.51100000000E-03 0. -1.
        -11    1    3    3    0    0 -0.27657100969E+02  0.14850217111E+02  0.69153374183E+01  0.32144456352E+02  0.51100000000E-03 0.  1.
         12    1    3    3    0    0 -0.17610948076E+01 -0.10281468118E+01  0.72020951514E+01  0.74852331531E+01  0.00000000000E+00 0. -1.
</event>
<event>
 7    1  0.2110035E-010  0.4778727E+02  0.7816164E-02  0.1312668E+00
        -11   -1    0    0    0    0  0.00000000000E+00  0.00000000000E+00  0.45593999997E+02  0.45594000000E+02  0.51100000000E-03 0.  1.
         11   -1    0    0    0    0 -0.00000000000E+00 -0.00000000000E+00 -0.45593999997E+02  0.45594000000E+02  0.51100000000E-03 0. -1.
    9900012    2    1    2    0    0 -0.21073917403E+02 -0.14496434126E+02 -0.35062323444E+02  0.47787272790E+02  0.20000007958E+02 0.  0.
        -12    1    1    2    0    0  0.21073917403E+02  0.14496434126E+02  0.35062323444E+02  0.43400727210E+02  0.00000000000E+00 0.  1.
         11    1    3    3    0    0 -0.36453627543E+01 -0.66554741957E+01 -0.14962810259E+02  0.16777058666E+02  0.51100000000E-03 0. -1.
        -11    1    3    3    0    0 -0.17790375886E+02 -0.27482250690E+01 -0.18098342513E+02  0.25526461117E+02  0.51100000000E-03 0.  1.
         12    1    3    3    0    0  0.36182123656E+00 -0.50927348614E+01 -0.20011706712E+01  0.54837530060E+01  0.00000000000E+00 0. -1.
</event>
<event>
 7    1  0.2110035E-010  0.4778728E+02  0.7816164E-02  0.1312668E+00
        -11   -1    0    0    0    0  0.00000000000E+00  0.00000000000E+00  0.45593999997E+02  0.45594000000E+02  0.51100000000E-03 0.  1.
         11   -1    0    0    0    0 -0.00000000000E+00 -0.00000000000E+00 -0.45593999997E+02  0.45594000000E+02  0.51100000000E-03 0. -1.
    9900012    2    1    2    0    0 -0.43327843830E+02  0.16107363478E+01 -0.19303838197E+01  0.47787275303E+02  0.20000019418E+02 0.  0.
        -12    1    1    2    0    0  0.43327843830E+02 -0.16107363478E+01  0.19303838197E+01  0.43400724697E+02  0.00000000000E+00 0.  1.
         11    1    3    3    0    0 -0.33127717174E+02  0.45806941293E+01 -0.28218355401E+01  0.33561751443E+02  0.51100000000E-03 0. -1.
        -11    1    3    3    0    0 -0.81339873263E+01 -0.88810484385E+00  0.46862797752E+01  0.94292999968E+01  0.51100000000E-03 0.  1.
         12    1    3    3    0    0 -0.20661393299E+01 -0.20818529377E+01 -0.37948280547E+01  0.47962238636E+01  0.00000000000E+00 0. -1.
</event>
<event>
 7    1  0.2110035E-010  0.4778727E+02  0.7816164E-02  0.1312668E+00
        -11   -1    0    0    0    0  0.00000000000E+00  0.00000000000E+00  0.45593999997E+02  0.45594000000E+02  0.51100000000E-03 0. -1.
         11   -1    0    0    0    0 -0.00000000000E+00 -0.00000000000E+00 -0.45593999997E+02  0.45594000000E+02  0.51100000000E-03 0.  1.
    9900012    2    1    2    0    0 -0.26013521678E+02  0.26468762328E+02  0.22501659491E+02  0.47787269947E+02  0.19999994998E+02 0.  0.
        -12    1    1    2    0    0  0.26013521678E+02 -0.26468762328E+02 -0.22501659491E+02  0.43400730053E+02  0.00000000000E+00 0.  1.
         11    1    3    3    0    0 -0.11434070596E+01  0.11145901392E+01 -0.22148529667E+01  0.27304330806E+01  0.51100000000E-03 0. -1.
        -11    1    3    3    0    0 -0.84797968616E+01  0.43720251068E+01  0.12599890685E+02  0.15804391917E+02  0.51100000000E-03 0.  1.
         12    1    3    3    0    0 -0.16390317757E+02  0.20982147082E+02  0.12116621773E+02  0.29252444950E+02  0.00000000000E+00 0. -1.
</event>
<event>
 7    1  0.2110035E-010  0.4778728E+02  0.7816164E-02  0.1312668E+00
        -11   -1    0    0    0    0  0.00000000000E+00  0.00000000000E+00  0.45593999997E+02  0.45594000000E+02  0.51100000000E-03 0. -1.
         11   -1    0    0    0    0 -0.00000000000E+00 -0.00000000000E+00 -0.45593999997E+02  0.45594000000E+02  0.51100000000E-03 0.  1.
    9900012    2    1    2    0    0 -0.21485240258E+02 -0.95370398900E+01  0.36483577633E+02  0.47787284387E+02  0.20000060833E+02 0.  0.
        -12    1    1    2    0    0  0.21485240258E+02  0.95370398900E+01 -0.36483577633E+02  0.43400715613E+02  0.00000000000E+00 0.  1.
         11    1    3    3    0    0 -0.64358898756E+01 -0.31564844032E+01  0.15617750932E+01  0.73364306023E+01  0.51100000000E-03 0.  1.
        -11    1    3    3    0    0 -0.36276107561E+01 -0.72718936003E+01  0.20364816135E+02  0.21926370717E+02  0.51100000000E-03 0. -1.
         12    1    3    3    0    0 -0.11421739626E+02  0.89133811350E+00  0.14556986405E+02  0.18524483068E+02  0.00000000000E+00 0. -1.
</event>
<event>
 7    1  0.2110035E-010  0.4778731E+02  0.7816164E-02  0.1312668E+00
        -11   -1    0    0    0    0  0.00000000000E+00  0.00000000000E+00  0.45593999997E+02  0.45594000000E+02  0.51100000000E-03 0. -1.
         11   -1    0    0    0    0 -0.00000000000E+00 -0.00000000000E+00 -0.45593999997E+02  0.45594000000E+02  0.51100000000E-03 0.  1.
    9900012    2    1    2    0    0 -0.10447882992E+02 -0.35568564778E+02  0.22568542550E+02  0.47787306777E+02  0.20000162918E+02 0.  0.
        -12    1    1    2    0    0  0.10447882992E+02  0.35568564778E+02 -0.22568542550E+02  0.43400693223E+02  0.00000000000E+00 0.  1.
         11    1    3    3    0    0 -0.11475324517E+02 -0.26125445822E+02  0.16982327242E+02  0.33205743945E+02  0.51100000000E-03 0. -1.
        -11    1    3    3    0    0  0.22820243961E+01 -0.91853325351E+01  0.76384873300E+01  0.12162419910E+02  0.51100000000E-03 0.  1.
        -12    1    3    3    0    0 -0.12545828720E+01 -0.25778642156E+00 -0.20522720221E+01  0.24191429215E+01  0.00000000000E+00 0.  1.
</event>
<event>
 7    1  0.2110035E-010  0.4778726E+02  0.7816164E-02  0.1312668E+00
        -11   -1    0    0    0    0  0.00000000000E+00  0.00000000000E+00  0.45593999997E+02  0.45594000000E+02  0.51100000000E-03 0.  1.
         11   -1    0    0    0    0 -0.00000000000E+00 -0.00000000000E+00 -0.45593999997E+02  0.45594000000E+02  0.51100000000E-03 0. -1.
    9900012    2    1    2    0    0  0.54364218171E+01 -0.27202275242E+02 -0.33378219047E+02  0.47787263056E+02  0.19999963579E+02 0.  0.
        -12    1    1    2    0    0 -0.54364218171E+01  0.27202275242E+02  0.33378219047E+02  0.43400736944E+02  0.00000000000E+00 0.  1.
         11    1    3    3    0    0  0.66374541532E+01 -0.16605686943E+02 -0.79352256427E+01  0.19564571111E+02  0.51100000000E-03 0.  1.
        -11    1    3    3    0    0 -0.31882130944E+01 -0.48674485690E+01 -0.92103223811E+01  0.10894347017E+02  0.51100000000E-03 0. -1.
        -12    1    3    3    0    0  0.19871807583E+01 -0.57291397296E+01 -0.16232671023E+02  0.17328344928E+02  0.00000000000E+00 0.  1.
</event>
<event>
 7    1  0.2110035E-010  0.4778727E+02  0.7816164E-02  0.1312668E+00
        -11   -1    0    0    0    0  0.00000000000E+00  0.00000000000E+00  0.45593999997E+02  0.45594000000E+02  0.51100000000E-03 0. -1.
         11   -1    0    0    0    0 -0.00000000000E+00 -0.00000000000E+00 -0.45593999997E+02  0.45594000000E+02  0.51100000000E-03 0.  1.
    9900012    2    1    2    0    0  0.29911751404E+01  0.43238647053E+02  0.22573784593E+01  0.47787268610E+02  0.19999988899E+02 0.  0.
        -12    1    1    2    0    0 -0.29911751404E+01 -0.43238647053E+02 -0.22573784593E+01  0.43400731390E+02  0.00000000000E+00 0.  1.
         11    1    3    3    0    0 -0.11930738810E+01  0.64729116574E+01 -0.31576890137E+00  0.65895159815E+01  0.51100000000E-03 0. -1.
        -11    1    3    3    0    0 -0.46973447419E+00  0.28137193663E+02  0.89176201461E+01  0.29520268750E+02  0.51100000000E-03 0.  1.
        -12    1    3    3    0    0  0.46539834956E+01  0.86285417323E+01 -0.63444727855E+01  0.11677483878E+02  0.00000000000E+00 0.  1.
</event>
<event>
 7    1  0.2110035E-010  0.4778727E+02  0.7816164E-02  0.1312668E+00
        -11   -1    0    0    0    0  0.00000000000E+00  0.00000000000E+00  0.45593999997E+02  0.45594000000E+02  0.51100000000E-03 0.  1.
         11   -1    0    0    0    0 -0.00000000000E+00 -0.00000000000E+00 -0.45593999997E+02  0.45594000000E+02  0.51100000000E-03 0. -1.
    9900012    2    1    2    0    0 -0.27472182980E+02  0.58496173191E+01 -0.33086015806E+02  0.47787270716E+02  0.19999998502E+02 0.  0.
        -12    1    1    2    0    0  0.27472182980E+02 -0.58496173191E+01  0.33086015806E+02  0.43400729284E+02  0.00000000000E+00 0.  1.
         11    1    3    3    0    0 -0.13760796749E+02  0.21363222458E+00 -0.21421315706E+02  0.25461302652E+02  0.51100000000E-03 0. -1.
        -11    1    3    3    0    0 -0.72024988931E+00  0.55743370325E+01 -0.57857095616E+01  0.80663764261E+01  0.51100000000E-03 0.  1.
        -12    1    3    3    0    0 -0.12991136341E+02  0.61648061970E-01 -0.58789905391E+01  0.14259591638E+02  0.00000000000E+00 0.  1.
</event>
<event>
 7    1  0.2110035E-010  0.4778728E+02  0.7816164E-02  0.1312668E+00
        -11   -1    0    0    0    0  0.00000000000E+00  0.00000000000E+00  0.45593999997E+02  0.45594000000E+02  0.51100000000E-03 0. -1.
         11   -1    0    0    0    0 -0.00000000000E+00 -0.00000000000E+00 -0.45593999997E+02  0.45594000000E+02  0.51100000000E-03 0.  1.
    9900012    2    1    2    0    0 -0.38666715596E+02  0.56948060293E+01 -0.18869986662E+02  0.47787284484E+02  0.20000061276E+02 0.  0.
        -12    1    1    2    0    0  0.38666715596E+02 -0.56948060293E+01  0.18869986662E+02  0.43400715516E+02  0.00000000000E+00 0.  1.
         11    1    3    3    0    0 -0.71080349101E+01  0.30694576062E+01 -0.38215157037E+01  0.86342175566E+01  0.51100000000E-03 0. -1.
        -11    1    3    3    0    0 -0.71819180174E+01  0.30811205189E+01 -0.12361220177E+02  0.14624397922E+02  0.51100000000E-03 0.  1.
         12    1    3    3    0    0 -0.24376762668E+02 -0.45577209586E+00 -0.26872507811E+01  0.24528669005E+02  0.00000000000E+00 0. -1.
</event>
<event>
 7    1  0.2110035E-010  0.4778727E+02  0.7816164E-02  0.1312668E+00
        -11   -1    0    0    0    0  0.00000000000E+00  0.00000000000E+00  0.45593999997E+02  0.45594000000E+02  0.51100000000E-03 0.  1.
         11   -1    0    0    0    0 -0.00000000000E+00 -0.00000000000E+00 -0.45593999997E+02  0.45594000000E+02  0.51100000000E-03 0. -1.
    9900012    2    1    2    0    0  0.10473668324E+02 -0.40178264563E+02 -0.12634581273E+02  0.47787270566E+02  0.19999997819E+02 0.  0.
        -12    1    1    2    0    0 -0.10473668324E+02  0.40178264563E+02  0.12634581273E+02  0.43400729434E+02  0.00000000000E+00 0.  1.
         11    1    3    3    0    0  0.76422902080E+01 -0.31167485521E+02 -0.17096438352E+02  0.36360761239E+02  0.51100000000E-03 0. -1.
        -11    1    3    3    0    0  0.34158094663E+01 -0.48948891684E+01  0.10762991290E+01  0.60651557570E+01  0.51100000000E-03 0.  1.
         12    1    3    3    0    0 -0.58443135051E+00 -0.41158898743E+01  0.33855579510E+01  0.53613535697E+01  0.00000000000E+00 0. -1.
</event>
<event>
 7    1  0.2110035E-010  0.4778727E+02  0.7816164E-02  0.1312668E+00
        -11   -1    0    0    0    0  0.00000000000E+00  0.00000000000E+00  0.45593999997E+02  0.45594000000E+02  0.51100000000E-03 0.  1.
         11   -1    0    0    0    0 -0.00000000000E+00 -0.00000000000E+00 -0.45593999997E+02  0.45594000000E+02  0.51100000000E-03 0. -1.
    9900012    2    1    2    0    0  0.47265400319E+01 -0.36293601126E+02 -0.23325037471E+02  0.47787273780E+02  0.20000012474E+02 0.  0.
        -12    1    1    2    0    0 -0.47265400319E+01  0.36293601126E+02  0.23325037471E+02  0.43400726220E+02  0.00000000000E+00 0.  1.
         11    1    3    3    0    0 -0.30255204374E+01 -0.23208810868E+02 -0.12397551864E+02  0.26485882434E+02  0.51100000000E-03 0. -1.
        -11    1    3    3    0    0  0.80955876828E+00 -0.10147474172E+02 -0.36245885340E+01  0.10805751236E+02  0.51100000000E-03 0.  1.
        -12    1    3    3    0    0  0.69425017010E+01 -0.29373160856E+01 -0.73028970738E+01  0.10495640110E+02  0.00000000000E+00 0.  1.
</event>
<event>
 7    1  0.2110035E-010  0.4778727E+02  0.7816164E-02  0.1312668E+00
        -11   -1    0    0    0    0  0.00000000000E+00  0.00000000000E+00  0.45593999997E+02  0.45594000000E+02  0.51100000000E-03 0.  1.
         11   -1    0    0    0    0 -0.00000000000E+00 -0.00000000000E+00 -0.45593999997E+02  0.45594000000E+02  0.51100000000E-03 0. -1.
    9900012    2    1    2    0    0 -0.32733940215E+02 -0.15400368146E+02 -0.23977931106E+02  0.47787270039E+02  0.19999995415E+02 0.  0.
        -12    1    1    2    0    0  0.32733940215E+02  0.15400368146E+02  0.23977931106E+02  0.43400729961E+02  0.00000000000E+00 0.  1.
         11    1    3    3    0    0 -0.11347531383E+01 -0.68745216444E+01 -0.79693320724E+01  0.10585696315E+02  0.51100000000E-03 0. -1.
        -11    1    3    3    0    0 -0.22578426562E+01 -0.28743794731E+01 -0.23641983985E+01  0.43530845551E+01  0.51100000000E-03 0.  1.
        -12    1    3    3    0    0 -0.29341344421E+02 -0.56514670286E+01 -0.13644400635E+02  0.32848489169E+02  0.00000000000E+00 0.  1.
</event>
<event>
 7    1  0.2110035E-010  0.4778727E+02  0.7816164E-02  0.1312668E+00
        -11   -1    0    0    0    0  0.00000000000E+00  0.00000000000E+00  0.45593999997E+02  0.45594000000E+02  0.51100000000E-03 0. -1.
         11   -1    0    0    0    0 -0.00000000000E+00 -0.00000000000E+00 -0.45593999997E+02  0.45594000000E+02  0.51100000000E-03 0.  1.
    9900012    2    1    2    0    0 -0.15417974346E+02  0.39624861812E+02  0.87051766216E+01  0.47787266060E+02  0.19999977273E+02 0.  0.
        -12    1    1    2    0    0  0.15417974346E+02 -0.39624861812E+02 -0.87051766216E+01  0.43400733940E+02  0.00000000000E+00 0.  1.
         11    1    3    3    0    0 -0.95251795140E+01  0.15057625753E+02  0.58730716732E+01  0.18760440006E+02  0.51100000000E-03 0. -1.
        -11    1    3    3    0    0 -0.85902697569E+01  0.11759792146E+02  0.56808935644E+01  0.15631954381E+02  0.51100000000E-03 0.  1.
        -12    1    3    3    0    0  0.26974749246E+01  0.12807443913E+02 -0.28487886160E+01  0.13394871672E+02  0.00000000000E+00 0.  1.
</event>
<event>
 7    1  0.2110035E-010  0.4778727E+02  0.7816164E-02  0.1312668E+00
        -11   -1    0    0    0    0  0.00000000000E+00  0.00000000000E+00  0.45593999997E+02  0.45594000000E+02  0.51100000000E-03 0.  1.
         11   -1    0    0    0    0 -0.00000000000E+00 -0.00000000000E+00 -0.45593999997E+02  0.45594000000E+02  0.51100000000E-03 0. -1.
    9900012    2    1    2    0    0  0.20392974559E+02 -0.77782972020E+01 -0.37513303996E+02  0.47787270796E+02  0.19999998867E+02 0.  0.
        -12    1    1    2    0    0 -0.20392974559E+02  0.77782972020E+01  0.37513303996E+02  0.43400729204E+02  0.00000000000E+00 0.  1.
         11    1    3    3    0    0  0.13792066503E+02  0.33916458288E+00 -0.24572846236E+02  0.28180860588E+02  0.51100000000E-03 0. -1.
        -11    1    3    3    0    0  0.65038735065E+01 -0.25397605802E+01 -0.18991425506E+01  0.72358480555E+01  0.51100000000E-03 0.  1.
        -12    1    3    3    0    0  0.97034549542E-01 -0.55777012047E+01 -0.11041315209E+02  0.12370562153E+02  0.00000000000E+00 0.  1.
</event>
<event>
 7    1  0.2110035E-010  0.4778727E+02  0.7816164E-02  0.1312668E+00
        -11   -1    0    0    0    0  0.00000000000E+00  0.00000000000E+00  0.45593999997E+02  0.45594000000E+02  0.51100000000E-03 0.  1.
         11   -1    0    0    0    0 -0.00000000000E+00 -0.00000000000E+00 -0.45593999997E+02  0.45594000000E+02  0.51100000000E-03 0. -1.
    9900012    2    1    2    0    0  0.24980669473E+02  0.17422092256E+02 -0.30920225116E+02  0.47787268818E+02  0.19999989850E+02 0.  0.
        -12    1    1    2    0    0 -0.24980669473E+02 -0.17422092256E+02  0.30920225116E+02  0.43400731182E+02  0.00000000000E+00 0.  1.
         11    1    3    3    0    0  0.22987202397E+02  0.74262803438E+01 -0.17324957932E+02  0.29727349048E+02  0.51100000000E-03 0. -1.
        -11    1    3    3    0    0  0.30700389268E+00  0.17926556967E+01  0.29283037727E+00  0.18421768992E+01  0.51100000000E-03 0.  1.
        -12    1    3    3    0    0  0.16864631825E+01  0.82031562158E+01 -0.13888097561E+02  0.16217742871E+02  0.00000000000E+00 0.  1.
</event>
<event>
 7    1  0.2110035E-010  0.4778727E+02  0.7816164E-02  0.1312668E+00
        -11   -1    0    0    0    0  0.00000000000E+00  0.00000000000E+00  0.45593999997E+02  0.45594000000E+02  0.51100000000E-03 0.  1.
         11   -1    0    0    0    0 -0.00000000000E+00 -0.00000000000E+00 -0.45593999997E+02  0.45594000000E+02  0.51100000000E-03 0. -1.
    9900012    2    1    2    0    0 -0.27097511690E+02  0.19195827670E+02 -0.27944023458E+02  0.47787269744E+02  0.19999994072E+02 0.  0.
        -12    1    1    2    0    0  0.27097511690E+02 -0.19195827670E+02  0.27944023458E+02  0.43400730256E+02  0.00000000000E+00 0.  1.
         11    1    3    3    0    0 -0.62860115439E+01  0.54936981956E+01 -0.18517407612E+01  0.85512341274E+01  0.51100000000E-03 0. -1.
        -11    1    3    3    0    0 -0.34465639837E+01  0.24386251143E+01 -0.15342788944E+02  0.15913103676E+02  0.51100000000E-03 0.  1.
        -12    1    3    3    0    0 -0.17364936163E+02  0.11263504360E+02 -0.10749493752E+02  0.23322931941E+02  0.00000000000E+00 0.  1.
</event>
<event>
 7    1  0.2110035E-010  0.4778727E+02  0.7816164E-02  0.1312668E+00
        -11   -1    0    0    0    0  0.00000000000E+00  0.00000000000E+00  0.45593999997E+02  0.45594000000E+02  0.51100000000E-03 0.  1.
         11   -1    0    0    0    0 -0.00000000000E+00 -0.00000000000E+00 -0.45593999997E+02  0.45594000000E+02  0.51100000000E-03 0. -1.
    9900012    2    1    2    0    0 -0.16457662142E+02  0.22083241595E+01 -0.40098528793E+02  0.47787270166E+02  0.19999995995E+02 0.  0.
        -12    1    1    2    0    0  0.16457662142E+02 -0.22083241595E+01  0.40098528793E+02  0.43400729834E+02  0.00000000000E+00 0.  1.
         11    1    3    3    0    0 -0.36228851407E+01 -0.44160134486E+01 -0.19906089264E+02  0.20709390662E+02  0.51100000000E-03 0.  1.
        -11    1    3    3    0    0  0.54278594505E-01  0.49461823295E+01 -0.43621204294E+01  0.65951315911E+01  0.51100000000E-03 0. -1.
        -12    1    3    3    0    0 -0.12889055596E+02  0.16781552786E+01 -0.15830319099E+02  0.20482747913E+02  0.00000000000E+00 0.  1.
</event>
<event>
 7    1  0.2110035E-010  0.4778727E+02  0.7816164E-02  0.1312668E+00
        -11   -1    0    0    0    0  0.00000000000E+00  0.00000000000E+00  0.45593999997E+02  0.45594000000E+02  0.51100000000E-03 0.  1.
         11   -1    0    0    0    0 -0.00000000000E+00 -0.00000000000E+00 -0.45593999997E+02  0.45594000000E+02  0.51100000000E-03 0. -1.
    9900012    2    1    2    0    0  0.27217075195E+02 -0.16120232741E+02 -0.29715180210E+02  0.47787273961E+02  0.20000013297E+02 0.  0.
        -12    1    1    2    0    0 -0.27217075195E+02  0.16120232741E+02  0.29715180210E+02  0.43400726039E+02  0.00000000000E+00 0.  1.
         11    1    3    3    0    0  0.73179355812E+01 -0.10922895771E+02 -0.94998240209E+01  0.16220619282E+02  0.51100000000E-03 0. -1.
        -11    1    3    3    0    0  0.20579362696E+02 -0.17955861782E+01 -0.18334806058E+02  0.27620633812E+02  0.51100000000E-03 0.  1.
        -12    1    3    3    0    0 -0.68022308224E+00 -0.34017507920E+01 -0.18805501309E+01  0.39460208676E+01  0.00000000000E+00 0.  1.
</event>
<event>
 7    1  0.2110035E-010  0.4778729E+02  0.7816164E-02  0.1312668E+00
        -11   -1    0    0    0    0  0.00000000000E+00  0.00000000000E+00  0.45593999997E+02  0.45594000000E+02  0.51100000000E-03 0.  1.
         11   -1    0    0    0    0 -0.00000000000E+00 -0.00000000000E+00 -0.45593999997E+02  0.45594000000E+02  0.51100000000E-03 0. -1.
    9900012    2    1    2    0    0  0.14078664718E+02 -0.79638070046E+01 -0.40273949385E+02  0.47787285475E+02  0.20000065793E+02 0.  0.
        -12    1    1    2    0    0 -0.14078664718E+02  0.79638070046E+01  0.40273949385E+02  0.43400714525E+02  0.00000000000E+00 0.  1.
         11    1    3    3    0    0  0.11864182059E+02 -0.13632460396E+01 -0.14389121541E+02  0.18699306797E+02  0.51100000000E-03 0. -1.
        -11    1    3    3    0    0 -0.23076607010E+01  0.23013469290E+01 -0.56109851086E+01  0.64888095787E+01  0.51100000000E-03 0.  1.
        -12    1    3    3    0    0  0.45221433596E+01 -0.89019078940E+01 -0.20273842736E+02  0.22599169099E+02  0.00000000000E+00 0.  1.
</event>
<event>
 7    1  0.2110035E-010  0.4778727E+02  0.7816164E-02  0.1312668E+00
        -11   -1    0    0    0    0  0.00000000000E+00  0.00000000000E+00  0.45593999997E+02  0.45594000000E+02  0.51100000000E-03 0. -1.
         11   -1    0    0    0    0 -0.00000000000E+00 -0.00000000000E+00 -0.45593999997E+02  0.45594000000E+02  0.51100000000E-03 0.  1.
    9900012    2    1    2    0    0 -0.29789058900E+02  0.27194751971E+02  0.16021257573E+02  0.47787271214E+02  0.20000000774E+02 0.  0.
        -12    1    1    2    0    0  0.29789058900E+02 -0.27194751971E+02 -0.16021257573E+02  0.43400728786E+02  0.00000000000E+00 0.  1.
         11    1    3    3    0    0 -0.92537958764E+01  0.56407777264E+01  0.11280006040E+02  0.15642558870E+02  0.51100000000E-03 0. -1.
        -11    1    3    3    0    0 -0.10722858206E+02  0.17861515257E+02  0.57505503307E+01  0.21612085618E+02  0.51100000000E-03 0.  1.
        -12    1    3    3    0    0 -0.98124048178E+01  0.36924589874E+01 -0.10092987982E+01  0.10532626726E+02  0.00000000000E+00 0.  1.
</event>
<event>
 7    1  0.2110035E-010  0.4778727E+02  0.7816164E-02  0.1312668E+00
        -11   -1    0    0    0    0  0.00000000000E+00  0.00000000000E+00  0.45593999997E+02  0.45594000000E+02  0.51100000000E-03 0.  1.
         11   -1    0    0    0    0 -0.00000000000E+00 -0.00000000000E+00 -0.45593999997E+02  0.45594000000E+02  0.51100000000E-03 0. -1.
    9900012    2    1    2    0    0  0.14363778872E+02 -0.29782184874E+02 -0.28112756484E+02  0.47787265485E+02  0.19999974651E+02 0.  0.
        -12    1    1    2    0    0 -0.14363778872E+02  0.29782184874E+02  0.28112756484E+02  0.43400734515E+02  0.00000000000E+00 0.  1.
         11    1    3    3    0    0  0.45395064352E+01 -0.51420033587E+01 -0.11347276158E+02  0.13259260676E+02  0.51100000000E-03 0. -1.
        -11    1    3    3    0    0 -0.14098721682E+01 -0.62474549469E+01  0.11437505313E+01  0.65058895151E+01  0.51100000000E-03 0.  1.
         12    1    3    3    0    0  0.11234144605E+02 -0.18392726568E+02 -0.17909230857E+02  0.28022115293E+02  0.00000000000E+00 0. -1.
</event>
<event>
 7    1  0.2110035E-010  0.4778727E+02  0.7816164E-02  0.1312668E+00
        -11   -1    0    0    0    0  0.00000000000E+00  0.00000000000E+00  0.45593999997E+02  0.45594000000E+02  0.51100000000E-03 0.  1.
         11   -1    0    0    0    0 -0.00000000000E+00 -0.00000000000E+00 -0.45593999997E+02  0.45594000000E+02  0.51100000000E-03 0. -1.
    9900012    2    1    2    0    0  0.39101183732E+02  0.12924069694E+02 -0.13699964992E+02  0.47787272040E+02  0.20000004537E+02 0.  0.
        -12    1    1    2    0    0 -0.39101183732E+02 -0.12924069694E+02  0.13699964992E+02  0.43400727960E+02  0.00000000000E+00 0.  1.
         11    1    3    3    0    0  0.79466269993E+01 -0.33007649687E+01 -0.20321311531E+01  0.88415771969E+01  0.51100000000E-03 0. -1.
        -11    1    3    3    0    0  0.49380157197E+01  0.81283834629E+01 -0.12336994810E+01  0.95904448093E+01  0.51100000000E-03 0.  1.
         12    1    3    3    0    0  0.26216541013E+02  0.80964512000E+01 -0.10434134358E+02  0.29355250033E+02  0.00000000000E+00 0. -1.
</event>
<event>
 7    1  0.2110035E-010  0.4778727E+02  0.7816164E-02  0.1312668E+00
        -11   -1    0    0    0    0  0.00000000000E+00  0.00000000000E+00  0.45593999997E+02  0.45594000000E+02  0.51100000000E-03 0.  1.
         11   -1    0    0    0    0 -0.00000000000E+00 -0.00000000000E+00 -0.45593999997E+02  0.45594000000E+02  0.51100000000E-03 0. -1.
    9900012    2    1    2    0    0  0.32215555850E+02 -0.27103010331E+02 -0.10545523524E+02  0.47787271041E+02  0.19999999986E+02 0.  0.
        -12    1    1    2    0    0 -0.32215555850E+02  0.27103010331E+02  0.10545523524E+02  0.43400728959E+02  0.00000000000E+00 0.  1.
         11    1    3    3    0    0  0.16940737203E+02 -0.14504240693E+02 -0.28690965961E+01  0.22485401722E+02  0.51100000000E-03 0. -1.
        -11    1    3    3    0    0  0.16992097872E+02 -0.80541511478E+01 -0.79946921092E+01  0.20433204423E+02  0.51100000000E-03 0.  1.
        -12    1    3    3    0    0 -0.17172792240E+01 -0.45446184903E+01  0.31826518169E+00  0.48686648973E+01  0.00000000000E+00 0.  1.
</event>
<event>
 7    1  0.2110035E-010  0.4778727E+02  0.7816164E-02  0.1312668E+00
        -11   -1    0    0    0    0  0.00000000000E+00  0.00000000000E+00  0.45593999997E+02  0.45594000000E+02  0.51100000000E-03 0. -1.
         11   -1    0    0    0    0 -0.00000000000E+00 -0.00000000000E+00 -0.45593999997E+02  0.45594000000E+02  0.51100000000E-03 0.  1.
    9900012    2    1    2    0    0  0.29313985728E+02 -0.32478816709E+00  0.32003251820E+02  0.47787269895E+02  0.19999994757E+02 0.  0.
        -12    1    1    2    0    0 -0.29313985728E+02  0.32478816709E+00 -0.32003251820E+02  0.43400730105E+02  0.00000000000E+00 0.  1.
         11    1    3    3    0    0  0.13462385778E+02  0.13454848268E+00  0.19487639901E+02  0.23685903895E+02  0.51100000000E-03 0. -1.
        -11    1    3    3    0    0  0.14449320600E+02 -0.34966083913E+01  0.46866633850E+01  0.15587621691E+02  0.51100000000E-03 0.  1.
         12    1    3    3    0    0  0.14022793504E+01  0.30372717415E+01  0.78289485339E+01  0.85137443087E+01  0.00000000000E+00 0. -1.
</event>
<event>
 7    1  0.2110035E-010  0.4778727E+02  0.7816164E-02  0.1312668E+00
        -11   -1    0    0    0    0  0.00000000000E+00  0.00000000000E+00  0.45593999997E+02  0.45594000000E+02  0.51100000000E-03 0.  1.
         11   -1    0    0    0    0 -0.00000000000E+00 -0.00000000000E+00 -0.45593999997E+02  0.45594000000E+02  0.51100000000E-03 0. -1.
    9900012    2    1    2    0    0 -0.24261104646E+02 -0.22079752923E+02 -0.28416665275E+02  0.47787267827E+02  0.19999985331E+02 0.  0.
        -12    1    1    2    0    0  0.24261104646E+02  0.22079752923E+02  0.28416665275E+02  0.43400732173E+02  0.00000000000E+00 0.  1.
         11    1    3    3    0    0 -0.80298004527E+01 -0.15495583463E+02 -0.15528659511E+02  0.23360866179E+02  0.51100000000E-03 0. -1.
        -11    1    3    3    0    0 -0.16257890599E+02 -0.84296889271E+01 -0.13172809029E+02  0.22558846604E+02  0.51100000000E-03 0.  1.
        -12    1    3    3    0    0  0.26586405973E-01  0.18455194673E+01  0.28480326461E+00  0.18675550436E+01  0.00000000000E+00 0.  1.
</event>
<event>
 7    1  0.2110035E-010  0.4778724E+02  0.7816164E-02  0.1312668E+00
        -11   -1    0    0    0    0  0.00000000000E+00  0.00000000000E+00  0.45593999997E+02  0.45594000000E+02  0.51100000000E-03 0.  1.
         11   -1    0    0    0    0 -0.00000000000E+00 -0.00000000000E+00 -0.45593999997E+02  0.45594000000E+02  0.51100000000E-03 0. -1.
    9900012    2    1    2    0    0  0.28981679016E+02  0.35793158776E+01 -0.32107275175E+02  0.47787235722E+02  0.19999838952E+02 0.  0.
        -12    1    1    2    0    0 -0.28981679016E+02 -0.35793158776E+01  0.32107275175E+02  0.43400764278E+02  0.00000000000E+00 0.  1.
         11    1    3    3    0    0  0.12956401255E+02  0.47625834861E+01 -0.17214269853E+02  0.22065394213E+02  0.51100000000E-03 0. -1.
        -11    1    3    3    0    0  0.18458487938E+01 -0.30956787740E+01 -0.99525678208E+01  0.10585083435E+02  0.51100000000E-03 0.  1.
         12    1    3    3    0    0  0.14179428967E+02  0.19124111655E+01 -0.49404375012E+01  0.15136758074E+02  0.00000000000E+00 0. -1.
</event>
<event>
 7    1  0.2110035E-010  0.4778727E+02  0.7816164E-02  0.1312668E+00
        -11   -1    0    0    0    0  0.00000000000E+00  0.00000000000E+00  0.45593999997E+02  0.45594000000E+02  0.51100000000E-03 0.  1.
         11   -1    0    0    0    0 -0.00000000000E+00 -0.00000000000E+00 -0.45593999997E+02  0.45594000000E+02  0.51100000000E-03 0. -1.
    9900012    2    1    2    0    0  0.20525417818E+01  0.10275437252E+02 -0.42116810992E+02  0.47787270667E+02  0.19999998279E+02 0.  0.
        -12    1    1    2    0    0 -0.20525417818E+01 -0.10275437252E+02  0.42116810992E+02  0.43400729333E+02  0.00000000000E+00 0.  1.
         11    1    3    3    0    0 -0.74022252720E+00  0.39511489249E+01 -0.30197830272E+02  0.30464216067E+02  0.51100000000E-03 0. -1.
        -11    1    3    3    0    0 -0.30659888766E+01  0.14809181597E+01 -0.81620898877E+01  0.88438180659E+01  0.51100000000E-03 0.  1.
        -12    1    3    3    0    0  0.58587531856E+01  0.48433701670E+01 -0.37568908329E+01  0.84792365337E+01  0.00000000000E+00 0.  1.
</event>
<event>
 7    1  0.2110035E-010  0.4778727E+02  0.7816164E-02  0.1312668E+00
        -11   -1    0    0    0    0  0.00000000000E+00  0.00000000000E+00  0.45593999997E+02  0.45594000000E+02  0.51100000000E-03 0. -1.
         11   -1    0    0    0    0 -0.00000000000E+00 -0.00000000000E+00 -0.45593999997E+02  0.45594000000E+02  0.51100000000E-03 0.  1.
    9900012    2    1    2    0    0  0.19680483204E+02  0.90747395782E+00  0.38671421610E+02  0.47787265243E+02  0.19999973548E+02 0.  0.
        -12    1    1    2    0    0 -0.19680483204E+02 -0.90747395782E+00 -0.38671421610E+02  0.43400734757E+02  0.00000000000E+00 0.  1.
         11    1    3    3    0    0  0.62276601306E+01 -0.26790352029E+01  0.52001466817E+01  0.85441504021E+01  0.51100000000E-03 0. -1.
        -11    1    3    3    0    0 -0.21893628744E+01  0.39932960257E+01  0.50577848157E+01  0.68059466974E+01  0.51100000000E-03 0.  1.
         12    1    3    3    0    0  0.15642185947E+02 -0.40678686496E+00  0.28413490113E+02  0.32437168143E+02  0.00000000000E+00 0. -1.
</event>
<event>
 7    1  0.2110035E-010  0.4778727E+02  0.7816164E-02  0.1312668E+00
        -11   -1    0    0    0    0  0.00000000000E+00  0.00000000000E+00  0.45593999997E+02  0.45594000000E+02  0.51100000000E-03 0. -1.
         11   -1    0    0    0    0 -0.00000000000E+00 -0.00000000000E+00 -0.45593999997E+02  0.45594000000E+02  0.51100000000E-03 0.  1.
    9900012    2    1    2    0    0 -0.22026228880E+02  0.30929143347E+02 -0.21020385772E+02  0.47787270918E+02  0.19999999424E+02 0.  0.
        -12    1    1    2    0    0  0.22026228880E+02 -0.30929143347E+02  0.21020385772E+02  0.43400729082E+02  0.00000000000E+00 0.  1.
         11    1    3    3    0    0 -0.94412052331E+01  0.14829916812E+02 -0.79707280101E+01  0.19302727636E+02  0.51100000000E-03 0. -1.
        -11    1    3    3    0    0  0.28923453658E+01  0.39841320213E+01 -0.57684147332E-01  0.49236467583E+01  0.51100000000E-03 0.  1.
         12    1    3    3    0    0 -0.15477369012E+02  0.12115094513E+02 -0.12991973615E+02  0.23560896524E+02  0.00000000000E+00 0. -1.
</event>
<event>
 7    1  0.2110035E-010  0.4778727E+02  0.7816164E-02  0.1312668E+00
        -11   -1    0    0    0    0  0.00000000000E+00  0.00000000000E+00  0.45593999997E+02  0.45594000000E+02  0.51100000000E-03 0. -1.
         11   -1    0    0    0    0 -0.00000000000E+00 -0.00000000000E+00 -0.45593999997E+02  0.45594000000E+02  0.51100000000E-03 0.  1.
    9900012    2    1    2    0    0  0.29608496987E+02  0.23960017899E+02 -0.20805720761E+02  0.47787267657E+02  0.19999984554E+02 0.  0.
        -12    1    1    2    0    0 -0.29608496987E+02 -0.23960017899E+02  0.20805720761E+02  0.43400732343E+02  0.00000000000E+00 0.  1.
         11    1    3    3    0    0  0.16535939863E+02  0.12999095109E+02 -0.12710737370E+02  0.24575935904E+02  0.51100000000E-03 0. -1.
        -11    1    3    3    0    0  0.24525114398E+01  0.24495893447E+00 -0.77369979220E+01  0.81200957105E+01  0.51100000000E-03 0.  1.
         12    1    3    3    0    0  0.10620045684E+02  0.10715963856E+02 -0.35798546879E+00  0.15091236043E+02  0.00000000000E+00 0. -1.
</event>
<event>
 7    1  0.2110035E-010  0.4778728E+02  0.7816164E-02  0.1312668E+00
        -11   -1    0    0    0    0  0.00000000000E+00  0.00000000000E+00  0.45593999997E+02  0.45594000000E+02  0.51100000000E-03 0.  1.
         11   -1    0    0    0    0 -0.00000000000E+00 -0.00000000000E+00 -0.45593999997E+02  0.45594000000E+02  0.51100000000E-03 0. -1.
    9900012    2    1    2    0    0  0.14272416608E+02 -0.37420048046E+02 -0.16723066427E+02  0.47787276247E+02  0.20000023721E+02 0.  0.
        -12    1    1    2    0    0 -0.14272416608E+02  0.37420048046E+02  0.16723066427E+02  0.43400723753E+02  0.00000000000E+00 0.  1.
         11    1    3    3    0    0  0.21432017825E+01 -0.22038430934E+02 -0.75044759115E+01  0.23379540433E+02  0.51100000000E-03 0. -1.
        -11    1    3    3    0    0  0.37041368951E+00 -0.21634474645E+01 -0.60485126813E+01  0.64344554664E+01  0.51100000000E-03 0.  1.
         12    1    3    3    0    0  0.11758801136E+02 -0.13218169647E+02 -0.31700778339E+01  0.17973280347E+02  0.00000000000E+00 0. -1.
</event>
<event>
 7    1  0.2110035E-010  0.4778728E+02  0.7816164E-02  0.1312668E+00
        -11   -1    0    0    0    0  0.00000000000E+00  0.00000000000E+00  0.45593999997E+02  0.45594000000E+02  0.51100000000E-03 0. -1.
         11   -1    0    0    0    0 -0.00000000000E+00 -0.00000000000E+00 -0.45593999997E+02  0.45594000000E+02  0.51100000000E-03 0.  1.
    9900012    2    1    2    0    0 -0.30557046881E+02 -0.26618212482E+02  0.15535780088E+02  0.47787276357E+02  0.20000024221E+02 0.  0.
        -12    1    1    2    0    0  0.30557046881E+02  0.26618212482E+02 -0.15535780088E+02  0.43400723643E+02  0.00000000000E+00 0.  1.
         11    1    3    3    0    0 -0.96632527092E+01 -0.32376893354E+01  0.38698244140E+01  0.10901221327E+02  0.51100000000E-03 0. -1.
        -11    1    3    3    0    0 -0.12243481759E+01 -0.85831709246E+01 -0.17623616858E+01  0.88473595241E+01  0.51100000000E-03 0.  1.
         12    1    3    3    0    0 -0.19669445996E+02 -0.14797352222E+02  0.13428317360E+02  0.28038695506E+02  0.00000000000E+00 0. -1.
</event>
<event>
 7    1  0.2110035E-010  0.4778727E+02  0.7816164E-02  0.1312668E+00
        -11   -1    0    0    0    0  0.00000000000E+00  0.00000000000E+00  0.45593999997E+02  0.45594000000E+02  0.51100000000E-03 0.  1.
         11   -1    0    0    0    0 -0.00000000000E+00 -0.00000000000E+00 -0.45593999997E+02  0.45594000000E+02  0.51100000000E-03 0. -1.
    9900012    2    1    2    0    0  0.32052120442E+02  0.21050602065E+02 -0.20326265160E+02  0.47787270427E+02  0.19999997184E+02 0.  0.
        -12    1    1    2    0    0 -0.32052120442E+02 -0.21050602065E+02  0.20326265160E+02  0.43400729573E+02  0.00000000000E+00 0.  1.
         11    1    3    3    0    0  0.12244305755E+02  0.13889257731E+01 -0.88891995876E+01  0.15194407122E+02  0.51100000000E-03 0. -1.
        -11    1    3    3    0    0  0.21344222035E+01  0.76292799614E+01 -0.73874805080E+01  0.10832199195E+02  0.51100000000E-03 0.  1.
         12    1    3    3    0    0  0.17673392483E+02  0.12032396330E+02 -0.40495850648E+01  0.21760664110E+02  0.00000000000E+00 0. -1.
</event>
<event>
 7    1  0.2110035E-010  0.4778728E+02  0.7816164E-02  0.1312668E+00
        -11   -1    0    0    0    0  0.00000000000E+00  0.00000000000E+00  0.45593999997E+02  0.45594000000E+02  0.51100000000E-03 0. -1.
         11   -1    0    0    0    0 -0.00000000000E+00 -0.00000000000E+00 -0.45593999997E+02  0.45594000000E+02  0.51100000000E-03 0.  1.
    9900012    2    1    2    0    0 -0.24847680793E+02  0.30107467956E+01  0.35456325025E+02  0.47787276258E+02  0.20000023770E+02 0.  0.
        -12    1    1    2    0    0  0.24847680793E+02 -0.30107467956E+01 -0.35456325025E+02  0.43400723742E+02  0.00000000000E+00 0.  1.
         11    1    3    3    0    0 -0.10333918599E+02  0.31915465254E+00  0.11128957110E+01  0.10398570596E+02  0.51100000000E-03 0.  1.
        -11    1    3    3    0    0 -0.87144381962E+01  0.13013681616E+01  0.19994356295E+02  0.21849697391E+02  0.51100000000E-03 0. -1.
        -12    1    3    3    0    0 -0.57993239977E+01  0.13902239814E+01  0.14349073019E+02  0.15539008272E+02  0.00000000000E+00 0.  1.
</event>
<event>
 7    1  0.2110035E-010  0.4778727E+02  0.7816164E-02  0.1312668E+00
        -11   -1    0    0    0    0  0.00000000000E+00  0.00000000000E+00  0.45593999997E+02  0.45594000000E+02  0.51100000000E-03 0. -1.
         11   -1    0    0    0    0 -0.00000000000E+00 -0.00000000000E+00 -0.45593999997E+02  0.45594000000E+02  0.51100000000E-03 0.  1.
    9900012    2    1    2    0    0 -0.35932602923E+02  0.32473231631E+01  0.24123147863E+02  0.47787270474E+02  0.19999997399E+02 0.  0.
        -12    1    1    2    0    0  0.35932602923E+02 -0.32473231631E+01 -0.24123147863E+02  0.43400729526E+02  0.00000000000E+00 0.  1.
         11    1    3    3    0    0 -0.23794816941E+02 -0.64092860019E+01  0.98300467617E+01  0.26531153008E+02  0.51100000000E-03 0. -1.
        -11    1    3    3    0    0 -0.61266215981E+01  0.32037840413E+01  0.63602605014E+01  0.93942875353E+01  0.51100000000E-03 0.  1.
         12    1    3    3    0    0 -0.60111643840E+01  0.64528251238E+01  0.79328406001E+01  0.11861829931E+02  0.00000000000E+00 0. -1.
</event>
<event>
 7    1  0.2110035E-010  0.4778727E+02  0.7816164E-02  0.1312668E+00
        -11   -1    0    0    0    0  0.00000000000E+00  0.00000000000E+00  0.45593999997E+02  0.45594000000E+02  0.51100000000E-03 0.  1.
         11   -1    0    0    0    0 -0.00000000000E+00 -0.00000000000E+00 -0.45593999997E+02  0.45594000000E+02  0.51100000000E-03 0. -1.
    9900012    2    1    2    0    0 -0.36853167494E+02  0.15294540294E+00 -0.22922565262E+02  0.47787270227E+02  0.19999996271E+02 0.  0.
        -12    1    1    2    0    0  0.36853167494E+02 -0.15294540294E+00  0.22922565262E+02  0.43400729773E+02  0.00000000000E+00 0.  1.
         11    1    3    3    0    0 -0.44744311542E+01 -0.91190243037E+00 -0.78652462994E+01  0.90947347299E+01  0.51100000000E-03 0. -1.
        -11    1    3    3    0    0 -0.11040552426E+02  0.12475805817E+01  0.21047952199E+01  0.11308422453E+02  0.51100000000E-03 0.  1.
         12    1    3    3    0    0 -0.21338183914E+02 -0.18273274843E+00 -0.17162114182E+02  0.27384113044E+02  0.00000000000E+00 0. -1.
</event>
<event>
 7    1  0.2110035E-010  0.4778724E+02  0.7816164E-02  0.1312668E+00
        -11   -1    0    0    0    0  0.00000000000E+00  0.00000000000E+00  0.45593999997E+02  0.45594000000E+02  0.51100000000E-03 0. -1.
         11   -1    0    0    0    0 -0.00000000000E+00 -0.00000000000E+00 -0.45593999997E+02  0.45594000000E+02  0.51100000000E-03 0.  1.
    9900012    2    1    2    0    0  0.18108902002E+02 -0.37652763549E+02 -0.11745779724E+02  0.47787236459E+02  0.19999842311E+02 0.  0.
        -12    1    1    2    0    0 -0.18108902002E+02  0.37652763549E+02  0.11745779724E+02  0.43400763541E+02  0.00000000000E+00 0.  1.
         11    1    3    3    0    0  0.13636196254E+02 -0.22392245089E+02 -0.67518814429E+01  0.27072982688E+02  0.51100000000E-03 0. -1.
        -11    1    3    3    0    0  0.37377256487E+01 -0.25209818131E+01  0.32184249688E+01  0.55393322583E+01  0.51100000000E-03 0.  1.
        -12    1    3    3    0    0  0.73498009941E+00 -0.12739536648E+02 -0.82123232496E+01  0.15174921512E+02  0.00000000000E+00 0.  1.
</event>
<event>
 7    1  0.2430595E-010  0.4778727E+02  0.7816164E-02  0.1312668E+00
        -11   -1    0    0    0    0  0.00000000000E+00  0.00000000000E+00  0.45593999997E+02  0.45594000000E+02  0.51100000000E-03 0.  1.
         11   -1    0    0    0    0 -0.00000000000E+00 -0.00000000000E+00 -0.45593999997E+02  0.45594000000E+02  0.51100000000E-03 0. -1.
    9900012    2    1    2    0    0  0.19002251178E+02  0.23243767840E+02 -0.31341108459E+02  0.47787269906E+02  0.19999994809E+02 0.  0.
        -12    1    1    2    0    0 -0.19002251178E+02 -0.23243767840E+02  0.31341108459E+02  0.43400730094E+02  0.00000000000E+00 0.  1.
         11    1    3    3    0    0  0.16178839986E+02  0.99471885005E+01 -0.18974658162E+02  0.26846584047E+02  0.51100000000E-03 0. -1.
        -11    1    3    3    0    0 -0.87858144163E+00 -0.12288541211E+01 -0.38410934242E-02  0.15106299400E+01  0.51100000000E-03 0.  1.
        -12    1    3    3    0    0  0.37019926337E+01  0.14525433461E+02 -0.12362609203E+02  0.19430055919E+02  0.00000000000E+00 0.  1.
</event>
<event>
 7    1  0.2110035E-010  0.4778727E+02  0.7816164E-02  0.1312668E+00
        -11   -1    0    0    0    0  0.00000000000E+00  0.00000000000E+00  0.45593999997E+02  0.45594000000E+02  0.51100000000E-03 0. -1.
         11   -1    0    0    0    0 -0.00000000000E+00 -0.00000000000E+00 -0.45593999997E+02  0.45594000000E+02  0.51100000000E-03 0.  1.
    9900012    2    1    2    0    0  0.29800257964E+02 -0.27000691121E+02 -0.16325779456E+02  0.47787265323E+02  0.19999973911E+02 0.  0.
        -12    1    1    2    0    0 -0.29800257964E+02  0.27000691121E+02  0.16325779456E+02  0.43400734677E+02  0.00000000000E+00 0.  1.
         11    1    3    3    0    0  0.20002803034E+02 -0.17706896308E+02 -0.42707220246E+01  0.27053380065E+02  0.51100000000E-03 0. -1.
        -11    1    3    3    0    0  0.11117447658E+02 -0.79824968684E+01 -0.70526908132E+01  0.15396699213E+02  0.51100000000E-03 0.  1.
        -12    1    3    3    0    0 -0.13199927273E+01 -0.13112979436E+01 -0.50023666177E+01  0.53371860446E+01  0.00000000000E+00 0.  1.
</event>
<event>
 7    1  0.2110035E-010  0.4778727E+02  0.7816164E-02  0.1312668E+00
        -11   -1    0    0    0    0  0.00000000000E+00  0.00000000000E+00  0.45593999997E+02  0.45594000000E+02  0.51100000000E-03 0.  1.
         11   -1    0    0    0    0 -0.00000000000E+00 -0.00000000000E+00 -0.45593999997E+02  0.45594000000E+02  0.51100000000E-03 0. -1.
    9900012    2    1    2    0    0  0.34491061600E+02 -0.60913821934E+01 -0.25629773905E+02  0.47787267544E+02  0.19999984039E+02 0.  0.
        -12    1    1    2    0    0 -0.34491061600E+02  0.60913821934E+01  0.25629773905E+02  0.43400732456E+02  0.00000000000E+00 0.  1.
         11    1    3    3    0    0  0.16862642385E+02 -0.34381096404E+01 -0.21309541178E+02  0.27390981209E+02  0.51100000000E-03 0. -1.
        -11    1    3    3    0    0  0.14913876267E+02 -0.48199342203E+01 -0.56736399042E+01  0.16668703046E+02  0.51100000000E-03 0.  1.
        -12    1    3    3    0    0  0.27145429473E+01  0.21666616673E+01  0.13534071765E+01  0.37275832893E+01  0.00000000000E+00 0.  1.
</event>
<event>
 7    1  0.2110035E-010  0.4778727E+02  0.7816164E-02  0.1312668E+00
        -11   -1    0    0    0    0  0.00000000000E+00  0.00000000000E+00  0.45593999997E+02  0.45594000000E+02  0.51100000000E-03 0. -1.
         11   -1    0    0    0    0 -0.00000000000E+00 -0.00000000000E+00 -0.45593999997E+02  0.45594000000E+02  0.51100000000E-03 0.  1.
    9900012    2    1    2    0    0  0.27995131155E+02  0.32987863873E+02  0.34200523218E+01  0.47787270868E+02  0.19999999196E+02 0.  0.
        -12    1    1    2    0    0 -0.27995131155E+02 -0.32987863873E+02 -0.34200523218E+01  0.43400729132E+02  0.00000000000E+00 0.  1.
         11    1    3    3    0    0  0.12221800127E+02  0.13324113724E+02  0.79522196793E+00  0.18097977321E+02  0.51100000000E-03 0. -1.
        -11    1    3    3    0    0  0.14569574562E+01 -0.30058118622E+00  0.48009892272E+01  0.50261886056E+01  0.51100000000E-03 0.  1.
        -12    1    3    3    0    0  0.14316373572E+02  0.19964331335E+02 -0.21761588733E+01  0.24663104941E+02  0.00000000000E+00 0.  1.
</event>
<event>
 7    1  0.2110035E-010  0.4778727E+02  0.7816164E-02  0.1312668E+00
        -11   -1    0    0    0    0  0.00000000000E+00  0.00000000000E+00  0.45593999997E+02  0.45594000000E+02  0.51100000000E-03 0.  1.
         11   -1    0    0    0    0 -0.00000000000E+00 -0.00000000000E+00 -0.45593999997E+02  0.45594000000E+02  0.51100000000E-03 0. -1.
    9900012    2    1    2    0    0  0.16770637977E+02 -0.50180626355E+01 -0.39713827368E+02  0.47787270340E+02  0.19999996787E+02 0.  0.
        -12    1    1    2    0    0 -0.16770637977E+02  0.50180626355E+01  0.39713827368E+02  0.43400729660E+02  0.00000000000E+00 0.  1.
         11    1    3    3    0    0  0.72731499003E+01  0.57797361091E+00 -0.23245521500E+02  0.24363641621E+02  0.51100000000E-03 0. -1.
        -11    1    3    3    0    0  0.93030683778E+01 -0.91129589691E+01 -0.14013067254E+02  0.19130058979E+02  0.51100000000E-03 0.  1.
         12    1    3    3    0    0  0.19441969922E+00  0.35169227227E+01 -0.24552386145E+01  0.42935697399E+01  0.00000000000E+00 0. -1.
</event>
<event>
 7    1  0.2110035E-010  0.4778727E+02  0.7816164E-02  0.1312668E+00
        -11   -1    0    0    0    0  0.00000000000E+00  0.00000000000E+00  0.45593999997E+02  0.45594000000E+02  0.51100000000E-03 0. -1.
         11   -1    0    0    0    0 -0.00000000000E+00 -0.00000000000E+00 -0.45593999997E+02  0.45594000000E+02  0.51100000000E-03 0.  1.
    9900012    2    1    2    0    0  0.39445123100E+02  0.54364432684E+01  0.17267049635E+02  0.47787266655E+02  0.19999979989E+02 0.  0.
        -12    1    1    2    0    0 -0.39445123100E+02 -0.54364432684E+01 -0.17267049635E+02  0.43400733345E+02  0.00000000000E+00 0.  1.
         11    1    3    3    0    0  0.30122497085E+00 -0.10787894703E+01 -0.15377102679E+01  0.19023870094E+01  0.51100000000E-03 0. -1.
        -11    1    3    3    0    0  0.49496986061E+01  0.19727417859E+01 -0.18959170684E+01  0.56555926512E+01  0.51100000000E-03 0.  1.
         12    1    3    3    0    0  0.34194199523E+02  0.45424909528E+01  0.20700676971E+02  0.40229286995E+02  0.00000000000E+00 0. -1.
</event>
<event>
 7    1  0.2110035E-010  0.4778727E+02  0.7816164E-02  0.1312668E+00
        -11   -1    0    0    0    0  0.00000000000E+00  0.00000000000E+00  0.45593999997E+02  0.45594000000E+02  0.51100000000E-03 0.  1.
         11   -1    0    0    0    0 -0.00000000000E+00 -0.00000000000E+00 -0.45593999997E+02  0.45594000000E+02  0.51100000000E-03 0. -1.
    9900012    2    1    2    0    0  0.27191418528E+02  0.27929928102E+02 -0.19083216080E+02  0.47787271189E+02  0.20000000659E+02 0.  0.
        -12    1    1    2    0    0 -0.27191418528E+02 -0.27929928102E+02  0.19083216080E+02  0.43400728811E+02  0.00000000000E+00 0.  1.
         11    1    3    3    0    0  0.76733591643E+00  0.64972508883E+01 -0.43742834109E+01  0.78700336171E+01  0.51100000000E-03 0. -1.
        -11    1    3    3    0    0  0.24406245227E+02  0.15830732618E+02 -0.16815667174E+02  0.33601243490E+02  0.51100000000E-03 0.  1.
        -12    1    3    3    0    0  0.20178373848E+01  0.56019445955E+01  0.21067345049E+01  0.63159940815E+01  0.00000000000E+00 0.  1.
</event>
<event>
 7    1  0.2110035E-010  0.4778727E+02  0.7816164E-02  0.1312668E+00
        -11   -1    0    0    0    0  0.00000000000E+00  0.00000000000E+00  0.45593999997E+02  0.45594000000E+02  0.51100000000E-03 0. -1.
         11   -1    0    0    0    0 -0.00000000000E+00 -0.00000000000E+00 -0.45593999997E+02  0.45594000000E+02  0.51100000000E-03 0.  1.
    9900012    2    1    2    0    0  0.92718629922E+01 -0.45580534491E+01  0.42153056442E+02  0.47787268877E+02  0.19999990117E+02 0.  0.
        -12    1    1    2    0    0 -0.92718629922E+01  0.45580534491E+01 -0.42153056442E+02  0.43400731123E+02  0.00000000000E+00 0.  1.
         11    1    3    3    0    0  0.19904926989E+01 -0.39080352674E+00 -0.11217578109E+01  0.23180011709E+01  0.51100000000E-03 0. -1.
        -11    1    3    3    0    0  0.87933397644E+01 -0.46574611778E+01  0.22123041425E+02  0.24257859159E+02  0.51100000000E-03 0.  1.
         12    1    3    3    0    0 -0.15119694711E+01  0.49021125543E+00  0.21151772828E+02  0.21211408546E+02  0.00000000000E+00 0. -1.
</event>
<event>
 7    1  0.2110035E-010  0.4778727E+02  0.7816164E-02  0.1312668E+00
        -11   -1    0    0    0    0  0.00000000000E+00  0.00000000000E+00  0.45593999997E+02  0.45594000000E+02  0.51100000000E-03 0.  1.
         11   -1    0    0    0    0 -0.00000000000E+00 -0.00000000000E+00 -0.45593999997E+02  0.45594000000E+02  0.51100000000E-03 0. -1.
    9900012    2    1    2    0    0  0.49945550574E+01  0.40659831245E+02 -0.14333734024E+02  0.47787269728E+02  0.19999993996E+02 0.  0.
        -12    1    1    2    0    0 -0.49945550574E+01 -0.40659831245E+02  0.14333734024E+02  0.43400730272E+02  0.00000000000E+00 0.  1.
         11    1    3    3    0    0  0.36236174043E+01  0.17493505551E+02 -0.15885714401E+02  0.23906259889E+02  0.51100000000E-03 0. -1.
        -11    1    3    3    0    0 -0.17176954637E+01  0.79553963182E+01  0.18928053419E+01  0.83559272741E+01  0.51100000000E-03 0.  1.
        -12    1    3    3    0    0  0.30886331168E+01  0.15210929375E+02 -0.34082496518E+00  0.15525082565E+02  0.00000000000E+00 0.  1.
</event>
<event>
 7    1  0.2110035E-010  0.4778727E+02  0.7816164E-02  0.1312668E+00
        -11   -1    0    0    0    0  0.00000000000E+00  0.00000000000E+00  0.45593999997E+02  0.45594000000E+02  0.51100000000E-03 0. -1.
         11   -1    0    0    0    0 -0.00000000000E+00 -0.00000000000E+00 -0.45593999997E+02  0.45594000000E+02  0.51100000000E-03 0.  1.
    9900012    2    1    2    0    0 -0.98294857420E+01  0.40078193883E+02  0.13444061219E+02  0.47787271931E+02  0.20000004040E+02 0.  0.
        -12    1    1    2    0    0  0.98294857420E+01 -0.40078193883E+02 -0.13444061219E+02  0.43400728069E+02  0.00000000000E+00 0.  1.
         11    1    3    3    0    0 -0.30255888245E+01  0.25190572141E+02  0.10851638173E+02  0.27594875681E+02  0.51100000000E-03 0. -1.
        -11    1    3    3    0    0 -0.28138988618E+01  0.90432789739E+00  0.46462360685E+01  0.55066637463E+01  0.51100000000E-03 0.  1.
         12    1    3    3    0    0 -0.39899980557E+01  0.13983293845E+02 -0.20538130225E+01  0.14685732504E+02  0.00000000000E+00 0. -1.
</event>
<event>
 7    1  0.2110035E-010  0.4778727E+02  0.7816164E-02  0.1312668E+00
        -11   -1    0    0    0    0  0.00000000000E+00  0.00000000000E+00  0.45593999997E+02  0.45594000000E+02  0.51100000000E-03 0.  1.
         11   -1    0    0    0    0 -0.00000000000E+00 -0.00000000000E+00 -0.45593999997E+02  0.45594000000E+02  0.51100000000E-03 0. -1.
    9900012    2    1    2    0    0 -0.10039817686E+02 -0.39640077245E+02 -0.14542685950E+02  0.47787269848E+02  0.19999994543E+02 0.  0.
        -12    1    1    2    0    0  0.10039817686E+02  0.39640077245E+02  0.14542685950E+02  0.43400730152E+02  0.00000000000E+00 0.  1.
         11    1    3    3    0    0 -0.13675566006E+01 -0.44246901009E+01  0.13289821076E+01  0.48181207175E+01  0.51100000000E-03 0. -1.
        -11    1    3    3    0    0  0.14057794841E+01 -0.12617112476E+01  0.24495330875E+01  0.30932739675E+01  0.51100000000E-03 0.  1.
         12    1    3    3    0    0 -0.10078040569E+02 -0.33953675896E+02 -0.18321201145E+02  0.39875875163E+02  0.00000000000E+00 0. -1.
</event>
<event>
 7    1  0.2110035E-010  0.4778727E+02  0.7816164E-02  0.1312668E+00
        -11   -1    0    0    0    0  0.00000000000E+00  0.00000000000E+00  0.45593999997E+02  0.45594000000E+02  0.51100000000E-03 0.  1.
         11   -1    0    0    0    0 -0.00000000000E+00 -0.00000000000E+00 -0.45593999997E+02  0.45594000000E+02  0.51100000000E-03 0. -1.
    9900012    2    1    2    0    0 -0.35645156056E+02  0.20164900706E+02 -0.14367423975E+02  0.47787271407E+02  0.20000001653E+02 0.  0.
        -12    1    1    2    0    0  0.35645156056E+02 -0.20164900706E+02  0.14367423975E+02  0.43400728593E+02  0.00000000000E+00 0.  1.
         11    1    3    3    0    0 -0.21041685250E+02  0.16355523987E+02 -0.10737602199E+02  0.28732416959E+02  0.51100000000E-03 0. -1.
        -11    1    3    3    0    0  0.20530750195E+00  0.31406355273E+01  0.13390903896E+01  0.34203663573E+01  0.51100000000E-03 0.  1.
        -12    1    3    3    0    0 -0.14808778307E+02  0.66874119123E+00 -0.49689121655E+01  0.15634488090E+02  0.00000000000E+00 0.  1.
</event>
<event>
 7    1  0.2110035E-010  0.4778728E+02  0.7816164E-02  0.1312668E+00
        -11   -1    0    0    0    0  0.00000000000E+00  0.00000000000E+00  0.45593999997E+02  0.45594000000E+02  0.51100000000E-03 0.  1.
         11   -1    0    0    0    0 -0.00000000000E+00 -0.00000000000E+00 -0.45593999997E+02  0.45594000000E+02  0.51100000000E-03 0. -1.
    9900012    2    1    2    0    0 -0.13483549566E+00  0.25325195298E+02 -0.35245410562E+02  0.47787278080E+02  0.20000032079E+02 0.  0.
        -12    1    1    2    0    0  0.13483549566E+00 -0.25325195298E+02  0.35245410562E+02  0.43400721920E+02  0.00000000000E+00 0.  1.
         11    1    3    3    0    0 -0.74238107411E+00  0.10334770482E+02 -0.85497163661E+01  0.13433400939E+02  0.51100000000E-03 0. -1.
        -11    1    3    3    0    0  0.22909915309E+01  0.41941359310E+00 -0.16079231092E+02  0.16247037352E+02  0.51100000000E-03 0.  1.
         12    1    3    3    0    0 -0.16834459525E+01  0.14571011222E+02 -0.10616463104E+02  0.18106839789E+02  0.00000000000E+00 0. -1.
</event>
<event>
 7    1  0.2110035E-010  0.4778727E+02  0.7816164E-02  0.1312668E+00
        -11   -1    0    0    0    0  0.00000000000E+00  0.00000000000E+00  0.45593999997E+02  0.45594000000E+02  0.51100000000E-03 0.  1.
         11   -1    0    0    0    0 -0.00000000000E+00 -0.00000000000E+00 -0.45593999997E+02  0.45594000000E+02  0.51100000000E-03 0. -1.
    9900012    2    1    2    0    0  0.29453182033E+02  0.20028662975E+02 -0.24798913266E+02  0.47787269918E+02  0.19999994866E+02 0.  0.
        -12    1    1    2    0    0 -0.29453182033E+02 -0.20028662975E+02  0.24798913266E+02  0.43400730082E+02  0.00000000000E+00 0.  1.
         11    1    3    3    0    0  0.17529200142E+02  0.10381383979E+02 -0.17679030550E+02  0.26973952480E+02  0.51100000000E-03 0. -1.
        -11    1    3    3    0    0 -0.51534602719E+00  0.62039055970E+01 -0.43985965586E+01  0.76224456791E+01  0.51100000000E-03 0.  1.
         12    1    3    3    0    0  0.12439327918E+02  0.34433733986E+01 -0.27212861576E+01  0.13190871759E+02  0.00000000000E+00 0. -1.
</event>
<event>
 7    1  0.2110035E-010  0.4778725E+02  0.7816164E-02  0.1312668E+00
        -11   -1    0    0    0    0  0.00000000000E+00  0.00000000000E+00  0.45593999997E+02  0.45594000000E+02  0.51100000000E-03 0.  1.
         11   -1    0    0    0    0 -0.00000000000E+00 -0.00000000000E+00 -0.45593999997E+02  0.45594000000E+02  0.51100000000E-03 0. -1.
    9900012    2    1    2    0    0  0.17751576288E+02  0.42231088075E+01 -0.39378569361E+02  0.47787253075E+02  0.19999918071E+02 0.  0.
        -12    1    1    2    0    0 -0.17751576288E+02 -0.42231088075E+01  0.39378569361E+02  0.43400746925E+02  0.00000000000E+00 0.  1.
         11    1    3    3    0    0  0.25229605580E+01  0.21041888737E+01 -0.31996385049E+01  0.45859162243E+01  0.51100000000E-03 0. -1.
        -11    1    3    3    0    0  0.73152951543E+01  0.79091736642E+01 -0.29315435575E+02  0.31232408400E+02  0.51100000000E-03 0.  1.
         12    1    3    3    0    0  0.79133205752E+01 -0.57902537304E+01 -0.68634952814E+01  0.11968928451E+02  0.00000000000E+00 0. -1.
</event>
<event>
 7    1  0.2110035E-010  0.4778727E+02  0.7816164E-02  0.1312668E+00
        -11   -1    0    0    0    0  0.00000000000E+00  0.00000000000E+00  0.45593999997E+02  0.45594000000E+02  0.51100000000E-03 0.  1.
         11   -1    0    0    0    0 -0.00000000000E+00 -0.00000000000E+00 -0.45593999997E+02  0.45594000000E+02  0.51100000000E-03 0. -1.
    9900012    2    1    2    0    0 -0.33726898092E+02 -0.23545067280E+02 -0.13847355895E+02  0.47787272893E+02  0.20000008430E+02 0.  0.
        -12    1    1    2    0    0  0.33726898092E+02  0.23545067280E+02  0.13847355895E+02  0.43400727107E+02  0.00000000000E+00 0.  1.
         11    1    3    3    0    0 -0.10060992438E+01  0.17664288792E+01 -0.22059263863E+01  0.29997696838E+01  0.51100000000E-03 0. -1.
        -11    1    3    3    0    0 -0.14328806656E+02 -0.18956450783E+02 -0.71794967731E+01  0.24823515074E+02  0.51100000000E-03 0.  1.
         12    1    3    3    0    0 -0.18391992192E+02 -0.63550453761E+01 -0.44619327360E+01  0.19963988135E+02  0.00000000000E+00 0. -1.
</event>
<event>
 7    1  0.2110035E-010  0.4778727E+02  0.7816164E-02  0.1312668E+00
        -11   -1    0    0    0    0  0.00000000000E+00  0.00000000000E+00  0.45593999997E+02  0.45594000000E+02  0.51100000000E-03 0.  1.
         11   -1    0    0    0    0 -0.00000000000E+00 -0.00000000000E+00 -0.45593999997E+02  0.45594000000E+02  0.51100000000E-03 0. -1.
    9900012    2    1    2    0    0  0.88559453343E+01  0.12754647283E+01 -0.42468443740E+02  0.47787270839E+02  0.19999999062E+02 0.  0.
        -12    1    1    2    0    0 -0.88559453343E+01 -0.12754647283E+01  0.42468443740E+02  0.43400729161E+02  0.00000000000E+00 0.  1.
         11    1    3    3    0    0  0.15724825562E+01 -0.21110186799E+01 -0.14579819403E+02  0.14815540332E+02  0.51100000000E-03 0. -1.
        -11    1    3    3    0    0  0.43192799588E+00  0.73205083561E+01 -0.53187907396E+01  0.90590253106E+01  0.51100000000E-03 0.  1.
        -12    1    3    3    0    0  0.68515347822E+01 -0.39340249478E+01 -0.22569833597E+02  0.23912705196E+02  0.00000000000E+00 0.  1.
</event>
<event>
 7    1  0.2110035E-010  0.4778727E+02  0.7816164E-02  0.1312668E+00
        -11   -1    0    0    0    0  0.00000000000E+00  0.00000000000E+00  0.45593999997E+02  0.45594000000E+02  0.51100000000E-03 0. -1.
         11   -1    0    0    0    0 -0.00000000000E+00 -0.00000000000E+00 -0.45593999997E+02  0.45594000000E+02  0.51100000000E-03 0.  1.
    9900012    2    1    2    0    0 -0.34448549895E+02 -0.22462855369E+02  0.13868705116E+02  0.47787269099E+02  0.19999991128E+02 0.  0.
        -12    1    1    2    0    0  0.34448549895E+02  0.22462855369E+02 -0.13868705116E+02  0.43400730901E+02  0.00000000000E+00 0.  1.
         11    1    3    3    0    0 -0.24633568864E+02 -0.49605061496E+01  0.60535812249E+01  0.25846956922E+02  0.51100000000E-03 0.  1.
        -11    1    3    3    0    0 -0.19283458650E+01 -0.51505446765E+01  0.39894696712E+01  0.67942988423E+01  0.51100000000E-03 0. -1.
        -12    1    3    3    0    0 -0.78866351659E+01 -0.12351804543E+02  0.38256542195E+01  0.15146013334E+02  0.00000000000E+00 0.  1.
</event>
<event>
 7    1  0.2110035E-010  0.4778727E+02  0.7816164E-02  0.1312668E+00
        -11   -1    0    0    0    0  0.00000000000E+00  0.00000000000E+00  0.45593999997E+02  0.45594000000E+02  0.51100000000E-03 0.  1.
         11   -1    0    0    0    0 -0.00000000000E+00 -0.00000000000E+00 -0.45593999997E+02  0.45594000000E+02  0.51100000000E-03 0. -1.
    9900012    2    1    2    0    0  0.33354244016E+02 -0.14487678176E+02 -0.23690187145E+02  0.47787269824E+02  0.19999994437E+02 0.  0.
        -12    1    1    2    0    0 -0.33354244016E+02  0.14487678176E+02  0.23690187145E+02  0.43400730176E+02  0.00000000000E+00 0.  1.
         11    1    3    3    0    0  0.50779033805E+01 -0.85958913781E+01 -0.62228939413E+01  0.11764304510E+02  0.51100000000E-03 0. -1.
        -11    1    3    3    0    0  0.12271326305E+02  0.31214549890E+01 -0.10237328341E+02  0.16282868984E+02  0.51100000000E-03 0.  1.
         12    1    3    3    0    0  0.16005014330E+02 -0.90132417872E+01 -0.72299648625E+01  0.19740096331E+02  0.00000000000E+00 0. -1.
</event>
<event>
 7    1  0.2110035E-010  0.4778726E+02  0.7816164E-02  0.1312668E+00
        -11   -1    0    0    0    0  0.00000000000E+00  0.00000000000E+00  0.45593999997E+02  0.45594000000E+02  0.51100000000E-03 0.  1.
         11   -1    0    0    0    0 -0.00000000000E+00 -0.00000000000E+00 -0.45593999997E+02  0.45594000000E+02  0.51100000000E-03 0. -1.
    9900012    2    1    2    0    0 -0.32416647026E+02  0.25836276600E+02 -0.12855808038E+02  0.47787262757E+02  0.19999962214E+02 0.  0.
        -12    1    1    2    0    0  0.32416647026E+02 -0.25836276600E+02  0.12855808038E+02  0.43400737243E+02  0.00000000000E+00 0.  1.
         11    1    3    3    0    0 -0.26111010630E+02  0.23737808194E+02 -0.71795252617E+01  0.36011303742E+02  0.51100000000E-03 0. -1.
        -11    1    3    3    0    0 -0.15181530020E+01  0.26639658480E+01  0.12716194149E+01  0.33194154266E+01  0.51100000000E-03 0.  1.
        -12    1    3    3    0    0 -0.47874833936E+01 -0.56549744223E+00 -0.69479021909E+01  0.84565435880E+01  0.00000000000E+00 0.  1.
</event>
<event>
 7    1  0.2110035E-010  0.4778727E+02  0.7816164E-02  0.1312668E+00
        -11   -1    0    0    0    0  0.00000000000E+00  0.00000000000E+00  0.45593999997E+02  0.45594000000E+02  0.51100000000E-03 0.  1.
         11   -1    0    0    0    0 -0.00000000000E+00 -0.00000000000E+00 -0.45593999997E+02  0.45594000000E+02  0.51100000000E-03 0. -1.
    9900012    2    1    2    0    0  0.24468584720E+02  0.32263689249E+02  0.15619406111E+02  0.47787272709E+02  0.20000007589E+02 0.  0.
        -12    1    1    2    0    0 -0.24468584720E+02 -0.32263689249E+02 -0.15619406111E+02  0.43400727291E+02  0.00000000000E+00 0.  1.
         11    1    3    3    0    0  0.78367248310E+01  0.40336510707E+01  0.61760237548E+01  0.10762335561E+02  0.51100000000E-03 0. -1.
        -11    1    3    3    0    0  0.16700941813E+01  0.75694181130E+01 -0.34007963154E+01  0.84646748894E+01  0.51100000000E-03 0.  1.
         12    1    3    3    0    0  0.14961765708E+02  0.20660620065E+02  0.12844178671E+02  0.28560262259E+02  0.00000000000E+00 0. -1.
</event>
<event>
 7    1  0.2110035E-010  0.4778728E+02  0.7816164E-02  0.1312668E+00
        -11   -1    0    0    0    0  0.00000000000E+00  0.00000000000E+00  0.45593999997E+02  0.45594000000E+02  0.51100000000E-03 0. -1.
         11   -1    0    0    0    0 -0.00000000000E+00 -0.00000000000E+00 -0.45593999997E+02  0.45594000000E+02  0.51100000000E-03 0.  1.
    9900012    2    1    2    0    0 -0.15524950708E+02  0.37062792082E+02  0.16399632047E+02  0.47787279007E+02  0.20000036305E+02 0.  0.
        -12    1    1    2    0    0  0.15524950708E+02 -0.37062792082E+02 -0.16399632047E+02  0.43400720993E+02  0.00000000000E+00 0.  1.
         11    1    3    3    0    0 -0.18259444976E+02  0.33192145146E+02  0.16080795712E+02  0.41154803137E+02  0.51100000000E-03 0. -1.
        -11    1    3    3    0    0  0.15156809626E+01  0.46924698097E+01  0.96837509337E+00  0.50253668800E+01  0.51100000000E-03 0.  1.
         12    1    3    3    0    0  0.12188133052E+01 -0.82182287354E+00 -0.64953875863E+00  0.16071089905E+01  0.00000000000E+00 0. -1.
</event>
<event>
 7    1  0.2110035E-010  0.4778727E+02  0.7816164E-02  0.1312668E+00
        -11   -1    0    0    0    0  0.00000000000E+00  0.00000000000E+00  0.45593999997E+02  0.45594000000E+02  0.51100000000E-03 0.  1.
         11   -1    0    0    0    0 -0.00000000000E+00 -0.00000000000E+00 -0.45593999997E+02  0.45594000000E+02  0.51100000000E-03 0. -1.
    9900012    2    1    2    0    0 -0.21404329917E+02  0.35750236560E+02  0.12140786046E+02  0.47787269141E+02  0.19999991323E+02 0.  0.
        -12    1    1    2    0    0  0.21404329917E+02 -0.35750236560E+02 -0.12140786046E+02  0.43400730859E+02  0.00000000000E+00 0.  1.
         11    1    3    3    0    0 -0.23744535600E+01  0.10348430984E+02  0.14384236694E+01  0.10714341625E+02  0.51100000000E-03 0. -1.
        -11    1    3    3    0    0 -0.80701851346E+01  0.30318539471E+01  0.84324657910E+01  0.12059291274E+02  0.51100000000E-03 0.  1.
        -12    1    3    3    0    0 -0.10959691222E+02  0.22369951629E+02  0.22698965856E+01  0.25013636242E+02  0.00000000000E+00 0.  1.
</event>
<event>
 7    1  0.2110035E-010  0.4778727E+02  0.7816164E-02  0.1312668E+00
        -11   -1    0    0    0    0  0.00000000000E+00  0.00000000000E+00  0.45593999997E+02  0.45594000000E+02  0.51100000000E-03 0.  1.
         11   -1    0    0    0    0 -0.00000000000E+00 -0.00000000000E+00 -0.45593999997E+02  0.45594000000E+02  0.51100000000E-03 0. -1.
    9900012    2    1    2    0    0  0.25731598703E+02  0.26120220768E+02 -0.23221587981E+02  0.47787271283E+02  0.20000001089E+02 0.  0.
        -12    1    1    2    0    0 -0.25731598703E+02 -0.26120220768E+02  0.23221587981E+02  0.43400728717E+02  0.00000000000E+00 0.  1.
         11    1    3    3    0    0  0.99713542300E+01  0.13998178153E+02 -0.58588880151E+01  0.18157738456E+02  0.51100000000E-03 0. -1.
        -11    1    3    3    0    0  0.91119189425E+01  0.12593220774E+02 -0.64216583420E+01  0.16818263061E+02  0.51100000000E-03 0.  1.
        -12    1    3    3    0    0  0.66483255304E+01 -0.47117815864E+00 -0.10941041624E+02  0.12811269766E+02  0.00000000000E+00 0.  1.
</event>
<event>
 7    1  0.2110035E-010  0.4778727E+02  0.7816164E-02  0.1312668E+00
        -11   -1    0    0    0    0  0.00000000000E+00  0.00000000000E+00  0.45593999997E+02  0.45594000000E+02  0.51100000000E-03 0.  1.
         11   -1    0    0    0    0 -0.00000000000E+00 -0.00000000000E+00 -0.45593999997E+02  0.45594000000E+02  0.51100000000E-03 0. -1.
    9900012    2    1    2    0    0 -0.27967331665E+02 -0.13359633008E+02 -0.30380449143E+02  0.47787272763E+02  0.20000007834E+02 0.  0.
        -12    1    1    2    0    0  0.27967331665E+02  0.13359633008E+02  0.30380449143E+02  0.43400727237E+02  0.00000000000E+00 0.  1.
         11    1    3    3    0    0 -0.63826399842E+01  0.17061974784E+01 -0.82003331668E+01  0.10530653698E+02  0.51100000000E-03 0. -1.
        -11    1    3    3    0    0 -0.84352553426E+01 -0.41222313901E+01 -0.18340975828E+00  0.93904187196E+01  0.51100000000E-03 0.  1.
        -12    1    3    3    0    0 -0.13149436338E+02 -0.10943599097E+02 -0.21996706218E+02  0.27866200345E+02  0.00000000000E+00 0.  1.
</event>
<event>
 7    1  0.2110035E-010  0.4778727E+02  0.7816164E-02  0.1312668E+00
        -11   -1    0    0    0    0  0.00000000000E+00  0.00000000000E+00  0.45593999997E+02  0.45594000000E+02  0.51100000000E-03 0.  1.
         11   -1    0    0    0    0 -0.00000000000E+00 -0.00000000000E+00 -0.45593999997E+02  0.45594000000E+02  0.51100000000E-03 0. -1.
    9900012    2    1    2    0    0 -0.17035597907E+02 -0.22397583904E+02 -0.33041791235E+02  0.47787270411E+02  0.19999997114E+02 0.  0.
        -12    1    1    2    0    0  0.17035597907E+02  0.22397583904E+02  0.33041791235E+02  0.43400729589E+02  0.00000000000E+00 0.  1.
         11    1    3    3    0    0  0.37210846974E-01 -0.99827525233E+00  0.82081168179E+00  0.12929308584E+01  0.51100000000E-03 0. -1.
        -11    1    3    3    0    0 -0.56408439631E+01 -0.22167944007E+01 -0.18295193929E+02  0.19272971208E+02  0.51100000000E-03 0.  1.
         12    1    3    3    0    0 -0.11431964791E+02 -0.19182514251E+02 -0.15567408989E+02  0.27221368345E+02  0.00000000000E+00 0. -1.
</event>
<event>
 7    1  0.2110035E-010  0.4778728E+02  0.7816164E-02  0.1312668E+00
        -11   -1    0    0    0    0  0.00000000000E+00  0.00000000000E+00  0.45593999997E+02  0.45594000000E+02  0.51100000000E-03 0.  1.
         11   -1    0    0    0    0 -0.00000000000E+00 -0.00000000000E+00 -0.45593999997E+02  0.45594000000E+02  0.51100000000E-03 0. -1.
    9900012    2    1    2    0    0  0.15271687014E+02 -0.67295306390E+01 -0.40063846670E+02  0.47787276310E+02  0.20000024006E+02 0.  0.
        -12    1    1    2    0    0 -0.15271687014E+02  0.67295306390E+01  0.40063846670E+02  0.43400723690E+02  0.00000000000E+00 0.  1.
         11    1    3    3    0    0 -0.10550826576E+01 -0.29698325359E+01 -0.40034305459E+01  0.50951507439E+01  0.51100000000E-03 0. -1.
        -11    1    3    3    0    0  0.10940754416E+02  0.21534787578E+01 -0.85750052655E+01  0.14066566515E+02  0.51100000000E-03 0.  1.
        -12    1    3    3    0    0  0.53860152559E+01 -0.59131768608E+01 -0.27485410858E+02  0.28625559051E+02  0.00000000000E+00 0.  1.
</event>
<event>
 7    1  0.2110035E-010  0.4778727E+02  0.7816164E-02  0.1312668E+00
        -11   -1    0    0    0    0  0.00000000000E+00  0.00000000000E+00  0.45593999997E+02  0.45594000000E+02  0.51100000000E-03 0. -1.
         11   -1    0    0    0    0 -0.00000000000E+00 -0.00000000000E+00 -0.45593999997E+02  0.45594000000E+02  0.51100000000E-03 0.  1.
    9900012    2    1    2    0    0 -0.31783879275E+01 -0.33404726922E+02  0.27525364248E+02  0.47787267200E+02  0.19999982473E+02 0.  0.
        -12    1    1    2    0    0  0.31783879275E+01  0.33404726922E+02 -0.27525364248E+02  0.43400732800E+02  0.00000000000E+00 0.  1.
         11    1    3    3    0    0 -0.78665847679E+01 -0.56948771957E+01  0.33433121222E+01  0.10270955087E+02  0.51100000000E-03 0. -1.
        -11    1    3    3    0    0  0.34557860307E+01 -0.78730564780E+01  0.52905977969E+01  0.10095439599E+02  0.51100000000E-03 0.  1.
         12    1    3    3    0    0  0.12324108096E+01 -0.19836793249E+02  0.18891454329E+02  0.27420872514E+02  0.00000000000E+00 0. -1.
</event>
<event>
 7    1  0.2110035E-010  0.4778729E+02  0.7816164E-02  0.1312668E+00
        -11   -1    0    0    0    0  0.00000000000E+00  0.00000000000E+00  0.45593999997E+02  0.45594000000E+02  0.51100000000E-03 0.  1.
         11   -1    0    0    0    0 -0.00000000000E+00 -0.00000000000E+00 -0.45593999997E+02  0.45594000000E+02  0.51100000000E-03 0. -1.
    9900012    2    1    2    0    0 -0.19886915588E+02  0.98986007651E+00 -0.38563619582E+02  0.47787285837E+02  0.20000067447E+02 0.  0.
        -12    1    1    2    0    0  0.19886915588E+02 -0.98986007651E+00  0.38563619582E+02  0.43400714163E+02  0.00000000000E+00 0.  1.
         11    1    3    3    0    0  0.33920339652E+00  0.45458983015E+01 -0.47959486604E+01  0.66167495136E+01  0.51100000000E-03 0. -1.
        -11    1    3    3    0    0 -0.15599381136E+02  0.25585854851E+01 -0.24267016492E+02  0.28961614961E+02  0.51100000000E-03 0.  1.
        -12    1    3    3    0    0 -0.46267378493E+01 -0.61146237101E+01 -0.95006544297E+01  0.12208921362E+02  0.00000000000E+00 0.  1.
</event>
<event>
 7    1  0.2110035E-010  0.4778727E+02  0.7816164E-02  0.1312668E+00
        -11   -1    0    0    0    0  0.00000000000E+00  0.00000000000E+00  0.45593999997E+02  0.45594000000E+02  0.51100000000E-03 0.  1.
         11   -1    0    0    0    0 -0.00000000000E+00 -0.00000000000E+00 -0.45593999997E+02  0.45594000000E+02  0.51100000000E-03 0. -1.
    9900012    2    1    2    0    0 -0.89423379543E+01 -0.40988219559E+01 -0.42271243688E+02  0.47787265070E+02  0.19999972759E+02 0.  0.
        -12    1    1    2    0    0  0.89423379543E+01  0.40988219559E+01  0.42271243688E+02  0.43400734930E+02  0.00000000000E+00 0.  1.
         11    1    3    3    0    0 -0.83935509882E+00 -0.46601332331E+00 -0.21717443426E+02  0.21738653009E+02  0.51100000000E-03 0. -1.
        -11    1    3    3    0    0 -0.56243510441E+00  0.42578776707E+01 -0.99230165642E+01  0.10812590508E+02  0.51100000000E-03 0.  1.
        -12    1    3    3    0    0 -0.75405477511E+01 -0.78906863033E+01 -0.10630783698E+02  0.15236021553E+02  0.00000000000E+00 0.  1.
</event>
<event>
 7    1  0.2110035E-010  0.4778727E+02  0.7816164E-02  0.1312668E+00
        -11   -1    0    0    0    0  0.00000000000E+00  0.00000000000E+00  0.45593999997E+02  0.45594000000E+02  0.51100000000E-03 0.  1.
         11   -1    0    0    0    0 -0.00000000000E+00 -0.00000000000E+00 -0.45593999997E+02  0.45594000000E+02  0.51100000000E-03 0. -1.
    9900012    2    1    2    0    0  0.36763614692E+02  0.20555681347E+02 -0.10465363335E+02  0.47787271543E+02  0.20000002273E+02 0.  0.
        -12    1    1    2    0    0 -0.36763614692E+02 -0.20555681347E+02  0.10465363335E+02  0.43400728457E+02  0.00000000000E+00 0.  1.
         11    1    3    3    0    0  0.46738428548E+00  0.61339736256E+01 -0.21771266260E+01  0.65256387516E+01  0.51100000000E-03 0. -1.
        -11    1    3    3    0    0  0.18266746409E+02  0.11656184027E+02 -0.12316012515E+01  0.21703858928E+02  0.51100000000E-03 0.  1.
         12    1    3    3    0    0  0.18029483997E+02  0.27655236946E+01 -0.70566354575E+01  0.19557773863E+02  0.00000000000E+00 0. -1.
</event>
<event>
 7    1  0.2110035E-010  0.4778727E+02  0.7816164E-02  0.1312668E+00
        -11   -1    0    0    0    0  0.00000000000E+00  0.00000000000E+00  0.45593999997E+02  0.45594000000E+02  0.51100000000E-03 0.  1.
         11   -1    0    0    0    0 -0.00000000000E+00 -0.00000000000E+00 -0.45593999997E+02  0.45594000000E+02  0.51100000000E-03 0. -1.
    9900012    2    1    2    0    0  0.19636895877E+02  0.14627800406E+02 -0.35833542963E+02  0.47787273904E+02  0.20000013039E+02 0.  0.
        -12    1    1    2    0    0 -0.19636895877E+02 -0.14627800406E+02  0.35833542963E+02  0.43400726096E+02  0.00000000000E+00 0.  1.
         11    1    3    3    0    0  0.13289097739E+02  0.30813105433E+01 -0.95668006115E+01  0.16661880674E+02  0.51100000000E-03 0.  1.
        -11    1    3    3    0    0 -0.18004534462E+01 -0.66770559179E+00 -0.42270832137E+01  0.46428112309E+01  0.51100000000E-03 0. -1.
         12    1    3    3    0    0  0.81482515840E+01  0.12214195454E+02 -0.22039659138E+02  0.26482582000E+02  0.00000000000E+00 0. -1.
</event>
<event>
 7    1  0.2110035E-010  0.4778728E+02  0.7816164E-02  0.1312668E+00
        -11   -1    0    0    0    0  0.00000000000E+00  0.00000000000E+00  0.45593999997E+02  0.45594000000E+02  0.51100000000E-03 0.  1.
         11   -1    0    0    0    0 -0.00000000000E+00 -0.00000000000E+00 -0.45593999997E+02  0.45594000000E+02  0.51100000000E-03 0. -1.
    9900012    2    1    2    0    0  0.22867263598E+02 -0.22992364274E+01 -0.36816087075E+02  0.47787279958E+02  0.20000040642E+02 0.  0.
        -12    1    1    2    0    0 -0.22867263598E+02  0.22992364274E+01  0.36816087075E+02  0.43400720042E+02  0.00000000000E+00 0.  1.
         11    1    3    3    0    0 -0.23583207384E+01 -0.14277784698E-01 -0.50803078182E+00  0.24124626623E+01  0.51100000000E-03 0.  1.
        -11    1    3    3    0    0  0.14001322830E+02 -0.13095357878E+01 -0.28142641247E+02  0.31460454250E+02  0.51100000000E-03 0. -1.
        -12    1    3    3    0    0  0.11224261506E+02 -0.97542285488E+00 -0.81654150462E+01  0.13914363046E+02  0.00000000000E+00 0.  1.
</event>
<event>
 7    1  0.2110035E-010  0.4778727E+02  0.7816164E-02  0.1312668E+00
        -11   -1    0    0    0    0  0.00000000000E+00  0.00000000000E+00  0.45593999997E+02  0.45594000000E+02  0.51100000000E-03 0.  1.
         11   -1    0    0    0    0 -0.00000000000E+00 -0.00000000000E+00 -0.45593999997E+02  0.45594000000E+02  0.51100000000E-03 0. -1.
    9900012    2    1    2    0    0  0.36360629877E+01  0.28149550892E+01 -0.43156440402E+02  0.47787271038E+02  0.19999999972E+02 0.  0.
        -12    1    1    2    0    0 -0.36360629877E+01 -0.28149550892E+01  0.43156440402E+02  0.43400728962E+02  0.00000000000E+00 0.  1.
         11    1    3    3    0    0  0.59773842070E+01  0.34311699165E+01 -0.61801249962E+01  0.92572130895E+01  0.51100000000E-03 0. -1.
        -11    1    3    3    0    0 -0.11308857953E+00  0.40855922487E+01 -0.26706176804E+02  0.27017119254E+02  0.51100000000E-03 0.  1.
        -12    1    3    3    0    0 -0.22282326398E+01 -0.47018070761E+01 -0.10270138602E+02  0.11512938695E+02  0.00000000000E+00 0.  1.
</event>
<event>
 7    1  0.2110035E-010  0.4778725E+02  0.7816164E-02  0.1312668E+00
        -11   -1    0    0    0    0  0.00000000000E+00  0.00000000000E+00  0.45593999997E+02  0.45594000000E+02  0.51100000000E-03 0. -1.
         11   -1    0    0    0    0 -0.00000000000E+00 -0.00000000000E+00 -0.45593999997E+02  0.45594000000E+02  0.51100000000E-03 0.  1.
    9900012    2    1    2    0    0 -0.20370105253E+01 -0.31631749619E+02  0.29646379043E+02  0.47787253621E+02  0.19999920561E+02 0.  0.
        -12    1    1    2    0    0  0.20370105253E+01  0.31631749619E+02 -0.29646379043E+02  0.43400746379E+02  0.00000000000E+00 0.  1.
         11    1    3    3    0    0 -0.21777313762E+01 -0.11885064401E+02  0.43493402757E+01  0.12841885798E+02  0.51100000000E-03 0. -1.
        -11    1    3    3    0    0  0.17832026496E+01 -0.95825047568E+01  0.27012721591E+01  0.10114399668E+02  0.51100000000E-03 0.  1.
         12    1    3    3    0    0 -0.16424817987E+01 -0.10164180462E+02  0.22595766608E+02  0.24830968155E+02  0.00000000000E+00 0. -1.
</event>
<event>
 7    1  0.2110035E-010  0.4778727E+02  0.7816164E-02  0.1312668E+00
        -11   -1    0    0    0    0  0.00000000000E+00  0.00000000000E+00  0.45593999997E+02  0.45594000000E+02  0.51100000000E-03 0.  1.
         11   -1    0    0    0    0 -0.00000000000E+00 -0.00000000000E+00 -0.45593999997E+02  0.45594000000E+02  0.51100000000E-03 0. -1.
    9900012    2    1    2    0    0 -0.11556016144E+02 -0.40407518535E+02  0.10831165231E+02  0.47787271855E+02  0.20000003693E+02 0.  0.
        -12    1    1    2    0    0  0.11556016144E+02  0.40407518535E+02 -0.10831165231E+02  0.43400728145E+02  0.00000000000E+00 0.  1.
         11    1    3    3    0    0 -0.10289049586E+02 -0.36856105186E+02  0.10429931030E+02  0.39661322374E+02  0.51100000000E-03 0. -1.
        -11    1    3    3    0    0 -0.81423617147E+00 -0.17413115420E+00  0.34527991185E+01  0.35517776135E+01  0.51100000000E-03 0.  1.
        -12    1    3    3    0    0 -0.45273038717E+00 -0.33772821948E+01 -0.30515649175E+01  0.45741718674E+01  0.00000000000E+00 0.  1.
</event>
<event>
 7    1  0.2110035E-010  0.4778727E+02  0.7816164E-02  0.1312668E+00
        -11   -1    0    0    0    0  0.00000000000E+00  0.00000000000E+00  0.45593999997E+02  0.45594000000E+02  0.51100000000E-03 0. -1.
         11   -1    0    0    0    0 -0.00000000000E+00 -0.00000000000E+00 -0.45593999997E+02  0.45594000000E+02  0.51100000000E-03 0.  1.
    9900012    2    1    2    0    0  0.22100958088E+02  0.10123972565E+02  0.35953801513E+02  0.47787274060E+02  0.20000013751E+02 0.  0.
        -12    1    1    2    0    0 -0.22100958088E+02 -0.10123972565E+02 -0.35953801513E+02  0.43400725940E+02  0.00000000000E+00 0.  1.
         11    1    3    3    0    0  0.81462771541E+01 -0.25052810836E+01  0.74166706066E+01  0.11298020531E+02  0.51100000000E-03 0.  1.
        -11    1    3    3    0    0 -0.42986853295E-01 -0.18974698434E+01  0.57517529492E+01  0.60568062480E+01  0.51100000000E-03 0. -1.
         12    1    3    3    0    0  0.13997667787E+02  0.14526723492E+02  0.22785377957E+02  0.30432447281E+02  0.00000000000E+00 0. -1.
</event>
<event>
 7    1  0.2110035E-010  0.4778727E+02  0.7816164E-02  0.1312668E+00
        -11   -1    0    0    0    0  0.00000000000E+00  0.00000000000E+00  0.45593999997E+02  0.45594000000E+02  0.51100000000E-03 0.  1.
         11   -1    0    0    0    0 -0.00000000000E+00 -0.00000000000E+00 -0.45593999997E+02  0.45594000000E+02  0.51100000000E-03 0. -1.
    9900012    2    1    2    0    0  0.22050209226E+02 -0.35315347292E+02 -0.12257148075E+02  0.47787272354E+02  0.20000005970E+02 0.  0.
        -12    1    1    2    0    0 -0.22050209226E+02  0.35315347292E+02  0.12257148075E+02  0.43400727646E+02  0.00000000000E+00 0.  1.
         11    1    3    3    0    0  0.23538651875E+01 -0.57365597928E+01  0.21905041464E+01  0.65762533599E+01  0.51100000000E-03 0. -1.
        -11    1    3    3    0    0  0.49090638373E+01 -0.19917700109E+01 -0.74441029521E+01  0.91367786751E+01  0.51100000000E-03 0.  1.
         12    1    3    3    0    0  0.14787280201E+02 -0.27587017488E+02 -0.70035492694E+01  0.32074240319E+02  0.00000000000E+00 0. -1.
</event>
<event>
 7    1  0.2110035E-010  0.4778727E+02  0.7816164E-02  0.1312668E+00
        -11   -1    0    0    0    0  0.00000000000E+00  0.00000000000E+00  0.45593999997E+02  0.45594000000E+02  0.51100000000E-03 0. -1.
         11   -1    0    0    0    0 -0.00000000000E+00 -0.00000000000E+00 -0.45593999997E+02  0.45594000000E+02  0.51100000000E-03 0.  1.
    9900012    2    1    2    0    0  0.36608952753E+02 -0.12451603806E+02  0.19706989334E+02  0.47787270886E+02  0.19999999278E+02 0.  0.
        -12    1    1    2    0    0 -0.36608952753E+02  0.12451603806E+02 -0.19706989334E+02  0.43400729114E+02  0.00000000000E+00 0.  1.
         11    1    3    3    0    0  0.19447549632E+02 -0.35559723835E+01  0.11427502947E+02  0.22835059670E+02  0.51100000000E-03 0. -1.
        -11    1    3    3    0    0  0.12651475393E+02 -0.50674755923E+01 -0.13030929845E+01  0.13690770252E+02  0.51100000000E-03 0.  1.
        -12    1    3    3    0    0  0.45099277280E+01 -0.38281558301E+01  0.95825793714E+01  0.11261440964E+02  0.00000000000E+00 0.  1.
</event>
<event>
 7    1  0.2110035E-010  0.4778730E+02  0.7816164E-02  0.1312668E+00
        -11   -1    0    0    0    0  0.00000000000E+00  0.00000000000E+00  0.45593999997E+02  0.45594000000E+02  0.51100000000E-03 0. -1.
         11   -1    0    0    0    0 -0.00000000000E+00 -0.00000000000E+00 -0.45593999997E+02  0.45594000000E+02  0.51100000000E-03 0.  1.
    9900012    2    1    2    0    0 -0.32695755525E+02  0.16303035571E+01  0.28494737755E+02  0.47787304167E+02  0.20000151019E+02 0.  0.
        -12    1    1    2    0    0  0.32695755525E+02 -0.16303035571E+01 -0.28494737755E+02  0.43400695833E+02  0.00000000000E+00 0.  1.
         11    1    3    3    0    0 -0.16441202973E+02  0.81007929471E+01  0.18939016367E+02  0.26355689002E+02  0.51100000000E-03 0. -1.
        -11    1    3    3    0    0 -0.19152621219E+01 -0.40637860050E+01  0.11519517014E+01  0.46378420277E+01  0.51100000000E-03 0.  1.
         12    1    3    3    0    0 -0.14339290431E+02 -0.24067033850E+01  0.84037696863E+01  0.16793773137E+02  0.00000000000E+00 0. -1.
</event>
<event>
 7    1  0.2110035E-010  0.4778727E+02  0.7816164E-02  0.1312668E+00
        -11   -1    0    0    0    0  0.00000000000E+00  0.00000000000E+00  0.45593999997E+02  0.45594000000E+02  0.51100000000E-03 0. -1.
         11   -1    0    0    0    0 -0.00000000000E+00 -0.00000000000E+00 -0.45593999997E+02  0.45594000000E+02  0.51100000000E-03 0.  1.
    9900012    2    1    2    0    0  0.10716008242E+02  0.38293675934E+02 -0.17389214231E+02  0.47787271656E+02  0.20000002787E+02 0.  0.
        -12    1    1    2    0    0 -0.10716008242E+02 -0.38293675934E+02  0.17389214231E+02  0.43400728344E+02  0.00000000000E+00 0.  1.
         11    1    3    3    0    0  0.11932631588E+02  0.32586106787E+02 -0.96804035574E+01  0.36027104594E+02  0.51100000000E-03 0. -1.
        -11    1    3    3    0    0 -0.15186261004E+01  0.19503498542E+01  0.67977844001E+00  0.25636280493E+01  0.51100000000E-03 0.  1.
        -12    1    3    3    0    0  0.30200275508E+00  0.37572192932E+01 -0.83885891140E+01  0.91965390123E+01  0.00000000000E+00 0.  1.
</event>
<event>
 7    1  0.2110035E-010  0.4778727E+02  0.7816164E-02  0.1312668E+00
        -11   -1    0    0    0    0  0.00000000000E+00  0.00000000000E+00  0.45593999997E+02  0.45594000000E+02  0.51100000000E-03 0.  1.
         11   -1    0    0    0    0 -0.00000000000E+00 -0.00000000000E+00 -0.45593999997E+02  0.45594000000E+02  0.51100000000E-03 0. -1.
    9900012    2    1    2    0    0 -0.50941034084E+00  0.21451656109E+02 -0.37725191327E+02  0.47787272940E+02  0.20000008643E+02 0.  0.
        -12    1    1    2    0    0  0.50941034084E+00 -0.21451656109E+02  0.37725191327E+02  0.43400727060E+02  0.00000000000E+00 0.  1.
         11    1    3    3    0    0 -0.20504482214E+00  0.61974662821E+01  0.65669303135E-01  0.62012050777E+01  0.51100000000E-03 0.  1.
        -11    1    3    3    0    0 -0.12073583086E+01  0.11751025255E+02 -0.18435180348E+02  0.21895209141E+02  0.51100000000E-03 0. -1.
        -12    1    3    3    0    0  0.90299278994E+00  0.35031645714E+01 -0.19355680282E+02  0.19690858721E+02  0.00000000000E+00 0.  1.
</event>
<event>
 7    1  0.2110035E-010  0.4778726E+02  0.7816164E-02  0.1312668E+00
        -11   -1    0    0    0    0  0.00000000000E+00  0.00000000000E+00  0.45593999997E+02  0.45594000000E+02  0.51100000000E-03 0.  1.
         11   -1    0    0    0    0 -0.00000000000E+00 -0.00000000000E+00 -0.45593999997E+02  0.45594000000E+02  0.51100000000E-03 0. -1.
    9900012    2    1    2    0    0 -0.31534030553E+02  0.12586355528E+02 -0.27033550058E+02  0.47787259717E+02  0.19999948352E+02 0.  0.
        -12    1    1    2    0    0  0.31534030553E+02 -0.12586355528E+02  0.27033550058E+02  0.43400740283E+02  0.00000000000E+00 0.  1.
         11    1    3    3    0    0 -0.15714669411E+02  0.43963244221E+01 -0.16308853768E+02  0.23070700349E+02  0.51100000000E-03 0. -1.
        -11    1    3    3    0    0 -0.12869553477E+02  0.10296658959E+01 -0.20235582748E+01  0.13068297782E+02  0.51100000000E-03 0.  1.
        -12    1    3    3    0    0 -0.29498076646E+01  0.71603652099E+01 -0.87011380154E+01  0.11648261585E+02  0.00000000000E+00 0.  1.
</event>
<event>
 7    1  0.2110035E-010  0.4778727E+02  0.7816164E-02  0.1312668E+00
        -11   -1    0    0    0    0  0.00000000000E+00  0.00000000000E+00  0.45593999997E+02  0.45594000000E+02  0.51100000000E-03 0.  1.
         11   -1    0    0    0    0 -0.00000000000E+00 -0.00000000000E+00 -0.45593999997E+02  0.45594000000E+02  0.51100000000E-03 0. -1.
    9900012    2    1    2    0    0 -0.33264139696E+02  0.20938324357E+01 -0.27798131137E+02  0.47787271680E+02  0.20000002896E+02 0.  0.
        -12    1    1    2    0    0  0.33264139696E+02 -0.20938324357E+01  0.27798131137E+02  0.43400728320E+02  0.00000000000E+00 0.  1.
         11    1    3    3    0    0 -0.25262526012E+01 -0.20011940522E+01 -0.98221468716E+01  0.10337373906E+02  0.51100000000E-03 0. -1.
        -11    1    3    3    0    0 -0.75873074422E+01 -0.26800459219E+01 -0.80000286545E+01  0.11346820660E+02  0.51100000000E-03 0.  1.
        -12    1    3    3    0    0 -0.23150579653E+02  0.67750724099E+01 -0.99759556111E+01  0.26103077113E+02  0.00000000000E+00 0.  1.
</event>
<event>
 7    1  0.2110035E-010  0.4778727E+02  0.7816164E-02  0.1312668E+00
        -11   -1    0    0    0    0  0.00000000000E+00  0.00000000000E+00  0.45593999997E+02  0.45594000000E+02  0.51100000000E-03 0.  1.
         11   -1    0    0    0    0 -0.00000000000E+00 -0.00000000000E+00 -0.45593999997E+02  0.45594000000E+02  0.51100000000E-03 0. -1.
    9900012    2    1    2    0    0  0.24539555468E+02 -0.33975805368E+02 -0.11272910439E+02  0.47787266795E+02  0.19999980625E+02 0.  0.
        -12    1    1    2    0    0 -0.24539555468E+02  0.33975805368E+02  0.11272910439E+02  0.43400733205E+02  0.00000000000E+00 0.  1.
         11    1    3    3    0    0 -0.10020135692E+00 -0.39937974842E+01  0.29056220021E-01  0.39951599695E+01  0.51100000000E-03 0. -1.
        -11    1    3    3    0    0  0.68667979348E+01 -0.19147407127E+02 -0.51497138764E+00  0.20348005046E+02  0.51100000000E-03 0.  1.
         12    1    3    3    0    0  0.17772958890E+02 -0.10834600757E+02 -0.10786995272E+02  0.23444101779E+02  0.00000000000E+00 0. -1.
</event>
<event>
 7    1  0.2110035E-010  0.4778727E+02  0.7816164E-02  0.1312668E+00
        -11   -1    0    0    0    0  0.00000000000E+00  0.00000000000E+00  0.45593999997E+02  0.45594000000E+02  0.51100000000E-03 0. -1.
         11   -1    0    0    0    0 -0.00000000000E+00 -0.00000000000E+00 -0.45593999997E+02  0.45594000000E+02  0.51100000000E-03 0.  1.
    9900012    2    1    2    0    0 -0.42682655970E+02  0.67105531878E+01  0.40966311066E+01  0.47787273840E+02  0.20000012748E+02 0.  0.
        -12    1    1    2    0    0  0.42682655970E+02 -0.67105531878E+01 -0.40966311066E+01  0.43400726160E+02  0.00000000000E+00 0.  1.
         11    1    3    3    0    0 -0.13591031407E+02  0.23731502051E+00  0.37312510118E+01  0.14095910312E+02  0.51100000000E-03 0.  1.
        -11    1    3    3    0    0 -0.15522423137E+02  0.96517051227E+01  0.50932059204E+01  0.18974766893E+02  0.51100000000E-03 0. -1.
        -12    1    3    3    0    0 -0.13569201426E+02 -0.31784669554E+01 -0.47278258255E+01  0.14716596636E+02  0.00000000000E+00 0.  1.
</event>
<event>
 7    1  0.2110035E-010  0.4778727E+02  0.7816164E-02  0.1312668E+00
        -11   -1    0    0    0    0  0.00000000000E+00  0.00000000000E+00  0.45593999997E+02  0.45594000000E+02  0.51100000000E-03 0.  1.
         11   -1    0    0    0    0 -0.00000000000E+00 -0.00000000000E+00 -0.45593999997E+02  0.45594000000E+02  0.51100000000E-03 0. -1.
    9900012    2    1    2    0    0 -0.84112526114E+01  0.35304644861E+02 -0.23800342019E+02  0.47787269597E+02  0.19999993401E+02 0.  0.
        -12    1    1    2    0    0  0.84112526114E+01 -0.35304644861E+02  0.23800342019E+02  0.43400730403E+02  0.00000000000E+00 0.  1.
         11    1    3    3    0    0 -0.33976442916E+01  0.14927208599E+02 -0.21403863112E+01  0.15457904033E+02  0.51100000000E-03 0. -1.
        -11    1    3    3    0    0  0.34325785232E+01  0.25597038274E+01 -0.37806037401E+01  0.57120612657E+01  0.51100000000E-03 0.  1.
        -12    1    3    3    0    0 -0.84461868430E+01  0.17817732435E+02 -0.17879351967E+02  0.26617304298E+02  0.00000000000E+00 0.  1.
</event>
<event>
 7    1  0.2110035E-010  0.4778727E+02  0.7816164E-02  0.1312668E+00
        -11   -1    0    0    0    0  0.00000000000E+00  0.00000000000E+00  0.45593999997E+02  0.45594000000E+02  0.51100000000E-03 0.  1.
         11   -1    0    0    0    0 -0.00000000000E+00 -0.00000000000E+00 -0.45593999997E+02  0.45594000000E+02  0.51100000000E-03 0. -1.
    9900012    2    1    2    0    0  0.24051161661E+02 -0.21998715672E+02 -0.28656958176E+02  0.47787272813E+02  0.20000008064E+02 0.  0.
        -12    1    1    2    0    0 -0.24051161661E+02  0.21998715672E+02  0.28656958176E+02  0.43400727187E+02  0.00000000000E+00 0.  1.
         11    1    3    3    0    0 -0.14254131857E+01  0.73649346070E+00 -0.10394415068E+01  0.19117176243E+01  0.51100000000E-03 0.  1.
        -11    1    3    3    0    0  0.18052776655E+02 -0.14722602239E+02 -0.10459050417E+02  0.25535259888E+02  0.51100000000E-03 0. -1.
         12    1    3    3    0    0  0.74237981915E+01 -0.80126068940E+01 -0.17158466252E+02  0.20340295301E+02  0.00000000000E+00 0. -1.
</event>
<event>
 7    1  0.2110035E-010  0.4778727E+02  0.7816164E-02  0.1312668E+00
        -11   -1    0    0    0    0  0.00000000000E+00  0.00000000000E+00  0.45593999997E+02  0.45594000000E+02  0.51100000000E-03 0.  1.
         11   -1    0    0    0    0 -0.00000000000E+00 -0.00000000000E+00 -0.45593999997E+02  0.45594000000E+02  0.51100000000E-03 0. -1.
    9900012    2    1    2    0    0 -0.22819395894E+02  0.36784400863E+02  0.31315658305E+01  0.47787266361E+02  0.19999978647E+02 0.  0.
        -12    1    1    2    0    0  0.22819395894E+02 -0.36784400863E+02 -0.31315658305E+01  0.43400733639E+02  0.00000000000E+00 0.  1.
         11    1    3    3    0    0 -0.32516453671E+01  0.13052903453E+02 -0.11896060215E+01  0.13504319638E+02  0.51100000000E-03 0. -1.
        -11    1    3    3    0    0 -0.43938870134E+01  0.34536081190E+01  0.68382893980E+01  0.88315261579E+01  0.51100000000E-03 0.  1.
         12    1    3    3    0    0 -0.15173863514E+02  0.20277889291E+02 -0.25171175460E+01  0.25451420565E+02  0.00000000000E+00 0. -1.
</event>
<event>
 7    1  0.2110035E-010  0.4778727E+02  0.7816164E-02  0.1312668E+00
        -11   -1    0    0    0    0  0.00000000000E+00  0.00000000000E+00  0.45593999997E+02  0.45594000000E+02  0.51100000000E-03 0.  1.
         11   -1    0    0    0    0 -0.00000000000E+00 -0.00000000000E+00 -0.45593999997E+02  0.45594000000E+02  0.51100000000E-03 0. -1.
    9900012    2    1    2    0    0 -0.16909646672E+02 -0.11398393501E+02 -0.38311404277E+02  0.47787271634E+02  0.20000002690E+02 0.  0.
        -12    1    1    2    0    0  0.16909646672E+02  0.11398393501E+02  0.38311404277E+02  0.43400728366E+02  0.00000000000E+00 0.  1.
         11    1    3    3    0    0 -0.14480400500E+02 -0.66040055543E+01 -0.15210728191E+02  0.22015020789E+02  0.51100000000E-03 0. -1.
        -11    1    3    3    0    0 -0.51546899173E+01 -0.30532642541E+01 -0.21179468512E+02  0.22010523335E+02  0.51100000000E-03 0.  1.
        -12    1    3    3    0    0  0.27254437451E+01 -0.17411236923E+01 -0.19212075737E+01  0.37617275102E+01  0.00000000000E+00 0.  1.
</event>
<event>
 7    1  0.2110035E-010  0.4778727E+02  0.7816164E-02  0.1312668E+00
        -11   -1    0    0    0    0  0.00000000000E+00  0.00000000000E+00  0.45593999997E+02  0.45594000000E+02  0.51100000000E-03 0.  1.
         11   -1    0    0    0    0 -0.00000000000E+00 -0.00000000000E+00 -0.45593999997E+02  0.45594000000E+02  0.51100000000E-03 0. -1.
    9900012    2    1    2    0    0  0.11366597876E+01 -0.15972595544E+02 -0.40338658834E+02  0.47787271891E+02  0.20000003860E+02 0.  0.
        -12    1    1    2    0    0 -0.11366597876E+01  0.15972595544E+02  0.40338658834E+02  0.43400728109E+02  0.00000000000E+00 0.  1.
         11    1    3    3    0    0  0.35551444672E+01 -0.11967548627E+02 -0.18890060010E+02  0.22642783392E+02  0.51100000000E-03 0. -1.
        -11    1    3    3    0    0  0.21817645800E+01  0.28582191752E+01 -0.22454632570E+01  0.42392946389E+01  0.51100000000E-03 0.  1.
         12    1    3    3    0    0 -0.46002492595E+01 -0.68632660920E+01 -0.19203135567E+02  0.20905193860E+02  0.00000000000E+00 0. -1.
</event>
<event>
 7    1  0.2110035E-010  0.4778727E+02  0.7816164E-02  0.1312668E+00
        -11   -1    0    0    0    0  0.00000000000E+00  0.00000000000E+00  0.45593999997E+02  0.45594000000E+02  0.51100000000E-03 0.  1.
         11   -1    0    0    0    0 -0.00000000000E+00 -0.00000000000E+00 -0.45593999997E+02  0.45594000000E+02  0.51100000000E-03 0. -1.
    9900012    2    1    2    0    0  0.17129607621E+02 -0.17805834873E+02 -0.35681257322E+02  0.47787270319E+02  0.19999996693E+02 0.  0.
        -12    1    1    2    0    0 -0.17129607621E+02  0.17805834873E+02  0.35681257322E+02  0.43400729681E+02  0.00000000000E+00 0.  1.
         11    1    3    3    0    0  0.11962883458E+00 -0.93477351364E+01 -0.76600635814E+01  0.12085985172E+02  0.51100000000E-03 0.  1.
        -11    1    3    3    0    0  0.15607533134E+02 -0.11035812157E+02 -0.23238326090E+02  0.30089932539E+02  0.51100000000E-03 0. -1.
        -12    1    3    3    0    0  0.14024456528E+01  0.25777124205E+01 -0.47828676506E+01  0.56113526083E+01  0.00000000000E+00 0.  1.
</event>
<event>
 7    1  0.2110035E-010  0.4778727E+02  0.7816164E-02  0.1312668E+00
        -11   -1    0    0    0    0  0.00000000000E+00  0.00000000000E+00  0.45593999997E+02  0.45594000000E+02  0.51100000000E-03 0.  1.
         11   -1    0    0    0    0 -0.00000000000E+00 -0.00000000000E+00 -0.45593999997E+02  0.45594000000E+02  0.51100000000E-03 0. -1.
    9900012    2    1    2    0    0 -0.79223613181E+01  0.40735463847E+02 -0.12707548518E+02  0.47787267137E+02  0.19999982184E+02 0.  0.
        -12    1    1    2    0    0  0.79223613181E+01 -0.40735463847E+02  0.12707548518E+02  0.43400732863E+02  0.00000000000E+00 0.  1.
         11    1    3    3    0    0 -0.41993174957E+01  0.17920825004E+02 -0.10454659059E+02  0.21168139563E+02  0.51100000000E-03 0. -1.
        -11    1    3    3    0    0 -0.35394675250E+01  0.61601339199E+01 -0.62815596525E+01  0.94833049197E+01  0.51100000000E-03 0.  1.
        -12    1    3    3    0    0 -0.18357629743E+00  0.16654504924E+02  0.40286701939E+01  0.17135822654E+02  0.00000000000E+00 0.  1.
</event>
<event>
 7    1  0.2110035E-010  0.4778727E+02  0.7816164E-02  0.1312668E+00
        -11   -1    0    0    0    0  0.00000000000E+00  0.00000000000E+00  0.45593999997E+02  0.45594000000E+02  0.51100000000E-03 0. -1.
         11   -1    0    0    0    0 -0.00000000000E+00 -0.00000000000E+00 -0.45593999997E+02  0.45594000000E+02  0.51100000000E-03 0.  1.
    9900012    2    1    2    0    0  0.34703894833E+02 -0.22515576269E+01 -0.25965239134E+02  0.47787268766E+02  0.19999989613E+02 0.  0.
        -12    1    1    2    0    0 -0.34703894833E+02  0.22515576269E+01  0.25965239134E+02  0.43400731234E+02  0.00000000000E+00 0.  1.
         11    1    3    3    0    0  0.78036621412E+01  0.46061705706E+01 -0.94406747179E+01  0.13085881305E+02  0.51100000000E-03 0. -1.
        -11    1    3    3    0    0  0.25967502867E+02 -0.33333934935E+01 -0.16696775398E+02  0.31051650943E+02  0.51100000000E-03 0.  1.
        -12    1    3    3    0    0  0.93272982522E+00 -0.35243347040E+01  0.17221098212E+00  0.36497365186E+01  0.00000000000E+00 0.  1.
</event>
<event>
 7    1  0.2110035E-010  0.4778727E+02  0.7816164E-02  0.1312668E+00
        -11   -1    0    0    0    0  0.00000000000E+00  0.00000000000E+00  0.45593999997E+02  0.45594000000E+02  0.51100000000E-03 0.  1.
         11   -1    0    0    0    0 -0.00000000000E+00 -0.00000000000E+00 -0.45593999997E+02  0.45594000000E+02  0.51100000000E-03 0. -1.
    9900012    2    1    2    0    0 -0.30230830902E+02 -0.31055273154E+02 -0.23000569328E+01  0.47787269711E+02  0.19999993920E+02 0.  0.
        -12    1    1    2    0    0  0.30230830902E+02  0.31055273154E+02  0.23000569328E+01  0.43400730289E+02  0.00000000000E+00 0.  1.
         11    1    3    3    0    0 -0.96520503059E+01 -0.11206920529E+02 -0.51556442856E+01  0.15663263106E+02  0.51100000000E-03 0.  1.
        -11    1    3    3    0    0  0.15461245522E+01 -0.22938846361E+01 -0.20694888208E+01  0.34547347359E+01  0.51100000000E-03 0. -1.
         12    1    3    3    0    0 -0.22124905148E+02 -0.17554467989E+02  0.49250761736E+01  0.28669271869E+02  0.00000000000E+00 0. -1.
</event>
<event>
 7    1  0.2110035E-010  0.4778727E+02  0.7816164E-02  0.1312668E+00
        -11   -1    0    0    0    0  0.00000000000E+00  0.00000000000E+00  0.45593999997E+02  0.45594000000E+02  0.51100000000E-03 0.  1.
         11   -1    0    0    0    0 -0.00000000000E+00 -0.00000000000E+00 -0.45593999997E+02  0.45594000000E+02  0.51100000000E-03 0. -1.
    9900012    2    1    2    0    0 -0.16247345766E+02  0.37200737975E+02 -0.15354220110E+02  0.47787271601E+02  0.20000002539E+02 0.  0.
        -12    1    1    2    0    0  0.16247345766E+02 -0.37200737975E+02  0.15354220110E+02  0.43400728399E+02  0.00000000000E+00 0.  1.
         11    1    3    3    0    0  0.10615720237E+01  0.24143779528E+00 -0.34065653196E+01  0.35762990518E+01  0.51100000000E-03 0. -1.
        -11    1    3    3    0    0 -0.12048011630E+02  0.17869495722E+02 -0.97753070161E+00  0.21573804211E+02  0.51100000000E-03 0.  1.
         12    1    3    3    0    0 -0.52609061595E+01  0.19089804458E+02 -0.10970124089E+02  0.22637168339E+02  0.00000000000E+00 0. -1.
</event>
<event>
 7    1  0.2110035E-010  0.4778728E+02  0.7816164E-02  0.1312668E+00
        -11   -1    0    0    0    0  0.00000000000E+00  0.00000000000E+00  0.45593999997E+02  0.45594000000E+02  0.51100000000E-03 0.  1.
         11   -1    0    0    0    0 -0.00000000000E+00 -0.00000000000E+00 -0.45593999997E+02  0.45594000000E+02  0.51100000000E-03 0. -1.
    9900012    2    1    2    0    0  0.12774009835E+01  0.12583716429E+02 -0.41516755829E+02  0.47787277806E+02  0.20000030827E+02 0.  0.
        -12    1    1    2    0    0 -0.12774009835E+01 -0.12583716429E+02  0.41516755829E+02  0.43400722194E+02  0.00000000000E+00 0.  1.
         11    1    3    3    0    0  0.23324762416E+01  0.64415581611E+01 -0.14438549838E+02  0.15981421672E+02  0.51100000000E-03 0. -1.
        -11    1    3    3    0    0  0.46618453326E+01  0.19166941571E+01 -0.23132484823E+02  0.23675269222E+02  0.51100000000E-03 0.  1.
        -12    1    3    3    0    0 -0.57169205908E+01  0.42254641110E+01 -0.39457211677E+01  0.81305869116E+01  0.00000000000E+00 0.  1.
</event>
<event>
 7    1  0.2110035E-010  0.4778727E+02  0.7816164E-02  0.1312668E+00
        -11   -1    0    0    0    0  0.00000000000E+00  0.00000000000E+00  0.45593999997E+02  0.45594000000E+02  0.51100000000E-03 0. -1.
         11   -1    0    0    0    0 -0.00000000000E+00 -0.00000000000E+00 -0.45593999997E+02  0.45594000000E+02  0.51100000000E-03 0.  1.
    9900012    2    1    2    0    0 -0.28905437688E+02  0.19909141852E+02  0.25528905566E+02  0.47787271012E+02  0.19999999854E+02 0.  0.
        -12    1    1    2    0    0  0.28905437688E+02 -0.19909141852E+02 -0.25528905566E+02  0.43400728988E+02  0.00000000000E+00 0.  1.
         11    1    3    3    0    0 -0.79100235361E+01  0.11442594176E+02  0.95638634132E+01  0.16881022406E+02  0.51100000000E-03 0. -1.
        -11    1    3    3    0    0 -0.52159207601E+01 -0.11184960481E+00  0.11151968572E+02  0.12311975593E+02  0.51100000000E-03 0.  1.
         12    1    3    3    0    0 -0.15779493392E+02  0.85783972812E+01  0.48130735814E+01  0.18594273014E+02  0.00000000000E+00 0. -1.
</event>
<event>
 7    1  0.2110035E-010  0.4778727E+02  0.7816164E-02  0.1312668E+00
        -11   -1    0    0    0    0  0.00000000000E+00  0.00000000000E+00  0.45593999997E+02  0.45594000000E+02  0.51100000000E-03 0.  1.
         11   -1    0    0    0    0 -0.00000000000E+00 -0.00000000000E+00 -0.45593999997E+02  0.45594000000E+02  0.51100000000E-03 0. -1.
    9900012    2    1    2    0    0 -0.66681104736E+01  0.18708661500E+02 -0.38589446512E+02  0.47787273111E+02  0.20000009421E+02 0.  0.
        -12    1    1    2    0    0  0.66681104736E+01 -0.18708661500E+02  0.38589446512E+02  0.43400726889E+02  0.00000000000E+00 0.  1.
         11    1    3    3    0    0 -0.57809768781E+01  0.77887278467E+01 -0.13961108353E+02  0.16999897701E+02  0.51100000000E-03 0. -1.
        -11    1    3    3    0    0 -0.26124728930E+00 -0.34771109357E+01 -0.21820762104E+01  0.41133936664E+01  0.51100000000E-03 0.  1.
         12    1    3    3    0    0 -0.62588630621E+00  0.14397044589E+02 -0.22446261949E+02  0.26673981744E+02  0.00000000000E+00 0. -1.
</event>
<event>
 7    1  0.2110035E-010  0.4778727E+02  0.7816164E-02  0.1312668E+00
        -11   -1    0    0    0    0  0.00000000000E+00  0.00000000000E+00  0.45593999997E+02  0.45594000000E+02  0.51100000000E-03 0. -1.
         11   -1    0    0    0    0 -0.00000000000E+00 -0.00000000000E+00 -0.45593999997E+02  0.45594000000E+02  0.51100000000E-03 0.  1.
    9900012    2    1    2    0    0  0.98425493083E+01  0.40550673022E+02 -0.11932742511E+02  0.47787271858E+02  0.20000003709E+02 0.  0.
        -12    1    1    2    0    0 -0.98425493083E+01 -0.40550673022E+02  0.11932742511E+02  0.43400728142E+02  0.00000000000E+00 0.  1.
         11    1    3    3    0    0  0.45292181621E+01  0.30507934489E+02 -0.15445061823E+02  0.34493446028E+02  0.51100000000E-03 0. -1.
        -11    1    3    3    0    0  0.15207914777E+01  0.13994636754E+01 -0.15498785337E+01  0.25832980911E+01  0.51100000000E-03 0.  1.
        -12    1    3    3    0    0  0.37925396685E+01  0.86432748583E+01  0.50621978457E+01  0.10710527739E+02  0.00000000000E+00 0.  1.
</event>
<event>
 7    1  0.2110035E-010  0.4778727E+02  0.7816164E-02  0.1312668E+00
        -11   -1    0    0    0    0  0.00000000000E+00  0.00000000000E+00  0.45593999997E+02  0.45594000000E+02  0.51100000000E-03 0.  1.
         11   -1    0    0    0    0 -0.00000000000E+00 -0.00000000000E+00 -0.45593999997E+02  0.45594000000E+02  0.51100000000E-03 0. -1.
    9900012    2    1    2    0    0 -0.41510897772E+02  0.28135616466E+00 -0.12664514623E+02  0.47787265839E+02  0.19999976265E+02 0.  0.
        -12    1    1    2    0    0  0.41510897772E+02 -0.28135616466E+00  0.12664514623E+02  0.43400734161E+02  0.00000000000E+00 0.  1.
         11    1    3    3    0    0 -0.11566259550E+02 -0.95257106718E+00 -0.81333580959E+01  0.14171706524E+02  0.51100000000E-03 0. -1.
        -11    1    3    3    0    0 -0.17481938754E+02  0.53411426721E+01  0.29416903132E+01  0.18514846200E+02  0.51100000000E-03 0.  1.
        -12    1    3    3    0    0 -0.12462699468E+02 -0.41072154403E+01 -0.74728468403E+01  0.15100713116E+02  0.00000000000E+00 0.  1.
</event>
<event>
 7    1  0.2110035E-010  0.4778728E+02  0.7816164E-02  0.1312668E+00
        -11   -1    0    0    0    0  0.00000000000E+00  0.00000000000E+00  0.45593999997E+02  0.45594000000E+02  0.51100000000E-03 0.  1.
         11   -1    0    0    0    0 -0.00000000000E+00 -0.00000000000E+00 -0.45593999997E+02  0.45594000000E+02  0.51100000000E-03 0. -1.
    9900012    2    1    2    0    0  0.34552133220E+02  0.12198387508E+02 -0.23258803713E+02  0.47787279752E+02  0.20000039702E+02 0.  0.
        -12    1    1    2    0    0 -0.34552133220E+02 -0.12198387508E+02  0.23258803713E+02  0.43400720248E+02  0.00000000000E+00 0.  1.
         11    1    3    3    0    0  0.14761109124E+02 -0.34721601108E+01 -0.98370183272E+01  0.18075208664E+02  0.51100000000E-03 0. -1.
        -11    1    3    3    0    0  0.13741391574E+01 -0.67199721427E+00  0.24799500459E+00  0.15496259107E+01  0.51100000000E-03 0.  1.
         12    1    3    3    0    0  0.18416884939E+02  0.16342544833E+02 -0.13669780390E+02  0.28162445177E+02  0.00000000000E+00 0. -1.
</event>
<event>
 7    1  0.2110035E-010  0.4778728E+02  0.7816164E-02  0.1312668E+00
        -11   -1    0    0    0    0  0.00000000000E+00  0.00000000000E+00  0.45593999997E+02  0.45594000000E+02  0.51100000000E-03 0.  1.
         11   -1    0    0    0    0 -0.00000000000E+00 -0.00000000000E+00 -0.45593999997E+02  0.45594000000E+02  0.51100000000E-03 0. -1.
    9900012    2    1    2    0    0 -0.20639217452E+02  0.34677758367E+02 -0.15971785330E+02  0.47787284003E+02  0.20000059084E+02 0.  0.
        -12    1    1    2    0    0  0.20639217452E+02 -0.34677758367E+02  0.15971785330E+02  0.43400715997E+02  0.00000000000E+00 0.  1.
         11    1    3    3    0    0  0.77920004940E+00  0.15538966842E+01 -0.36177489789E+01  0.40137084545E+01  0.51100000000E-03 0. -1.
        -11    1    3    3    0    0  0.56044109426E+00  0.99529034118E-01 -0.29501943066E+01  0.30046042928E+01  0.51100000000E-03 0.  1.
         12    1    3    3    0    0 -0.21978858596E+02  0.33024332649E+02 -0.94038420446E+01  0.40768971256E+02  0.00000000000E+00 0. -1.
</event>
<event>
 7    1  0.2110035E-010  0.4778727E+02  0.7816164E-02  0.1312668E+00
        -11   -1    0    0    0    0  0.00000000000E+00  0.00000000000E+00  0.45593999997E+02  0.45594000000E+02  0.51100000000E-03 0. -1.
         11   -1    0    0    0    0 -0.00000000000E+00 -0.00000000000E+00 -0.45593999997E+02  0.45594000000E+02  0.51100000000E-03 0.  1.
    9900012    2    1    2    0    0  0.15739131270E+02 -0.30412400825E+02  0.26664372058E+02  0.47787272882E+02  0.20000008380E+02 0.  0.
        -12    1    1    2    0    0 -0.15739131270E+02  0.30412400825E+02 -0.26664372058E+02  0.43400727118E+02  0.00000000000E+00 0.  1.
         11    1    3    3    0    0  0.66559839556E+01 -0.39038346876E+00  0.54803082494E+01  0.86306604869E+01  0.51100000000E-03 0. -1.
        -11    1    3    3    0    0 -0.18413725329E+01 -0.95375815545E+01  0.64569224887E+01  0.11663960005E+02  0.51100000000E-03 0.  1.
         12    1    3    3    0    0  0.10924519847E+02 -0.20484435802E+02  0.14727141320E+02  0.27492652391E+02  0.00000000000E+00 0. -1.
</event>
<event>
 7    1  0.2110035E-010  0.4778727E+02  0.7816164E-02  0.1312668E+00
        -11   -1    0    0    0    0  0.00000000000E+00  0.00000000000E+00  0.45593999997E+02  0.45594000000E+02  0.51100000000E-03 0.  1.
         11   -1    0    0    0    0 -0.00000000000E+00 -0.00000000000E+00 -0.45593999997E+02  0.45594000000E+02  0.51100000000E-03 0. -1.
    9900012    2    1    2    0    0  0.72177037920E+01 -0.35834446694E+02 -0.23397014953E+02  0.47787272741E+02  0.20000007737E+02 0.  0.
        -12    1    1    2    0    0 -0.72177037920E+01  0.35834446694E+02  0.23397014953E+02  0.43400727259E+02  0.00000000000E+00 0.  1.
         11    1    3    3    0    0  0.40345148110E+01 -0.10221605874E+02 -0.16493996272E+02  0.19819446251E+02  0.51100000000E-03 0. -1.
        -11    1    3    3    0    0 -0.22371622246E+01 -0.45463077013E+01  0.23933322575E+00  0.50725821026E+01  0.51100000000E-03 0.  1.
         12    1    3    3    0    0  0.54203512056E+01 -0.21066533119E+02 -0.71423519068E+01  0.22895244388E+02  0.00000000000E+00 0. -1.
</event>
<event>
 7    1  0.2110035E-010  0.4778728E+02  0.7816164E-02  0.1312668E+00
        -11   -1    0    0    0    0  0.00000000000E+00  0.00000000000E+00  0.45593999997E+02  0.45594000000E+02  0.51100000000E-03 0. -1.
         11   -1    0    0    0    0 -0.00000000000E+00 -0.00000000000E+00 -0.45593999997E+02  0.45594000000E+02  0.51100000000E-03 0.  1.
    9900012    2    1    2    0    0 -0.10073409880E+02 -0.74332239055E+01  0.41555943203E+02  0.47787276277E+02  0.20000023855E+02 0.  0.
        -12    1    1    2    0    0  0.10073409880E+02  0.74332239055E+01 -0.41555943203E+02  0.43400723723E+02  0.00000000000E+00 0.  1.
         11    1    3    3    0    0 -0.43649992119E+01  0.38399306377E+01  0.66903089497E+01  0.88633244060E+01  0.51100000000E-03 0. -1.
        -11    1    3    3    0    0  0.10005977329E+01 -0.55305536514E+01  0.42116944321E+01  0.70232890988E+01  0.51100000000E-03 0.  1.
         12    1    3    3    0    0 -0.67090084008E+01 -0.57426008918E+01  0.30653939821E+02  0.31900662772E+02  0.00000000000E+00 0. -1.
</event>
<event>
 7    1  0.2110035E-010  0.4778727E+02  0.7816164E-02  0.1312668E+00
        -11   -1    0    0    0    0  0.00000000000E+00  0.00000000000E+00  0.45593999997E+02  0.45594000000E+02  0.51100000000E-03 0. -1.
         11   -1    0    0    0    0 -0.00000000000E+00 -0.00000000000E+00 -0.45593999997E+02  0.45594000000E+02  0.51100000000E-03 0.  1.
    9900012    2    1    2    0    0  0.20869782906E+02  0.11276565194E+02  0.36344387418E+02  0.47787271228E+02  0.20000000838E+02 0.  0.
        -12    1    1    2    0    0 -0.20869782906E+02 -0.11276565194E+02 -0.36344387418E+02  0.43400728772E+02  0.00000000000E+00 0.  1.
         11    1    3    3    0    0  0.41966898407E+01  0.61306847171E+01  0.12252335381E+02  0.14328894698E+02  0.51100000000E-03 0. -1.
        -11    1    3    3    0    0  0.87218652174E+01 -0.42686207948E+01  0.15999869477E+02  0.18715979267E+02  0.51100000000E-03 0.  1.
        -12    1    3    3    0    0  0.79512278482E+01  0.94145012721E+01  0.80921825591E+01  0.14742397263E+02  0.00000000000E+00 0.  1.
</event>
<event>
 7    1  0.2110035E-010  0.4778727E+02  0.7816164E-02  0.1312668E+00
        -11   -1    0    0    0    0  0.00000000000E+00  0.00000000000E+00  0.45593999997E+02  0.45594000000E+02  0.51100000000E-03 0. -1.
         11   -1    0    0    0    0 -0.00000000000E+00 -0.00000000000E+00 -0.45593999997E+02  0.45594000000E+02  0.51100000000E-03 0.  1.
    9900012    2    1    2    0    0 -0.12827075004E+02 -0.31200098293E+01  0.41344350139E+02  0.47787267254E+02  0.19999982716E+02 0.  0.
        -12    1    1    2    0    0  0.12827075004E+02  0.31200098293E+01 -0.41344350139E+02  0.43400732746E+02  0.00000000000E+00 0.  1.
         11    1    3    3    0    0  0.17558435275E+01  0.96047003125E+00  0.13020548484E+02  0.13173464702E+02  0.51100000000E-03 0. -1.
        -11    1    3    3    0    0 -0.37157106285E+01 -0.69725288586E+01  0.72297776278E+01  0.10709451385E+02  0.51100000000E-03 0.  1.
         12    1    3    3    0    0 -0.10867207903E+02  0.28920489981E+01  0.21094024027E+02  0.23904351166E+02  0.00000000000E+00 0. -1.
</event>
<event>
 7    1  0.2110035E-010  0.4778727E+02  0.7816164E-02  0.1312668E+00
        -11   -1    0    0    0    0  0.00000000000E+00  0.00000000000E+00  0.45593999997E+02  0.45594000000E+02  0.51100000000E-03 0. -1.
         11   -1    0    0    0    0 -0.00000000000E+00 -0.00000000000E+00 -0.45593999997E+02  0.45594000000E+02  0.51100000000E-03 0.  1.
    9900012    2    1    2    0    0 -0.28043470697E+02  0.32977707421E+02  0.31077108932E+01  0.47787270715E+02  0.19999998498E+02 0.  0.
        -12    1    1    2    0    0  0.28043470697E+02 -0.32977707421E+02 -0.31077108932E+01  0.43400729285E+02  0.00000000000E+00 0.  1.
         11    1    3    3    0    0 -0.15288922238E+02  0.97963905361E+01 -0.40140019577E+01  0.18596575564E+02  0.51100000000E-03 0. -1.
        -11    1    3    3    0    0 -0.12233830803E+02  0.20906040063E+02  0.29381269028E+01  0.24400035188E+02  0.51100000000E-03 0.  1.
        -12    1    3    3    0    0 -0.52071765603E+00  0.22752768220E+01  0.41835859480E+01  0.47906599628E+01  0.00000000000E+00 0.  1.
</event>
<event>
 7    1  0.2110035E-010  0.4778727E+02  0.7816164E-02  0.1312668E+00
        -11   -1    0    0    0    0  0.00000000000E+00  0.00000000000E+00  0.45593999997E+02  0.45594000000E+02  0.51100000000E-03 0.  1.
         11   -1    0    0    0    0 -0.00000000000E+00 -0.00000000000E+00 -0.45593999997E+02  0.45594000000E+02  0.51100000000E-03 0. -1.
    9900012    2    1    2    0    0 -0.11689941571E+02  0.40654043128E+01 -0.41598571409E+02  0.47787269713E+02  0.19999993931E+02 0.  0.
        -12    1    1    2    0    0  0.11689941571E+02 -0.40654043128E+01  0.41598571409E+02  0.43400730287E+02  0.00000000000E+00 0.  1.
         11    1    3    3    0    0 -0.34035361067E+01  0.51804705518E+01 -0.11556353401E+02  0.13113757561E+02  0.51100000000E-03 0. -1.
        -11    1    3    3    0    0  0.65504125605E-01 -0.58314232043E+01 -0.44280614603E+01  0.73223982366E+01  0.51100000000E-03 0.  1.
        -12    1    3    3    0    0 -0.83519095896E+01  0.47163569653E+01 -0.25614156547E+02  0.27351113916E+02  0.00000000000E+00 0.  1.
</event>
<event>
 7    1  0.2110035E-010  0.4778727E+02  0.7816164E-02  0.1312668E+00
        -11   -1    0    0    0    0  0.00000000000E+00  0.00000000000E+00  0.45593999997E+02  0.45594000000E+02  0.51100000000E-03 0.  1.
         11   -1    0    0    0    0 -0.00000000000E+00 -0.00000000000E+00 -0.45593999997E+02  0.45594000000E+02  0.51100000000E-03 0. -1.
    9900012    2    1    2    0    0 -0.28300330310E+02  0.36995131858E+01 -0.32695995922E+02  0.47787271402E+02  0.20000001631E+02 0.  0.
        -12    1    1    2    0    0  0.28300330310E+02 -0.36995131858E+01  0.32695995922E+02  0.43400728598E+02  0.00000000000E+00 0.  1.
         11    1    3    3    0    0 -0.96998156044E+01  0.43403836756E+01 -0.73624131725E+01  0.12927895467E+02  0.51100000000E-03 0. -1.
        -11    1    3    3    0    0 -0.83668656598E+01  0.57380663080E+00 -0.22733297901E+02  0.24230900288E+02  0.51100000000E-03 0.  1.
        -12    1    3    3    0    0 -0.10233649046E+02 -0.12146771207E+01 -0.26002848486E+01  0.10628475648E+02  0.00000000000E+00 0.  1.
</event>
<event>
 7    1  0.2110035E-010  0.4778727E+02  0.7816164E-02  0.1312668E+00
        -11   -1    0    0    0    0  0.00000000000E+00  0.00000000000E+00  0.45593999997E+02  0.45594000000E+02  0.51100000000E-03 0.  1.
         11   -1    0    0    0    0 -0.00000000000E+00 -0.00000000000E+00 -0.45593999997E+02  0.45594000000E+02  0.51100000000E-03 0. -1.
    9900012    2    1    2    0    0 -0.90640631802E+01 -0.22448806221E+02 -0.36021066276E+02  0.47787270078E+02  0.19999995593E+02 0.  0.
        -12    1    1    2    0    0  0.90640631802E+01  0.22448806221E+02  0.36021066276E+02  0.43400729922E+02  0.00000000000E+00 0.  1.
         11    1    3    3    0    0 -0.46966254411E+01  0.14192019864E+00 -0.11394252189E+02  0.12325072620E+02  0.51100000000E-03 0. -1.
        -11    1    3    3    0    0 -0.53230507752E+01 -0.15573294671E+02 -0.22850923474E+02  0.28160736502E+02  0.51100000000E-03 0.  1.
        -12    1    3    3    0    0  0.95561303615E+00 -0.70174317488E+01 -0.17758906139E+01  0.73014609563E+01  0.00000000000E+00 0.  1.
</event>
<event>
 7    1  0.2110035E-010  0.4778727E+02  0.7816164E-02  0.1312668E+00
        -11   -1    0    0    0    0  0.00000000000E+00  0.00000000000E+00  0.45593999997E+02  0.45594000000E+02  0.51100000000E-03 0. -1.
         11   -1    0    0    0    0 -0.00000000000E+00 -0.00000000000E+00 -0.45593999997E+02  0.45594000000E+02  0.51100000000E-03 0.  1.
    9900012    2    1    2    0    0 -0.28400039092E+02  0.32818590137E+02 -0.34747650492E-01  0.47787270900E+02  0.19999999342E+02 0.  0.
        -12    1    1    2    0    0  0.28400039092E+02 -0.32818590137E+02  0.34747650492E-01  0.43400729100E+02  0.00000000000E+00 0.  1.
         11    1    3    3    0    0  0.64331450330E+00 -0.74183778485E+00  0.24928404950E+00  0.10130743544E+01  0.51100000000E-03 0.  1.
        -11    1    3    3    0    0 -0.25347578856E+02  0.31917856822E+02  0.39127899795E+01  0.40945808865E+02  0.51100000000E-03 0. -1.
         12    1    3    3    0    0 -0.36957747397E+01  0.16425710998E+01 -0.41968216794E+01  0.58283876804E+01  0.00000000000E+00 0. -1.
</event>
<event>
 7    1  0.2110035E-010  0.4778727E+02  0.7816164E-02  0.1312668E+00
        -11   -1    0    0    0    0  0.00000000000E+00  0.00000000000E+00  0.45593999997E+02  0.45594000000E+02  0.51100000000E-03 0.  1.
         11   -1    0    0    0    0 -0.00000000000E+00 -0.00000000000E+00 -0.45593999997E+02  0.45594000000E+02  0.51100000000E-03 0. -1.
    9900012    2    1    2    0    0 -0.27027805426E+02  0.33926865855E+02 -0.14452855330E+01  0.47787270246E+02  0.19999996359E+02 0.  0.
        -12    1    1    2    0    0  0.27027805426E+02 -0.33926865855E+02  0.14452855330E+01  0.43400729754E+02  0.00000000000E+00 0.  1.
         11    1    3    3    0    0 -0.15348916241E+01  0.98076586569E+01 -0.23867926872E+01  0.10209938306E+02  0.51100000000E-03 0. -1.
        -11    1    3    3    0    0 -0.10836253072E+02  0.20951126244E+01  0.13483393026E+01  0.11118988114E+02  0.51100000000E-03 0.  1.
        -12    1    3    3    0    0 -0.14656660730E+02  0.22024094574E+02 -0.40683214833E+00  0.26458343825E+02  0.00000000000E+00 0.  1.
</event>
<event>
 7    1  0.2110035E-010  0.4778726E+02  0.7816164E-02  0.1312668E+00
        -11   -1    0    0    0    0  0.00000000000E+00  0.00000000000E+00  0.45593999997E+02  0.45594000000E+02  0.51100000000E-03 0.  1.
         11   -1    0    0    0    0 -0.00000000000E+00 -0.00000000000E+00 -0.45593999997E+02  0.45594000000E+02  0.51100000000E-03 0. -1.
    9900012    2    1    2    0    0  0.43611874004E+01  0.37322251311E+02 -0.21717584128E+02  0.47787264306E+02  0.19999969274E+02 0.  0.
        -12    1    1    2    0    0 -0.43611874004E+01 -0.37322251311E+02  0.21717584128E+02  0.43400735694E+02  0.00000000000E+00 0.  1.
         11    1    3    3    0    0  0.12365605196E+01  0.13918563296E+02 -0.18068192524E+02  0.22841082888E+02  0.51100000000E-03 0. -1.
        -11    1    3    3    0    0  0.40117785299E+01  0.58032712100E+01 -0.10738306347E+01  0.71362060091E+01  0.51100000000E-03 0.  1.
         12    1    3    3    0    0 -0.88715164915E+00  0.17600416805E+02 -0.25755609698E+01  0.17809975409E+02  0.00000000000E+00 0. -1.
</event>
<event>
 7    1  0.2110035E-010  0.4778727E+02  0.7816164E-02  0.1312668E+00
        -11   -1    0    0    0    0  0.00000000000E+00  0.00000000000E+00  0.45593999997E+02  0.45594000000E+02  0.51100000000E-03 0. -1.
         11   -1    0    0    0    0 -0.00000000000E+00 -0.00000000000E+00 -0.45593999997E+02  0.45594000000E+02  0.51100000000E-03 0.  1.
    9900012    2    1    2    0    0  0.25362800108E+02 -0.10455669357E+02  0.33630797723E+02  0.47787271821E+02  0.20000003541E+02 0.  0.
        -12    1    1    2    0    0 -0.25362800108E+02  0.10455669357E+02 -0.33630797723E+02  0.43400728179E+02  0.00000000000E+00 0.  1.
         11    1    3    3    0    0  0.13451219939E+02 -0.54226080557E+01  0.22157108891E+02  0.26481644033E+02  0.51100000000E-03 0. -1.
        -11    1    3    3    0    0  0.13965633371E+02 -0.18263207017E+01  0.82990480454E+01  0.16347738727E+02  0.51100000000E-03 0.  1.
         12    1    3    3    0    0 -0.20540532024E+01 -0.32067405995E+01  0.31746407858E+01  0.49578890619E+01  0.00000000000E+00 0. -1.
</event>
<event>
 7    1  0.2110035E-010  0.4778727E+02  0.7816164E-02  0.1312668E+00
        -11   -1    0    0    0    0  0.00000000000E+00  0.00000000000E+00  0.45593999997E+02  0.45594000000E+02  0.51100000000E-03 0.  1.
         11   -1    0    0    0    0 -0.00000000000E+00 -0.00000000000E+00 -0.45593999997E+02  0.45594000000E+02  0.51100000000E-03 0. -1.
    9900012    2    1    2    0    0  0.33881441297E+02 -0.38442215550E+01 -0.26849454902E+02  0.47787270372E+02  0.19999996934E+02 0.  0.
        -12    1    1    2    0    0 -0.33881441297E+02  0.38442215550E+01  0.26849454902E+02  0.43400729628E+02  0.00000000000E+00 0.  1.
         11    1    3    3    0    0  0.13119766009E+02 -0.39390061546E+01 -0.85505803705E+01  0.16147955120E+02  0.51100000000E-03 0. -1.
        -11    1    3    3    0    0  0.10300653032E+02 -0.72724450259E+01 -0.62874174297E+01  0.14089837747E+02  0.51100000000E-03 0.  1.
         12    1    3    3    0    0  0.10461022256E+02  0.73672296256E+01 -0.12011457102E+02  0.17549477505E+02  0.00000000000E+00 0. -1.
</event>
<event>
 7    1  0.2110035E-010  0.4778728E+02  0.7816164E-02  0.1312668E+00
        -11   -1    0    0    0    0  0.00000000000E+00  0.00000000000E+00  0.45593999997E+02  0.45594000000E+02  0.51100000000E-03 0.  1.
         11   -1    0    0    0    0 -0.00000000000E+00 -0.00000000000E+00 -0.45593999997E+02  0.45594000000E+02  0.51100000000E-03 0. -1.
    9900012    2    1    2    0    0 -0.12296734611E+02  0.36449592659E+02 -0.20095770933E+02  0.47787280000E+02  0.20000040834E+02 0.  0.
        -12    1    1    2    0    0  0.12296734611E+02 -0.36449592659E+02  0.20095770933E+02  0.43400720000E+02  0.00000000000E+00 0.  1.
         11    1    3    3    0    0  0.36459794609E+01  0.50893154922E+01 -0.12217213176E+01  0.63786285083E+01  0.51100000000E-03 0. -1.
        -11    1    3    3    0    0 -0.75296339140E+01  0.83263561916E+01 -0.14341392927E+01  0.11317258947E+02  0.51100000000E-03 0.  1.
         12    1    3    3    0    0 -0.84130801576E+01  0.23033920975E+02 -0.17439910322E+02  0.30091392545E+02  0.00000000000E+00 0. -1.
</event>
<event>
 7    1  0.2110035E-010  0.4778727E+02  0.7816164E-02  0.1312668E+00
        -11   -1    0    0    0    0  0.00000000000E+00  0.00000000000E+00  0.45593999997E+02  0.45594000000E+02  0.51100000000E-03 0.  1.
         11   -1    0    0    0    0 -0.00000000000E+00 -0.00000000000E+00 -0.45593999997E+02  0.45594000000E+02  0.51100000000E-03 0. -1.
    9900012    2    1    2    0    0 -0.83393617160E+01 -0.26440193642E+02 -0.33391530596E+02  0.47787272942E+02  0.20000008652E+02 0.  0.
        -12    1    1    2    0    0  0.83393617160E+01  0.26440193642E+02  0.33391530596E+02  0.43400727058E+02  0.00000000000E+00 0.  1.
         11    1    3    3    0    0  0.13103014113E+00 -0.66335554387E+00  0.15631077829E+01  0.17030900380E+01  0.51100000000E-03 0.  1.
        -11    1    3    3    0    0 -0.85535686967E+01 -0.20304243534E+02 -0.18585992845E+02  0.28824728503E+02  0.51100000000E-03 0. -1.
         12    1    3    3    0    0  0.83176839560E-01 -0.54725945641E+01 -0.16368645533E+02  0.17259454401E+02  0.00000000000E+00 0. -1.
</event>
<event>
 7    1  0.2110035E-010  0.4778727E+02  0.7816164E-02  0.1312668E+00
        -11   -1    0    0    0    0  0.00000000000E+00  0.00000000000E+00  0.45593999997E+02  0.45594000000E+02  0.51100000000E-03 0.  1.
         11   -1    0    0    0    0 -0.00000000000E+00 -0.00000000000E+00 -0.45593999997E+02  0.45594000000E+02  0.51100000000E-03 0. -1.
    9900012    2    1    2    0    0  0.17149536453E+02  0.34712884332E+02 -0.19609496127E+02  0.47787271002E+02  0.19999999805E+02 0.  0.
        -12    1    1    2    0    0 -0.17149536453E+02 -0.34712884332E+02  0.19609496127E+02  0.43400728998E+02  0.00000000000E+00 0.  1.
         11    1    3    3    0    0  0.22424103252E+01  0.12116156876E+02 -0.52314924923E+01  0.13386492277E+02  0.51100000000E-03 0. -1.
        -11    1    3    3    0    0  0.13349837643E+02  0.12088567098E+02 -0.15443526701E+02  0.23724547136E+02  0.51100000000E-03 0.  1.
        -12    1    3    3    0    0  0.15572884843E+01  0.10508160358E+02  0.10655230660E+01  0.10676231589E+02  0.00000000000E+00 0.  1.
</event>
<event>
 7    1  0.2110035E-010  0.4778727E+02  0.7816164E-02  0.1312668E+00
        -11   -1    0    0    0    0  0.00000000000E+00  0.00000000000E+00  0.45593999997E+02  0.45594000000E+02  0.51100000000E-03 0.  1.
         11   -1    0    0    0    0 -0.00000000000E+00 -0.00000000000E+00 -0.45593999997E+02  0.45594000000E+02  0.51100000000E-03 0. -1.
    9900012    2    1    2    0    0  0.14950367264E+02 -0.29258895308E+02 -0.28355364769E+02  0.47787272504E+02  0.20000006656E+02 0.  0.
        -12    1    1    2    0    0 -0.14950367264E+02  0.29258895308E+02  0.28355364769E+02  0.43400727496E+02  0.00000000000E+00 0.  1.
         11    1    3    3    0    0  0.43578808349E+01 -0.39894018248E+01 -0.14140439930E+02  0.15325093604E+02  0.51100000000E-03 0. -1.
        -11    1    3    3    0    0 -0.14380518923E+01 -0.59902376848E+01 -0.12067194156E+01  0.62775084846E+01  0.51100000000E-03 0.  1.
         12    1    3    3    0    0  0.12030538321E+02 -0.19279255799E+02 -0.13008205422E+02  0.26184670416E+02  0.00000000000E+00 0. -1.
</event>
<event>
 7    1  0.2110035E-010  0.4778727E+02  0.7816164E-02  0.1312668E+00
        -11   -1    0    0    0    0  0.00000000000E+00  0.00000000000E+00  0.45593999997E+02  0.45594000000E+02  0.51100000000E-03 0.  1.
         11   -1    0    0    0    0 -0.00000000000E+00 -0.00000000000E+00 -0.45593999997E+02  0.45594000000E+02  0.51100000000E-03 0. -1.
    9900012    2    1    2    0    0 -0.32219974591E+02 -0.16441034596E+02 -0.23983102242E+02  0.47787267582E+02  0.19999984216E+02 0.  0.
        -12    1    1    2    0    0  0.32219974591E+02  0.16441034596E+02  0.23983102242E+02  0.43400732418E+02  0.00000000000E+00 0.  1.
         11    1    3    3    0    0 -0.34316215850E+01 -0.78258595859E+00 -0.86351761010E+01  0.93249522273E+01  0.51100000000E-03 0. -1.
        -11    1    3    3    0    0 -0.44660641512E+01 -0.13384109055E+01 -0.80608210553E+01  0.93120303426E+01  0.51100000000E-03 0.  1.
        -12    1    3    3    0    0 -0.24322288855E+02 -0.14320037732E+02 -0.72871050854E+01  0.29150285013E+02  0.00000000000E+00 0.  1.
</event>
<event>
 7    1  0.2110035E-010  0.4778727E+02  0.7816164E-02  0.1312668E+00
        -11   -1    0    0    0    0  0.00000000000E+00  0.00000000000E+00  0.45593999997E+02  0.45594000000E+02  0.51100000000E-03 0. -1.
         11   -1    0    0    0    0 -0.00000000000E+00 -0.00000000000E+00 -0.45593999997E+02  0.45594000000E+02  0.51100000000E-03 0.  1.
    9900012    2    1    2    0    0  0.30482616901E+02  0.16922895591E+02 -0.25846642567E+02  0.47787271201E+02  0.20000000715E+02 0.  0.
        -12    1    1    2    0    0 -0.30482616901E+02 -0.16922895591E+02  0.25846642567E+02  0.43400728799E+02  0.00000000000E+00 0.  1.
         11    1    3    3    0    0  0.43714248685E+01  0.39426966551E+01 -0.89039933263E+01  0.10674048422E+02  0.51100000000E-03 0. -1.
        -11    1    3    3    0    0  0.47247698656E+01  0.28110074104E+01  0.29019445412E+01  0.62166305444E+01  0.51100000000E-03 0.  1.
         12    1    3    3    0    0  0.21386422166E+02  0.10169191525E+02 -0.19844593782E+02  0.30896592235E+02  0.00000000000E+00 0. -1.
</event>
<event>
 7    1  0.2110035E-010  0.4778726E+02  0.7816164E-02  0.1312668E+00
        -11   -1    0    0    0    0  0.00000000000E+00  0.00000000000E+00  0.45593999997E+02  0.45594000000E+02  0.51100000000E-03 0.  1.
         11   -1    0    0    0    0 -0.00000000000E+00 -0.00000000000E+00 -0.45593999997E+02  0.45594000000E+02  0.51100000000E-03 0. -1.
    9900012    2    1    2    0    0 -0.29964413859E+02 -0.79186350483E+01 -0.30381786410E+02  0.47787264703E+02  0.19999971085E+02 0.  0.
        -12    1    1    2    0    0  0.29964413859E+02  0.79186350483E+01  0.30381786410E+02  0.43400735297E+02  0.00000000000E+00 0.  1.
         11    1    3    3    0    0 -0.12706290700E+02  0.40974207453E+00 -0.23696901008E+02  0.26891649811E+02  0.51100000000E-03 0. -1.
        -11    1    3    3    0    0 -0.11630172182E+02 -0.48710996324E+01 -0.67252060180E+01  0.14290448309E+02  0.51100000000E-03 0.  1.
        -12    1    3    3    0    0 -0.56279509757E+01 -0.34572774904E+01  0.40320616249E-01  0.66051665826E+01  0.00000000000E+00 0.  1.
</event>
<event>
 7    1  0.2110035E-010  0.4778726E+02  0.7816164E-02  0.1312668E+00
        -11   -1    0    0    0    0  0.00000000000E+00  0.00000000000E+00  0.45593999997E+02  0.45594000000E+02  0.51100000000E-03 0.  1.
         11   -1    0    0    0    0 -0.00000000000E+00 -0.00000000000E+00 -0.45593999997E+02  0.45594000000E+02  0.51100000000E-03 0. -1.
    9900012    2    1    2    0    0  0.24977961934E+02  0.23275581682E+01 -0.35416209566E+02  0.47787262570E+02  0.19999961363E+02 0.  0.
        -12    1    1    2    0    0 -0.24977961934E+02 -0.23275581682E+01  0.35416209566E+02  0.43400737430E+02  0.00000000000E+00 0.  1.
         11    1    3    3    0    0  0.42018904304E+01 -0.62149127448E+01 -0.10181315899E+02  0.12646747302E+02  0.51100000000E-03 0. -1.
        -11    1    3    3    0    0  0.49258881081E+01  0.60912317690E+01 -0.48930216044E+01  0.92362946466E+01  0.51100000000E-03 0.  1.
        -12    1    3    3    0    0  0.15850183395E+02  0.24512391439E+01 -0.20341872063E+02  0.25904220622E+02  0.00000000000E+00 0.  1.
</event>
<event>
 7    1  0.2502339E-010  0.4778727E+02  0.7816164E-02  0.1312668E+00
        -11   -1    0    0    0    0  0.00000000000E+00  0.00000000000E+00  0.45593999997E+02  0.45594000000E+02  0.51100000000E-03 0. -1.
         11   -1    0    0    0    0 -0.00000000000E+00 -0.00000000000E+00 -0.45593999997E+02  0.45594000000E+02  0.51100000000E-03 0.  1.
    9900012    2    1    2    0    0 -0.29660993540E+02  0.31666520683E+02 -0.10392407138E+01  0.47787273149E+02  0.20000009595E+02 0.  0.
        -12    1    1    2    0    0  0.29660993540E+02 -0.31666520683E+02  0.10392407138E+01  0.43400726851E+02  0.00000000000E+00 0.  1.
         11    1    3    3    0    0 -0.20202051921E+02  0.20804641738E+02  0.53542457510E+01  0.29489387371E+02  0.51100000000E-03 0. -1.
        -11    1    3    3    0    0 -0.36489377964E+01  0.10669094071E+02 -0.35145826950E+01  0.11810868178E+02  0.51100000000E-03 0.  1.
        -12    1    3    3    0    0 -0.58100038222E+01  0.19278487317E+00 -0.28789037698E+01  0.64870175996E+01  0.00000000000E+00 0.  1.
</event>
<event>
 7    1  0.2110035E-010  0.4778727E+02  0.7816164E-02  0.1312668E+00
        -11   -1    0    0    0    0  0.00000000000E+00  0.00000000000E+00  0.45593999997E+02  0.45594000000E+02  0.51100000000E-03 0. -1.
         11   -1    0    0    0    0 -0.00000000000E+00 -0.00000000000E+00 -0.45593999997E+02  0.45594000000E+02  0.51100000000E-03 0.  1.
    9900012    2    1    2    0    0 -0.14456205512E+02  0.27791013049E+02  0.30038321151E+02  0.47787273950E+02  0.20000013248E+02 0.  0.
        -12    1    1    2    0    0  0.14456205512E+02 -0.27791013049E+02 -0.30038321151E+02  0.43400726050E+02  0.00000000000E+00 0.  1.
         11    1    3    3    0    0 -0.27549248722E+01  0.35896000836E+01  0.20395296442E+01  0.49633175642E+01  0.51100000000E-03 0. -1.
        -11    1    3    3    0    0 -0.12168870530E+02  0.97977190242E+01  0.64538657886E+01  0.16903523063E+02  0.51100000000E-03 0.  1.
         12    1    3    3    0    0  0.46758989030E+00  0.14403693941E+02  0.21544925718E+02  0.25920433323E+02  0.00000000000E+00 0. -1.
</event>
<event>
 7    1  0.2110035E-010  0.4778727E+02  0.7816164E-02  0.1312668E+00
        -11   -1    0    0    0    0  0.00000000000E+00  0.00000000000E+00  0.45593999997E+02  0.45594000000E+02  0.51100000000E-03 0. -1.
         11   -1    0    0    0    0 -0.00000000000E+00 -0.00000000000E+00 -0.45593999997E+02  0.45594000000E+02  0.51100000000E-03 0.  1.
    9900012    2    1    2    0    0  0.39193863732E+02  0.87048282559E+01  0.16483031502E+02  0.47787270550E+02  0.19999997748E+02 0.  0.
        -12    1    1    2    0    0 -0.39193863732E+02 -0.87048282559E+01 -0.16483031502E+02  0.43400729450E+02  0.00000000000E+00 0.  1.
         11    1    3    3    0    0  0.24468756041E+02  0.52356673277E+00  0.56793019747E+01  0.25124661500E+02  0.51100000000E-03 0. -1.
        -11    1    3    3    0    0  0.50870609283E+01  0.52322217636E+01 -0.74342624461E+00  0.73353265990E+01  0.51100000000E-03 0.  1.
        -12    1    3    3    0    0  0.96380467635E+01  0.29490397596E+01  0.11547155772E+02  0.15327282452E+02  0.00000000000E+00 0.  1.
</event>
<event>
 7    1  0.2110035E-010  0.4778727E+02  0.7816164E-02  0.1312668E+00
        -11   -1    0    0    0    0  0.00000000000E+00  0.00000000000E+00  0.45593999997E+02  0.45594000000E+02  0.51100000000E-03 0.  1.
         11   -1    0    0    0    0 -0.00000000000E+00 -0.00000000000E+00 -0.45593999997E+02  0.45594000000E+02  0.51100000000E-03 0. -1.
    9900012    2    1    2    0    0  0.41275471698E+02  0.12834711535E+02  0.39024239152E+01  0.47787270784E+02  0.19999998814E+02 0.  0.
        -12    1    1    2    0    0 -0.41275471698E+02 -0.12834711535E+02 -0.39024239152E+01  0.43400729216E+02  0.00000000000E+00 0.  1.
         11    1    3    3    0    0  0.19422854592E+02  0.68921487867E+01  0.10713127176E+02  0.23227571753E+02  0.51100000000E-03 0. -1.
        -11    1    3    3    0    0  0.18957106296E+01  0.16972924867E+01  0.96987459404E+00  0.27230823649E+01  0.51100000000E-03 0.  1.
         12    1    3    3    0    0  0.19956906476E+02  0.42452702615E+01 -0.77805778546E+01  0.21836616666E+02  0.00000000000E+00 0. -1.
</event>
<event>
 7    1  0.2110035E-010  0.4778727E+02  0.7816164E-02  0.1312668E+00
        -11   -1    0    0    0    0  0.00000000000E+00  0.00000000000E+00  0.45593999997E+02  0.45594000000E+02  0.51100000000E-03 0.  1.
         11   -1    0    0    0    0 -0.00000000000E+00 -0.00000000000E+00 -0.45593999997E+02  0.45594000000E+02  0.51100000000E-03 0. -1.
    9900012    2    1    2    0    0  0.22199100634E+02  0.18127673422E+02 -0.32591578609E+02  0.47787267185E+02  0.19999982404E+02 0.  0.
        -12    1    1    2    0    0 -0.22199100634E+02 -0.18127673422E+02  0.32591578609E+02  0.43400732815E+02  0.00000000000E+00 0.  1.
         11    1    3    3    0    0  0.79433046094E+01  0.97823514146E+01 -0.17994192405E+02  0.21967736522E+02  0.51100000000E-03 0. -1.
        -11    1    3    3    0    0  0.36758031464E+01  0.96499684750E+01 -0.93823971373E+01  0.13952161003E+02  0.51100000000E-03 0.  1.
        -12    1    3    3    0    0  0.10579992878E+02 -0.13046464681E+01 -0.52149890667E+01  0.11867369661E+02  0.00000000000E+00 0.  1.
</event>
<event>
 7    1  0.2110035E-010  0.4778727E+02  0.7816164E-02  0.1312668E+00
        -11   -1    0    0    0    0  0.00000000000E+00  0.00000000000E+00  0.45593999997E+02  0.45594000000E+02  0.51100000000E-03 0. -1.
         11   -1    0    0    0    0 -0.00000000000E+00 -0.00000000000E+00 -0.45593999997E+02  0.45594000000E+02  0.51100000000E-03 0.  1.
    9900012    2    1    2    0    0  0.24504894437E+02 -0.28204399068E+02  0.22082695897E+02  0.47787269173E+02  0.19999991469E+02 0.  0.
        -12    1    1    2    0    0 -0.24504894437E+02  0.28204399068E+02 -0.22082695897E+02  0.43400730827E+02  0.00000000000E+00 0.  1.
         11    1    3    3    0    0  0.11355515692E+02 -0.64684979102E+01  0.28234629601E+01  0.13370158757E+02  0.51100000000E-03 0.  1.
        -11    1    3    3    0    0  0.13628182335E+02 -0.14096910452E+02  0.18083661985E+02  0.26673377535E+02  0.51100000000E-03 0. -1.
         12    1    3    3    0    0 -0.47880358896E+00 -0.76389907059E+01  0.11755709519E+01  0.77437328818E+01  0.00000000000E+00 0. -1.
</event>
<event>
 7    1  0.2110035E-010  0.4778728E+02  0.7816164E-02  0.1312668E+00
        -11   -1    0    0    0    0  0.00000000000E+00  0.00000000000E+00  0.45593999997E+02  0.45594000000E+02  0.51100000000E-03 0. -1.
         11   -1    0    0    0    0 -0.00000000000E+00 -0.00000000000E+00 -0.45593999997E+02  0.45594000000E+02  0.51100000000E-03 0.  1.
    9900012    2    1    2    0    0 -0.39779885982E+02  0.62669155925E+01  0.16183609707E+02  0.47787276701E+02  0.20000025789E+02 0.  0.
        -12    1    1    2    0    0  0.39779885982E+02 -0.62669155925E+01 -0.16183609707E+02  0.43400723299E+02  0.00000000000E+00 0.  1.
         11    1    3    3    0    0 -0.24857655704E+02 -0.21336328624E+00  0.73350390731E+01  0.25918166785E+02  0.51100000000E-03 0. -1.
        -11    1    3    3    0    0 -0.13962888605E+02  0.90229372262E+01  0.93971867817E+01  0.19096669187E+02  0.51100000000E-03 0.  1.
        -12    1    3    3    0    0 -0.95934167248E+00 -0.25426583475E+01 -0.54861614749E+00  0.27724407286E+01  0.00000000000E+00 0.  1.
</event>
<event>
 7    1  0.2110035E-010  0.4778727E+02  0.7816164E-02  0.1312668E+00
        -11   -1    0    0    0    0  0.00000000000E+00  0.00000000000E+00  0.45593999997E+02  0.45594000000E+02  0.51100000000E-03 0.  1.
         11   -1    0    0    0    0 -0.00000000000E+00 -0.00000000000E+00 -0.45593999997E+02  0.45594000000E+02  0.51100000000E-03 0. -1.
    9900012    2    1    2    0    0  0.13002261251E+01 -0.43110558578E+02 -0.48386126078E+01  0.47787273959E+02  0.20000013289E+02 0.  0.
        -12    1    1    2    0    0 -0.13002261251E+01  0.43110558578E+02  0.48386126078E+01  0.43400726041E+02  0.00000000000E+00 0.  1.
         11    1    3    3    0    0  0.40563945017E+01 -0.69934447651E+01 -0.50163489147E+01  0.95145342887E+01  0.51100000000E-03 0. -1.
        -11    1    3    3    0    0 -0.79212185969E+00  0.81608194613E+00  0.59808063335E+00  0.12849698395E+01  0.51100000000E-03 0.  1.
        -12    1    3    3    0    0 -0.19640465169E+01 -0.36933195759E+02 -0.42034432638E+00  0.36987769831E+02  0.00000000000E+00 0.  1.
</event>
<event>
 7    1  0.2110035E-010  0.4778727E+02  0.7816164E-02  0.1312668E+00
        -11   -1    0    0    0    0  0.00000000000E+00  0.00000000000E+00  0.45593999997E+02  0.45594000000E+02  0.51100000000E-03 0. -1.
         11   -1    0    0    0    0 -0.00000000000E+00 -0.00000000000E+00 -0.45593999997E+02  0.45594000000E+02  0.51100000000E-03 0.  1.
    9900012    2    1    2    0    0 -0.95507286187E+01  0.40327218541E+02 -0.12888841713E+02  0.47787271745E+02  0.20000003193E+02 0.  0.
        -12    1    1    2    0    0  0.95507286187E+01 -0.40327218541E+02  0.12888841713E+02  0.43400728255E+02  0.00000000000E+00 0.  1.
         11    1    3    3    0    0 -0.45639526436E+01  0.63234725844E+01 -0.72144200108E+00  0.78317589391E+01  0.51100000000E-03 0. -1.
        -11    1    3    3    0    0 -0.14025557419E+01  0.53465384428E+01 -0.94495254335E+01  0.10947427420E+02  0.51100000000E-03 0.  1.
        -12    1    3    3    0    0 -0.35842202332E+01  0.28657207514E+02 -0.27178742788E+01  0.29008085386E+02  0.00000000000E+00 0.  1.
</event>
<event>
 7    1  0.2206786E-010  0.4778727E+02  0.7816164E-02  0.1312668E+00
        -11   -1    0    0    0    0  0.00000000000E+00  0.00000000000E+00  0.45593999997E+02  0.45594000000E+02  0.51100000000E-03 0. -1.
         11   -1    0    0    0    0 -0.00000000000E+00 -0.00000000000E+00 -0.45593999997E+02  0.45594000000E+02  0.51100000000E-03 0.  1.
    9900012    2    1    2    0    0  0.45228926412E+01 -0.42430368918E+02  0.79265804283E+01  0.47787269112E+02  0.19999991188E+02 0.  0.
        -12    1    1    2    0    0 -0.45228926412E+01  0.42430368918E+02 -0.79265804283E+01  0.43400730888E+02  0.00000000000E+00 0.  1.
         11    1    3    3    0    0 -0.70027313678E+00 -0.32436714446E+02  0.14322917235E+01  0.32475872373E+02  0.51100000000E-03 0. -1.
        -11    1    3    3    0    0  0.52778880934E+01 -0.35382437449E+01  0.29472917189E+00  0.63609855424E+01  0.51100000000E-03 0.  1.
        -12    1    3    3    0    0 -0.54722315367E-01 -0.64554107265E+01  0.61995595329E+01  0.89504111963E+01  0.00000000000E+00 0.  1.
</event>
<event>
 7    1  0.2110035E-010  0.4778728E+02  0.7816164E-02  0.1312668E+00
        -11   -1    0    0    0    0  0.00000000000E+00  0.00000000000E+00  0.45593999997E+02  0.45594000000E+02  0.51100000000E-03 0.  1.
         11   -1    0    0    0    0 -0.00000000000E+00 -0.00000000000E+00 -0.45593999997E+02  0.45594000000E+02  0.51100000000E-03 0. -1.
    9900012    2    1    2    0    0  0.47500191558E+01  0.41558982916E+02 -0.11571992389E+02  0.47787277070E+02  0.20000027472E+02 0.  0.
        -12    1    1    2    0    0 -0.47500191558E+01 -0.41558982916E+02  0.11571992389E+02  0.43400722930E+02  0.00000000000E+00 0.  1.
         11    1    3    3    0    0 -0.19000428714E+01  0.18076021420E+02 -0.67040508612E+01  0.19372584018E+02  0.51100000000E-03 0. -1.
        -11    1    3    3    0    0  0.25616049207E+00  0.93368412945E+01 -0.83233122168E+01  0.12510785350E+02  0.51100000000E-03 0.  1.
        -12    1    3    3    0    0  0.63939015351E+01  0.14146120202E+02  0.34553706895E+01  0.15903907702E+02  0.00000000000E+00 0.  1.
</event>
<event>
 7    1  0.3010797E-010  0.4778727E+02  0.7816164E-02  0.1312668E+00
        -11   -1    0    0    0    0  0.00000000000E+00  0.00000000000E+00  0.45593999997E+02  0.45594000000E+02  0.51100000000E-03 0.  1.
         11   -1    0    0    0    0 -0.00000000000E+00 -0.00000000000E+00 -0.45593999997E+02  0.45594000000E+02  0.51100000000E-03 0. -1.
    9900012    2    1    2    0    0  0.42058017600E+02  0.10584809123E+02 -0.16456564074E+01  0.47787271739E+02  0.20000003165E+02 0.  0.
        -12    1    1    2    0    0 -0.42058017600E+02 -0.10584809123E+02  0.16456564074E+01  0.43400728261E+02  0.00000000000E+00 0.  1.
         11    1    3    3    0    0  0.27062363095E+02  0.10529109257E+02  0.95004513836E+00  0.29054022511E+02  0.51100000000E-03 0. -1.
        -11    1    3    3    0    0  0.50229271486E+01 -0.56908330696E+00  0.42637522674E+01  0.66131109631E+01  0.51100000000E-03 0.  1.
        -12    1    3    3    0    0  0.99727273568E+01  0.62478317259E+00 -0.68594538131E+01  0.12120138265E+02  0.00000000000E+00 0.  1.
</event>
<event>
 7    1  0.2110035E-010  0.4778727E+02  0.7816164E-02  0.1312668E+00
        -11   -1    0    0    0    0  0.00000000000E+00  0.00000000000E+00  0.45593999997E+02  0.45594000000E+02  0.51100000000E-03 0.  1.
         11   -1    0    0    0    0 -0.00000000000E+00 -0.00000000000E+00 -0.45593999997E+02  0.45594000000E+02  0.51100000000E-03 0. -1.
    9900012    2    1    2    0    0  0.22941279050E+01 -0.42670692077E+02 -0.75876451878E+01  0.47787270229E+02  0.19999996280E+02 0.  0.
        -12    1    1    2    0    0 -0.22941279050E+01  0.42670692077E+02  0.75876451878E+01  0.43400729771E+02  0.00000000000E+00 0.  1.
         11    1    3    3    0    0 -0.11168246028E+01 -0.87955929922E+01 -0.21215663862E+01  0.91165123523E+01  0.51100000000E-03 0. -1.
        -11    1    3    3    0    0 -0.70776283174E+01 -0.13238027882E+02 -0.64837275587E+00  0.15025265133E+02  0.51100000000E-03 0.  1.
         12    1    3    3    0    0  0.10488580825E+02 -0.20637071203E+02 -0.48177060458E+01  0.23645492744E+02  0.00000000000E+00 0. -1.
</event>
<event>
 7    1  0.2341630E-010  0.4778727E+02  0.7816164E-02  0.1312668E+00
        -11   -1    0    0    0    0  0.00000000000E+00  0.00000000000E+00  0.45593999997E+02  0.45594000000E+02  0.51100000000E-03 0.  1.
         11   -1    0    0    0    0 -0.00000000000E+00 -0.00000000000E+00 -0.45593999997E+02  0.45594000000E+02  0.51100000000E-03 0. -1.
    9900012    2    1    2    0    0 -0.82248173526E+01  0.35334570576E+02 -0.23821080677E+02  0.47787269789E+02  0.19999994274E+02 0.  0.
        -12    1    1    2    0    0  0.82248173526E+01 -0.35334570576E+02  0.23821080677E+02  0.43400730211E+02  0.00000000000E+00 0.  1.
         11    1    3    3    0    0 -0.57341229399E+01  0.13593961744E+02 -0.65061563819E+01  0.16124702568E+02  0.51100000000E-03 0. -1.
        -11    1    3    3    0    0 -0.65744302624E+00  0.13190155589E+02 -0.18612689506E+02  0.22822021092E+02  0.51100000000E-03 0.  1.
        -12    1    3    3    0    0 -0.18332513864E+01  0.85504532430E+01  0.12977652116E+01  0.88405461286E+01  0.00000000000E+00 0.  1.
</event>
<event>
 7    1  0.2110035E-010  0.4778730E+02  0.7816164E-02  0.1312668E+00
        -11   -1    0    0    0    0  0.00000000000E+00  0.00000000000E+00  0.45593999997E+02  0.45594000000E+02  0.51100000000E-03 0. -1.
         11   -1    0    0    0    0 -0.00000000000E+00 -0.00000000000E+00 -0.45593999997E+02  0.45594000000E+02  0.51100000000E-03 0.  1.
    9900012    2    1    2    0    0  0.15248731537E+02 -0.20339248060E+02  0.35176869610E+02  0.47787297464E+02  0.20000120455E+02 0.  0.
        -12    1    1    2    0    0 -0.15248731537E+02  0.20339248060E+02 -0.35176869610E+02  0.43400702536E+02  0.00000000000E+00 0.  1.
         11    1    3    3    0    0  0.12444476041E+02 -0.14107540965E+02  0.15611449148E+02  0.24445961645E+02  0.51100000000E-03 0. -1.
        -11    1    3    3    0    0  0.45152507475E+00  0.25267098981E+01  0.11471756935E+01  0.28114320435E+01  0.51100000000E-03 0.  1.
        -12    1    3    3    0    0  0.23527304211E+01 -0.87584169931E+01  0.18418244768E+02  0.20529903775E+02  0.00000000000E+00 0.  1.
</event>
<event>
 7    1  0.2388582E-010  0.4778728E+02  0.7816164E-02  0.1312668E+00
        -11   -1    0    0    0    0  0.00000000000E+00  0.00000000000E+00  0.45593999997E+02  0.45594000000E+02  0.51100000000E-03 0. -1.
         11   -1    0    0    0    0 -0.00000000000E+00 -0.00000000000E+00 -0.45593999997E+02  0.45594000000E+02  0.51100000000E-03 0.  1.
    9900012    2    1    2    0    0 -0.30666480714E+02 -0.30671127947E+02  0.15721482182E+01  0.47787276747E+02  0.20000025999E+02 0.  0.
        -12    1    1    2    0    0  0.30666480714E+02  0.30671127947E+02 -0.15721482182E+01  0.43400723253E+02  0.00000000000E+00 0.  1.
         11    1    3    3    0    0 -0.12936210108E+02 -0.16809266994E+02 -0.16058318790E+01  0.21271475857E+02  0.51100000000E-03 0. -1.
        -11    1    3    3    0    0 -0.16767704525E+02 -0.11278273544E+02  0.73602893824E+01  0.21506492723E+02  0.51100000000E-03 0.  1.
        -12    1    3    3    0    0 -0.96256608020E+00 -0.25835874095E+01 -0.41823092852E+01  0.50093081676E+01  0.00000000000E+00 0.  1.
</event>
<event>
 7    1  0.2110035E-010  0.4778729E+02  0.7816164E-02  0.1312668E+00
        -11   -1    0    0    0    0  0.00000000000E+00  0.00000000000E+00  0.45593999997E+02  0.45594000000E+02  0.51100000000E-03 0.  1.
         11   -1    0    0    0    0 -0.00000000000E+00 -0.00000000000E+00 -0.45593999997E+02  0.45594000000E+02  0.51100000000E-03 0. -1.
    9900012    2    1    2    0    0  0.76638210444E+01 -0.40153607948E+02 -0.14579958365E+02  0.47787290672E+02  0.20000089489E+02 0.  0.
        -12    1    1    2    0    0 -0.76638210444E+01  0.40153607948E+02  0.14579958365E+02  0.43400709328E+02  0.00000000000E+00 0.  1.
         11    1    3    3    0    0  0.40994371639E+01 -0.21327740286E+02 -0.11774997288E+02  0.24704826495E+02  0.51100000000E-03 0. -1.
        -11    1    3    3    0    0 -0.30799348273E+01 -0.14224116701E+02 -0.82465541009E-01  0.14553978675E+02  0.51100000000E-03 0.  1.
        -12    1    3    3    0    0  0.66443187078E+01 -0.46017509620E+01 -0.27224955362E+01  0.85284855016E+01  0.00000000000E+00 0.  1.
</event>
<event>
 7    1  0.2110035E-010  0.4778728E+02  0.7816164E-02  0.1312668E+00
        -11   -1    0    0    0    0  0.00000000000E+00  0.00000000000E+00  0.45593999997E+02  0.45594000000E+02  0.51100000000E-03 0.  1.
         11   -1    0    0    0    0 -0.00000000000E+00 -0.00000000000E+00 -0.45593999997E+02  0.45594000000E+02  0.51100000000E-03 0. -1.
    9900012    2    1    2    0    0 -0.52220131142E+01 -0.20800489850E+01 -0.43035181576E+02  0.47787275605E+02  0.20000020792E+02 0.  0.
        -12    1    1    2    0    0  0.52220131142E+01  0.20800489850E+01  0.43035181576E+02  0.43400724395E+02  0.00000000000E+00 0.  1.
         11    1    3    3    0    0 -0.73205384027E+01 -0.12366674199E+01 -0.36519207053E+02  0.37266232877E+02  0.51100000000E-03 0. -1.
        -11    1    3    3    0    0 -0.14395187564E+01  0.24174540202E+01 -0.56756498703E+00  0.28702662708E+01  0.51100000000E-03 0.  1.
        -12    1    3    3    0    0  0.35380440449E+01 -0.32608355853E+01 -0.59484095359E+01  0.76507764564E+01  0.00000000000E+00 0.  1.
</event>
<event>
 7    1  0.2110035E-010  0.4778727E+02  0.7816164E-02  0.1312668E+00
        -11   -1    0    0    0    0  0.00000000000E+00  0.00000000000E+00  0.45593999997E+02  0.45594000000E+02  0.51100000000E-03 0.  1.
         11   -1    0    0    0    0 -0.00000000000E+00 -0.00000000000E+00 -0.45593999997E+02  0.45594000000E+02  0.51100000000E-03 0. -1.
    9900012    2    1    2    0    0  0.31123548030E+01 -0.36126968147E+02  0.23849081307E+02  0.47787271215E+02  0.20000000776E+02 0.  0.
        -12    1    1    2    0    0 -0.31123548030E+01  0.36126968147E+02 -0.23849081307E+02  0.43400728785E+02  0.00000000000E+00 0.  1.
         11    1    3    3    0    0  0.22411530578E+01 -0.19193996773E+01 -0.13486902559E+01  0.32443532202E+01  0.51100000000E-03 0. -1.
        -11    1    3    3    0    0  0.27083442403E+00  0.10593508628E+01 -0.15547135081E+00  0.11044216304E+01  0.51100000000E-03 0.  1.
        -12    1    3    3    0    0  0.60036732115E+00 -0.35266919333E+02  0.25353242914E+02  0.43438496364E+02  0.00000000000E+00 0.  1.
</event>
<event>
 7    1  0.2110035E-010  0.4778727E+02  0.7816164E-02  0.1312668E+00
        -11   -1    0    0    0    0  0.00000000000E+00  0.00000000000E+00  0.45593999997E+02  0.45594000000E+02  0.51100000000E-03 0.  1.
         11   -1    0    0    0    0 -0.00000000000E+00 -0.00000000000E+00 -0.45593999997E+02  0.45594000000E+02  0.51100000000E-03 0. -1.
    9900012    2    1    2    0    0 -0.22427489085E+02  0.22748529983E+02 -0.29379168004E+02  0.47787269641E+02  0.19999993602E+02 0.  0.
        -12    1    1    2    0    0  0.22427489085E+02 -0.22748529983E+02  0.29379168004E+02  0.43400730359E+02  0.00000000000E+00 0.  1.
         11    1    3    3    0    0 -0.92130488446E+01  0.12567783669E+01 -0.86332905628E+01  0.12688320105E+02  0.51100000000E-03 0. -1.
        -11    1    3    3    0    0 -0.58288184012E+01  0.88049709158E+00 -0.73866455421E+01  0.94505519261E+01  0.51100000000E-03 0.  1.
        -12    1    3    3    0    0 -0.73856218393E+01  0.20611254525E+02 -0.13359231899E+02  0.25648397610E+02  0.00000000000E+00 0.  1.
</event>
<event>
 7    1  0.2110035E-010  0.4778727E+02  0.7816164E-02  0.1312668E+00
        -11   -1    0    0    0    0  0.00000000000E+00  0.00000000000E+00  0.45593999997E+02  0.45594000000E+02  0.51100000000E-03 0.  1.
         11   -1    0    0    0    0 -0.00000000000E+00 -0.00000000000E+00 -0.45593999997E+02  0.45594000000E+02  0.51100000000E-03 0. -1.
    9900012    2    1    2    0    0 -0.28588287636E+02 -0.11877300242E+02 -0.30418129189E+02  0.47787273804E+02  0.20000012582E+02 0.  0.
        -12    1    1    2    0    0  0.28588287636E+02  0.11877300242E+02  0.30418129189E+02  0.43400726196E+02  0.00000000000E+00 0.  1.
         11    1    3    3    0    0 -0.10978412710E+01 -0.45275183990E+01 -0.16126504494E+01  0.49299411804E+01  0.51100000000E-03 0. -1.
        -11    1    3    3    0    0 -0.54884230882E+01 -0.36958276600E+01 -0.24671169659E+00  0.66213893564E+01  0.51100000000E-03 0.  1.
         12    1    3    3    0    0 -0.22002023277E+02 -0.36539541830E+01 -0.28558767043E+02  0.36235943267E+02  0.00000000000E+00 0. -1.
</event>
<event>
 7    1  0.2110035E-010  0.4778727E+02  0.7816164E-02  0.1312668E+00
        -11   -1    0    0    0    0  0.00000000000E+00  0.00000000000E+00  0.45593999997E+02  0.45594000000E+02  0.51100000000E-03 0. -1.
         11   -1    0    0    0    0 -0.00000000000E+00 -0.00000000000E+00 -0.45593999997E+02  0.45594000000E+02  0.51100000000E-03 0.  1.
    9900012    2    1    2    0    0  0.28367380084E+02  0.27503401979E+00  0.32845697138E+02  0.47787265939E+02  0.19999976723E+02 0.  0.
        -12    1    1    2    0    0 -0.28367380084E+02 -0.27503401979E+00 -0.32845697138E+02  0.43400734061E+02  0.00000000000E+00 0.  1.
         11    1    3    3    0    0  0.47464891672E+01  0.46766017273E+01  0.55440366414E+01  0.86681085406E+01  0.51100000000E-03 0. -1.
        -11    1    3    3    0    0  0.13210655933E+01 -0.55089257560E+01  0.61920681746E+01  0.83925672965E+01  0.51100000000E-03 0.  1.
         12    1    3    3    0    0  0.22299825324E+02  0.11073580485E+01  0.21109592322E+02  0.30726590102E+02  0.00000000000E+00 0. -1.
</event>
<event>
 7    1  0.2110035E-010  0.4778727E+02  0.7816164E-02  0.1312668E+00
        -11   -1    0    0    0    0  0.00000000000E+00  0.00000000000E+00  0.45593999997E+02  0.45594000000E+02  0.51100000000E-03 0. -1.
         11   -1    0    0    0    0 -0.00000000000E+00 -0.00000000000E+00 -0.45593999997E+02  0.45594000000E+02  0.51100000000E-03 0.  1.
    9900012    2    1    2    0    0  0.20807267802E+02  0.28518000627E+02  0.25246879146E+02  0.47787266599E+02  0.19999979730E+02 0.  0.
        -12    1    1    2    0    0 -0.20807267802E+02 -0.28518000627E+02 -0.25246879146E+02  0.43400733401E+02  0.00000000000E+00 0.  1.
         11    1    3    3    0    0  0.65144028823E+01  0.21071324652E+02  0.18558038030E+02  0.28824276977E+02  0.51100000000E-03 0. -1.
        -11    1    3    3    0    0  0.11844339714E+01  0.60797569307E+00 -0.15452307493E+01  0.20396707101E+01  0.51100000000E-03 0.  1.
         12    1    3    3    0    0  0.13108430949E+02  0.68387002822E+01  0.82340718654E+01  0.16923318911E+02  0.00000000000E+00 0. -1.
</event>
<event>
 7    1  0.2110035E-010  0.4778727E+02  0.7816164E-02  0.1312668E+00
        -11   -1    0    0    0    0  0.00000000000E+00  0.00000000000E+00  0.45593999997E+02  0.45594000000E+02  0.51100000000E-03 0.  1.
         11   -1    0    0    0    0 -0.00000000000E+00 -0.00000000000E+00 -0.45593999997E+02  0.45594000000E+02  0.51100000000E-03 0. -1.
    9900012    2    1    2    0    0 -0.36713227673E+02 -0.88508317439E+01 -0.21387495150E+02  0.47787271233E+02  0.20000000861E+02 0.  0.
        -12    1    1    2    0    0  0.36713227673E+02  0.88508317439E+01  0.21387495150E+02  0.43400728767E+02  0.00000000000E+00 0.  1.
         11    1    3    3    0    0 -0.42399721912E+01  0.45843879553E+01 -0.54223585121E+00  0.62680138072E+01  0.51100000000E-03 0.  1.
        -11    1    3    3    0    0 -0.18788308975E+02 -0.46562316239E+01 -0.86837029894E+01  0.21215271503E+02  0.51100000000E-03 0. -1.
        -12    1    3    3    0    0 -0.13684946506E+02 -0.87789880753E+01 -0.12161556309E+02  0.20303985923E+02  0.00000000000E+00 0.  1.
</event>
<event>
 7    1  0.2110035E-010  0.4778727E+02  0.7816164E-02  0.1312668E+00
        -11   -1    0    0    0    0  0.00000000000E+00  0.00000000000E+00  0.45593999997E+02  0.45594000000E+02  0.51100000000E-03 0.  1.
         11   -1    0    0    0    0 -0.00000000000E+00 -0.00000000000E+00 -0.45593999997E+02  0.45594000000E+02  0.51100000000E-03 0. -1.
    9900012    2    1    2    0    0  0.17909595539E+02  0.13505565990E+02 -0.37154664254E+02  0.47787274189E+02  0.20000014338E+02 0.  0.
        -12    1    1    2    0    0 -0.17909595539E+02 -0.13505565990E+02  0.37154664254E+02  0.43400725811E+02  0.00000000000E+00 0.  1.
         11    1    3    3    0    0  0.16281200068E+01  0.10311386924E+02 -0.89255301202E+01  0.13734648275E+02  0.51100000000E-03 0. -1.
        -11    1    3    3    0    0  0.46168164307E+00 -0.21945803926E+01 -0.45134817452E+01  0.50399256705E+01  0.51100000000E-03 0.  1.
         12    1    3    3    0    0  0.15819793889E+02  0.53887594587E+01 -0.23715652389E+02  0.29012700244E+02  0.00000000000E+00 0. -1.
</event>
<event>
 7    1  0.2110035E-010  0.4778727E+02  0.7816164E-02  0.1312668E+00
        -11   -1    0    0    0    0  0.00000000000E+00  0.00000000000E+00  0.45593999997E+02  0.45594000000E+02  0.51100000000E-03 0. -1.
         11   -1    0    0    0    0 -0.00000000000E+00 -0.00000000000E+00 -0.45593999997E+02  0.45594000000E+02  0.51100000000E-03 0.  1.
    9900012    2    1    2    0    0 -0.15766827372E+02  0.39915217704E+02  0.64657280878E+01  0.47787273169E+02  0.20000009688E+02 0.  0.
        -12    1    1    2    0    0  0.15766827372E+02 -0.39915217704E+02 -0.64657280878E+01  0.43400726831E+02  0.00000000000E+00 0.  1.
         11    1    3    3    0    0 -0.85232014353E+00  0.24187177005E+02  0.53325939375E+01  0.24782706459E+02  0.51100000000E-03 0. -1.
        -11    1    3    3    0    0 -0.93814750408E+01  0.14119027062E+02 -0.67559465439E+00  0.16965123858E+02  0.51100000000E-03 0.  1.
        -12    1    3    3    0    0 -0.55330321873E+01  0.16090136367E+01  0.18087288047E+01  0.60394428516E+01  0.00000000000E+00 0.  1.
</event>
<event>
 7    1  0.2110035E-010  0.4778727E+02  0.7816164E-02  0.1312668E+00
        -11   -1    0    0    0    0  0.00000000000E+00  0.00000000000E+00  0.45593999997E+02  0.45594000000E+02  0.51100000000E-03 0.  1.
         11   -1    0    0    0    0 -0.00000000000E+00 -0.00000000000E+00 -0.45593999997E+02  0.45594000000E+02  0.51100000000E-03 0. -1.
    9900012    2    1    2    0    0 -0.22003825264E+02  0.37241991264E+02  0.35339914792E+01  0.47787270337E+02  0.19999996773E+02 0.  0.
        -12    1    1    2    0    0  0.22003825264E+02 -0.37241991264E+02 -0.35339914792E+01  0.43400729663E+02  0.00000000000E+00 0.  1.
         11    1    3    3    0    0 -0.48488907669E+01  0.33505778730E+01  0.38862053987E+01  0.70597950688E+01  0.51100000000E-03 0. -1.
        -11    1    3    3    0    0 -0.60786547403E+01  0.18101390706E+01  0.21471459854E+01  0.66960348753E+01  0.51100000000E-03 0.  1.
         12    1    3    3    0    0 -0.11076279757E+02  0.32081274320E+02 -0.24993599049E+01  0.34031440393E+02  0.00000000000E+00 0. -1.
</event>
<event>
 7    1  0.2110035E-010  0.4778727E+02  0.7816164E-02  0.1312668E+00
        -11   -1    0    0    0    0  0.00000000000E+00  0.00000000000E+00  0.45593999997E+02  0.45594000000E+02  0.51100000000E-03 0.  1.
         11   -1    0    0    0    0 -0.00000000000E+00 -0.00000000000E+00 -0.45593999997E+02  0.45594000000E+02  0.51100000000E-03 0. -1.
    9900012    2    1    2    0    0 -0.15888627784E+02 -0.29255674764E+00 -0.40386749586E+02  0.47787267005E+02  0.19999981585E+02 0.  0.
        -12    1    1    2    0    0  0.15888627784E+02  0.29255674764E+00  0.40386749586E+02  0.43400732995E+02  0.00000000000E+00 0.  1.
         11    1    3    3    0    0 -0.24174448240E+01  0.63511653987E+01 -0.10872100188E+02  0.12821228652E+02  0.51100000000E-03 0. -1.
        -11    1    3    3    0    0 -0.13950094868E+01 -0.46404596089E+01 -0.28396142876E+01  0.56163445776E+01  0.51100000000E-03 0.  1.
         12    1    3    3    0    0 -0.12076173474E+02 -0.20032625374E+01 -0.26675035111E+02  0.29349693775E+02  0.00000000000E+00 0. -1.
</event>
<event>
 7    1  0.2110035E-010  0.4778727E+02  0.7816164E-02  0.1312668E+00
        -11   -1    0    0    0    0  0.00000000000E+00  0.00000000000E+00  0.45593999997E+02  0.45594000000E+02  0.51100000000E-03 0. -1.
         11   -1    0    0    0    0 -0.00000000000E+00 -0.00000000000E+00 -0.45593999997E+02  0.45594000000E+02  0.51100000000E-03 0.  1.
    9900012    2    1    2    0    0  0.36839539836E+02  0.22936721838E+02 -0.61506935040E+00  0.47787271731E+02  0.20000003128E+02 0.  0.
        -12    1    1    2    0    0 -0.36839539836E+02 -0.22936721838E+02  0.61506935040E+00  0.43400728269E+02  0.00000000000E+00 0.  1.
         11    1    3    3    0    0  0.16224459437E+02  0.32319364362E+01 -0.13328255484E+01  0.16596834679E+02  0.51100000000E-03 0. -1.
        -11    1    3    3    0    0  0.14086702948E+02  0.90742235024E+01 -0.49728176148E+01  0.17478719845E+02  0.51100000000E-03 0.  1.
        -12    1    3    3    0    0  0.65283774503E+01  0.10630561900E+02  0.56905738128E+01  0.13711717207E+02  0.00000000000E+00 0.  1.
</event>
<event>
 7    1  0.2110035E-010  0.4778727E+02  0.7816164E-02  0.1312668E+00
        -11   -1    0    0    0    0  0.00000000000E+00  0.00000000000E+00  0.45593999997E+02  0.45594000000E+02  0.51100000000E-03 0. -1.
         11   -1    0    0    0    0 -0.00000000000E+00 -0.00000000000E+00 -0.45593999997E+02  0.45594000000E+02  0.51100000000E-03 0.  1.
    9900012    2    1    2    0    0  0.20358292928E+02 -0.37867800286E+02  0.59323357105E+01  0.47787274241E+02  0.20000014575E+02 0.  0.
        -12    1    1    2    0    0 -0.20358292928E+02  0.37867800286E+02 -0.59323357105E+01  0.43400725759E+02  0.00000000000E+00 0.  1.
         11    1    3    3    0    0  0.38546274049E+01 -0.69399539885E+00  0.16280820541E+01  0.42415131121E+01  0.51100000000E-03 0. -1.
        -11    1    3    3    0    0  0.16680461803E+02 -0.37718632351E+02  0.60725246368E+01  0.41687031415E+02  0.51100000000E-03 0.  1.
        -12    1    3    3    0    0 -0.17679628063E+00  0.54482746457E+00 -0.17682709804E+01  0.18587297144E+01  0.00000000000E+00 0.  1.
</event>
<event>
 7    1  0.2110035E-010  0.4778727E+02  0.7816164E-02  0.1312668E+00
        -11   -1    0    0    0    0  0.00000000000E+00  0.00000000000E+00  0.45593999997E+02  0.45594000000E+02  0.51100000000E-03 0. -1.
         11   -1    0    0    0    0 -0.00000000000E+00 -0.00000000000E+00 -0.45593999997E+02  0.45594000000E+02  0.51100000000E-03 0.  1.
    9900012    2    1    2    0    0 -0.12462594415E+02  0.14268989041E+02  0.39047444634E+02  0.47787271432E+02  0.20000001766E+02 0.  0.
        -12    1    1    2    0    0  0.12462594415E+02 -0.14268989041E+02 -0.39047444634E+02  0.43400728568E+02  0.00000000000E+00 0.  1.
         11    1    3    3    0    0 -0.65287654674E+01  0.83123802612E+01  0.12852809657E+02  0.16640768026E+02  0.51100000000E-03 0. -1.
        -11    1    3    3    0    0 -0.56722660043E+01  0.10625249803E+02  0.20518027500E+02  0.23792015210E+02  0.51100000000E-03 0.  1.
        -12    1    3    3    0    0 -0.26156294286E+00 -0.46686410233E+01  0.56766074770E+01  0.73544881961E+01  0.00000000000E+00 0.  1.
</event>
<event>
 7    1  0.2885779E-010  0.4778727E+02  0.7816164E-02  0.1312668E+00
        -11   -1    0    0    0    0  0.00000000000E+00  0.00000000000E+00  0.45593999997E+02  0.45594000000E+02  0.51100000000E-03 0. -1.
         11   -1    0    0    0    0 -0.00000000000E+00 -0.00000000000E+00 -0.45593999997E+02  0.45594000000E+02  0.51100000000E-03 0.  1.
    9900012    2    1    2    0    0 -0.31670315654E+02 -0.20934030543E+02 -0.21032851006E+02  0.47787270170E+02  0.19999996013E+02 0.  0.
        -12    1    1    2    0    0  0.31670315654E+02  0.20934030543E+02  0.21032851006E+02  0.43400729830E+02  0.00000000000E+00 0.  1.
         11    1    3    3    0    0 -0.19216148378E+02 -0.51941995605E+01 -0.12746490370E+02  0.23637112442E+02  0.51100000000E-03 0.  1.
        -11    1    3    3    0    0 -0.13980833545E+02 -0.13725295276E+02 -0.54187805497E+01  0.20327582737E+02  0.51100000000E-03 0. -1.
        -12    1    3    3    0    0  0.15266662700E+01 -0.20145357057E+01 -0.28675800864E+01  0.38225749909E+01  0.00000000000E+00 0.  1.
</event>
<event>
 7    1  0.2110035E-010  0.4778727E+02  0.7816164E-02  0.1312668E+00
        -11   -1    0    0    0    0  0.00000000000E+00  0.00000000000E+00  0.45593999997E+02  0.45594000000E+02  0.51100000000E-03 0. -1.
         11   -1    0    0    0    0 -0.00000000000E+00 -0.00000000000E+00 -0.45593999997E+02  0.45594000000E+02  0.51100000000E-03 0.  1.
    9900012    2    1    2    0    0 -0.31302699254E+02 -0.10870613165E+02  0.28028452507E+02  0.47787270039E+02  0.19999995418E+02 0.  0.
        -12    1    1    2    0    0  0.31302699254E+02  0.10870613165E+02 -0.28028452507E+02  0.43400729961E+02  0.00000000000E+00 0.  1.
         11    1    3    3    0    0 -0.17663070254E+01 -0.18247476485E+01  0.10463847200E+02  0.10767620117E+02  0.51100000000E-03 0. -1.
        -11    1    3    3    0    0 -0.70707692201E+01 -0.41979808893E+01  0.21902779429E+00  0.82259828802E+01  0.51100000000E-03 0.  1.
         12    1    3    3    0    0 -0.22465623008E+02 -0.48478846274E+01  0.17345577513E+02  0.28793667043E+02  0.00000000000E+00 0. -1.
</event>
<event>
 7    1  0.2110035E-010  0.4778727E+02  0.7816164E-02  0.1312668E+00
        -11   -1    0    0    0    0  0.00000000000E+00  0.00000000000E+00  0.45593999997E+02  0.45594000000E+02  0.51100000000E-03 0. -1.
         11   -1    0    0    0    0 -0.00000000000E+00 -0.00000000000E+00 -0.45593999997E+02  0.45594000000E+02  0.51100000000E-03 0.  1.
    9900012    2    1    2    0    0  0.13551696760E+01 -0.42460014736E+02  0.88844861748E+01  0.47787269236E+02  0.19999991754E+02 0.  0.
        -12    1    1    2    0    0 -0.13551696760E+01  0.42460014736E+02 -0.88844861748E+01  0.43400730764E+02  0.00000000000E+00 0.  1.
         11    1    3    3    0    0  0.22477910742E+01 -0.20938129729E+02  0.96959905239E+01  0.23183400824E+02  0.51100000000E-03 0. -1.
        -11    1    3    3    0    0 -0.54459522580E+01 -0.17211767475E+02  0.99152230230E+00  0.18080001448E+02  0.51100000000E-03 0.  1.
         12    1    3    3    0    0  0.45533308598E+01 -0.43101175320E+01 -0.18030266514E+01  0.65238669640E+01  0.00000000000E+00 0. -1.
</event>
<event>
 7    1 -0.2110035E-010  0.4778727E+02  0.7816164E-02  0.1312668E+00
        -11   -1    0    0    0    0  0.00000000000E+00  0.00000000000E+00  0.45593999997E+02  0.45594000000E+02  0.51100000000E-03 0. -1.
         11   -1    0    0    0    0 -0.00000000000E+00 -0.00000000000E+00 -0.45593999997E+02  0.45594000000E+02  0.51100000000E-03 0.  1.
    9900012    2    1    2    0    0 -0.16320923462E+02 -0.24163420477E+00  0.40214331076E+02  0.47787270125E+02  0.19999995809E+02 0.  0.
        -12    1    1    2    0    0  0.16320923462E+02  0.24163420477E+00 -0.40214331076E+02  0.43400729875E+02  0.00000000000E+00 0.  1.
         11    1    3    3    0    0 -0.40959352411E+01  0.13470216366E+01  0.20013012786E+02  0.20472221028E+02  0.51100000000E-03 0. -1.
        -11    1    3    3    0    0  0.17865478414E+01 -0.96325850147E+00 -0.69744247969E+00  0.21461701712E+01  0.51100000000E-03 0.  1.
        -12    1    3    3    0    0 -0.14011536062E+02 -0.62539733993E+00  0.20898760770E+02  0.25168878926E+02  0.00000000000E+00 0.  1.
</event>
<event>
 7    1  0.2110035E-010  0.4778727E+02  0.7816164E-02  0.1312668E+00
        -11   -1    0    0    0    0  0.00000000000E+00  0.00000000000E+00  0.45593999997E+02  0.45594000000E+02  0.51100000000E-03 0. -1.
         11   -1    0    0    0    0 -0.00000000000E+00 -0.00000000000E+00 -0.45593999997E+02  0.45594000000E+02  0.51100000000E-03 0.  1.
    9900012    2    1    2    0    0 -0.30479598799E+02 -0.22846727324E+02  0.20800104831E+02  0.47787271281E+02  0.20000001078E+02 0.  0.
        -12    1    1    2    0    0  0.30479598799E+02  0.22846727324E+02 -0.20800104831E+02  0.43400728719E+02  0.00000000000E+00 0.  1.
         11    1    3    3    0    0 -0.26487393188E+01 -0.14180564361E+01  0.56439988946E+01  0.63938586017E+01  0.51100000000E-03 0. -1.
        -11    1    3    3    0    0 -0.39161805129E+01  0.21719921774E+00  0.71554435539E+01  0.81599030646E+01  0.51100000000E-03 0.  1.
         12    1    3    3    0    0 -0.23914678967E+02 -0.21645870106E+02  0.80006623823E+01  0.33233509615E+02  0.00000000000E+00 0. -1.
</event>
<event>
 7    1  0.2110035E-010  0.4778728E+02  0.7816164E-02  0.1312668E+00
        -11   -1    0    0    0    0  0.00000000000E+00  0.00000000000E+00  0.45593999997E+02  0.45594000000E+02  0.51100000000E-03 0. -1.
         11   -1    0    0    0    0 -0.00000000000E+00 -0.00000000000E+00 -0.45593999997E+02  0.45594000000E+02  0.51100000000E-03 0.  1.
    9900012    2    1    2    0    0  0.39129024578E+02  0.18048276991E+02 -0.51770636611E+01  0.47787275871E+02  0.20000022006E+02 0.  0.
        -12    1    1    2    0    0 -0.39129024578E+02 -0.18048276991E+02  0.51770636611E+01  0.43400724129E+02  0.00000000000E+00 0.  1.
         11    1    3    3    0    0  0.13483351901E+02  0.74139069113E+01  0.12319375071E+01  0.15436465413E+02  0.51100000000E-03 0. -1.
        -11    1    3    3    0    0  0.17225315545E+02 -0.11067473057E+01 -0.34097497830E+01  0.17594396240E+02  0.51100000000E-03 0.  1.
        -12    1    3    3    0    0  0.84203571327E+01  0.11741117385E+02 -0.29992513851E+01  0.14756414218E+02  0.00000000000E+00 0.  1.
</event>
<event>
 7    1  0.2110035E-010  0.4778728E+02  0.7816164E-02  0.1312668E+00
        -11   -1    0    0    0    0  0.00000000000E+00  0.00000000000E+00  0.45593999997E+02  0.45594000000E+02  0.51100000000E-03 0.  1.
         11   -1    0    0    0    0 -0.00000000000E+00 -0.00000000000E+00 -0.45593999997E+02  0.45594000000E+02  0.51100000000E-03 0. -1.
    9900012    2    1    2    0    0 -0.25119998054E+02 -0.33794158197E+02  0.10514877423E+02  0.47787284825E+02  0.20000062830E+02 0.  0.
        -12    1    1    2    0    0  0.25119998054E+02  0.33794158197E+02 -0.10514877423E+02  0.43400715175E+02  0.00000000000E+00 0.  1.
         11    1    3    3    0    0 -0.23464950698E+01  0.15925856154E+01 -0.20755981756E+00  0.28434924642E+01  0.51100000000E-03 0. -1.
        -11    1    3    3    0    0 -0.37685007933E+01 -0.13441317607E+02  0.71791594478E+01  0.15697482214E+02  0.51100000000E-03 0.  1.
         12    1    3    3    0    0 -0.19005002191E+02 -0.21945426206E+02  0.35432777930E+01  0.29246310146E+02  0.00000000000E+00 0. -1.
</event>
<event>
 7    1  0.2110035E-010  0.4778725E+02  0.7816164E-02  0.1312668E+00
        -11   -1    0    0    0    0  0.00000000000E+00  0.00000000000E+00  0.45593999997E+02  0.45594000000E+02  0.51100000000E-03 0. -1.
         11   -1    0    0    0    0 -0.00000000000E+00 -0.00000000000E+00 -0.45593999997E+02  0.45594000000E+02  0.51100000000E-03 0.  1.
    9900012    2    1    2    0    0  0.24675462209E+02 -0.11075406726E+02  0.33942329287E+02  0.47787253615E+02  0.19999920530E+02 0.  0.
        -12    1    1    2    0    0 -0.24675462209E+02  0.11075406726E+02 -0.33942329287E+02  0.43400746385E+02  0.00000000000E+00 0.  1.
         11    1    3    3    0    0  0.15401416988E+02 -0.19269262615E+01  0.98137323933E+01  0.18363715142E+02  0.51100000000E-03 0. -1.
        -11    1    3    3    0    0  0.93357607180E+01 -0.54540468972E+01  0.96875735148E+01  0.14517304729E+02  0.51100000000E-03 0.  1.
         12    1    3    3    0    0 -0.61715496953E-01 -0.36944335671E+01  0.14441023379E+02  0.14906233744E+02  0.00000000000E+00 0. -1.
</event>
<event>
 7    1  0.2110035E-010  0.4778727E+02  0.7816164E-02  0.1312668E+00
        -11   -1    0    0    0    0  0.00000000000E+00  0.00000000000E+00  0.45593999997E+02  0.45594000000E+02  0.51100000000E-03 0. -1.
         11   -1    0    0    0    0 -0.00000000000E+00 -0.00000000000E+00 -0.45593999997E+02  0.45594000000E+02  0.51100000000E-03 0.  1.
    9900012    2    1    2    0    0  0.17410309693E+02 -0.82014656612E+01  0.38900391326E+02  0.47787269961E+02  0.19999995059E+02 0.  0.
        -12    1    1    2    0    0 -0.17410309693E+02  0.82014656612E+01 -0.38900391326E+02  0.43400730039E+02  0.00000000000E+00 0.  1.
         11    1    3    3    0    0  0.77269845115E+01 -0.33272207409E+01  0.19816267410E+02  0.21528147664E+02  0.51100000000E-03 0. -1.
        -11    1    3    3    0    0  0.73026138430E+01  0.26885289288E+01  0.30244174213E+01  0.83488596671E+01  0.51100000000E-03 0.  1.
        -12    1    3    3    0    0  0.23807113386E+01 -0.75627738491E+01  0.16059706495E+02  0.17910262630E+02  0.00000000000E+00 0.  1.
</event>
<event>
 7    1  0.2110035E-010  0.4778727E+02  0.7816164E-02  0.1312668E+00
        -11   -1    0    0    0    0  0.00000000000E+00  0.00000000000E+00  0.45593999997E+02  0.45594000000E+02  0.51100000000E-03 0. -1.
         11   -1    0    0    0    0 -0.00000000000E+00 -0.00000000000E+00 -0.45593999997E+02  0.45594000000E+02  0.51100000000E-03 0.  1.
    9900012    2    1    2    0    0  0.36717266833E+02 -0.15116031003E+02  0.17520592920E+02  0.47787271282E+02  0.20000001083E+02 0.  0.
        -12    1    1    2    0    0 -0.36717266833E+02  0.15116031003E+02 -0.17520592920E+02  0.43400728718E+02  0.00000000000E+00 0.  1.
         11    1    3    3    0    0  0.11757520169E+02  0.90876136624E-01  0.10681750420E+02  0.15885444007E+02  0.51100000000E-03 0. -1.
        -11    1    3    3    0    0  0.21549947794E+02 -0.10840589177E+02  0.92818782079E+01  0.25847086624E+02  0.51100000000E-03 0.  1.
        -12    1    3    3    0    0  0.34097988703E+01 -0.43663179622E+01 -0.24430357077E+01  0.60547406511E+01  0.00000000000E+00 0.  1.
</event>
<event>
 7    1  0.2110035E-010  0.4778727E+02  0.7816164E-02  0.1312668E+00
        -11   -1    0    0    0    0  0.00000000000E+00  0.00000000000E+00  0.45593999997E+02  0.45594000000E+02  0.51100000000E-03 0.  1.
         11   -1    0    0    0    0 -0.00000000000E+00 -0.00000000000E+00 -0.45593999997E+02  0.45594000000E+02  0.51100000000E-03 0. -1.
    9900012    2    1    2    0    0 -0.27042470203E+02 -0.33226686989E+02 -0.69509371078E+01  0.47787269019E+02  0.19999990767E+02 0.  0.
        -12    1    1    2    0    0  0.27042470203E+02  0.33226686989E+02  0.69509371078E+01  0.43400730981E+02  0.00000000000E+00 0.  1.
         11    1    3    3    0    0  0.20016100269E+00 -0.18844635947E+01  0.30058295078E+01  0.35533475426E+01  0.51100000000E-03 0. -1.
        -11    1    3    3    0    0 -0.14077394311E+02 -0.23772064577E+02 -0.39763787443E+01  0.27912285342E+02  0.51100000000E-03 0.  1.
         12    1    3    3    0    0 -0.13165236895E+02 -0.75701588181E+01 -0.59803878713E+01  0.16321636135E+02  0.00000000000E+00 0. -1.
</event>
<event>
 7    1  0.2110035E-010  0.4778727E+02  0.7816164E-02  0.1312668E+00
        -11   -1    0    0    0    0  0.00000000000E+00  0.00000000000E+00  0.45593999997E+02  0.45594000000E+02  0.51100000000E-03 0.  1.
         11   -1    0    0    0    0 -0.00000000000E+00 -0.00000000000E+00 -0.45593999997E+02  0.45594000000E+02  0.51100000000E-03 0. -1.
    9900012    2    1    2    0    0  0.97095211141E+01 -0.34585195738E+02 -0.24355957605E+02  0.47787271488E+02  0.20000002023E+02 0.  0.
        -12    1    1    2    0    0 -0.97095211141E+01  0.34585195738E+02  0.24355957605E+02  0.43400728512E+02  0.00000000000E+00 0.  1.
         11    1    3    3    0    0  0.44522042013E+01 -0.20276836507E+02 -0.20573097849E+02  0.29227120562E+02  0.51100000000E-03 0. -1.
        -11    1    3    3    0    0 -0.29544728853E+01 -0.43221964481E+01 -0.87205710117E+00  0.53076149083E+01  0.51100000000E-03 0.  1.
         12    1    3    3    0    0  0.82117897981E+01 -0.99861627828E+01 -0.29108026551E+01  0.13252536018E+02  0.00000000000E+00 0. -1.
</event>
<event>
 7    1  0.2110035E-010  0.4778727E+02  0.7816164E-02  0.1312668E+00
        -11   -1    0    0    0    0  0.00000000000E+00  0.00000000000E+00  0.45593999997E+02  0.45594000000E+02  0.51100000000E-03 0. -1.
         11   -1    0    0    0    0 -0.00000000000E+00 -0.00000000000E+00 -0.45593999997E+02  0.45594000000E+02  0.51100000000E-03 0.  1.
    9900012    2    1    2    0    0 -0.66067035353E+01 -0.23895116564E+02 -0.35623000752E+02  0.47787270630E+02  0.19999998113E+02 0.  0.
        -12    1    1    2    0    0  0.66067035353E+01  0.23895116564E+02  0.35623000752E+02  0.43400729370E+02  0.00000000000E+00 0.  1.
         11    1    3    3    0    0 -0.45657555395E+00 -0.11636328627E+02 -0.97749480687E+01  0.15204019704E+02  0.51100000000E-03 0. -1.
        -11    1    3    3    0    0 -0.31002395625E+01 -0.11763815521E+02 -0.82100002376E+01  0.14676612181E+02  0.51100000000E-03 0.  1.
        -12    1    3    3    0    0 -0.30498884188E+01 -0.49497241588E+00 -0.17638052446E+02  0.17906638745E+02  0.00000000000E+00 0.  1.
</event>
<event>
 7    1  0.2110035E-010  0.4778727E+02  0.7816164E-02  0.1312668E+00
        -11   -1    0    0    0    0  0.00000000000E+00  0.00000000000E+00  0.45593999997E+02  0.45594000000E+02  0.51100000000E-03 0. -1.
         11   -1    0    0    0    0 -0.00000000000E+00 -0.00000000000E+00 -0.45593999997E+02  0.45594000000E+02  0.51100000000E-03 0.  1.
    9900012    2    1    2    0    0 -0.22453206244E+01  0.28897945506E+02  0.32303105134E+02  0.47787270508E+02  0.19999997553E+02 0.  0.
        -12    1    1    2    0    0  0.22453206244E+01 -0.28897945506E+02 -0.32303105134E+02  0.43400729492E+02  0.00000000000E+00 0.  1.
         11    1    3    3    0    0 -0.31470739180E+01  0.93973967926E+01  0.13816148855E+02  0.17002973568E+02  0.51100000000E-03 0. -1.
        -11    1    3    3    0    0 -0.61573297293E+01  0.38765441842E+01  0.73357987840E+01  0.10332194746E+02  0.51100000000E-03 0.  1.
         12    1    3    3    0    0  0.70590830230E+01  0.15624004529E+02  0.11151157495E+02  0.20452102194E+02  0.00000000000E+00 0. -1.
</event>
<event>
 7    1  0.2110035E-010  0.4778727E+02  0.7816164E-02  0.1312668E+00
        -11   -1    0    0    0    0  0.00000000000E+00  0.00000000000E+00  0.45593999997E+02  0.45594000000E+02  0.51100000000E-03 0.  1.
         11   -1    0    0    0    0 -0.00000000000E+00 -0.00000000000E+00 -0.45593999997E+02  0.45594000000E+02  0.51100000000E-03 0. -1.
    9900012    2    1    2    0    0  0.33007377675E+01 -0.42871927695E+02 -0.58928935863E+01  0.47787271332E+02  0.20000001312E+02 0.  0.
        -12    1    1    2    0    0 -0.33007377675E+01  0.42871927695E+02  0.58928935863E+01  0.43400728668E+02  0.00000000000E+00 0.  1.
         11    1    3    3    0    0 -0.28802054357E+00 -0.20530724806E+02  0.35517331444E+01  0.20837668428E+02  0.51100000000E-03 0. -1.
        -11    1    3    3    0    0  0.64470591348E+01 -0.80184724199E+01 -0.17337312855E+01  0.10433901277E+02  0.51100000000E-03 0.  1.
        -12    1    3    3    0    0 -0.28583008236E+01 -0.14322730468E+02 -0.77108954451E+01  0.16515701627E+02  0.00000000000E+00 0.  1.
</event>
<event>
 7    1  0.2110035E-010  0.4778728E+02  0.7816164E-02  0.1312668E+00
        -11   -1    0    0    0    0  0.00000000000E+00  0.00000000000E+00  0.45593999997E+02  0.45594000000E+02  0.51100000000E-03 0.  1.
         11   -1    0    0    0    0 -0.00000000000E+00 -0.00000000000E+00 -0.45593999997E+02  0.45594000000E+02  0.51100000000E-03 0. -1.
    9900012    2    1    2    0    0 -0.27629772897E+02 -0.33266292727E+02 -0.36839762555E+01  0.47787282688E+02  0.20000053088E+02 0.  0.
        -12    1    1    2    0    0  0.27629772897E+02  0.33266292727E+02  0.36839762555E+01  0.43400717312E+02  0.00000000000E+00 0.  1.
         11    1    3    3    0    0 -0.92509868662E+00 -0.56390158008E+01  0.18523451396E+01  0.60071199055E+01  0.51100000000E-03 0. -1.
        -11    1    3    3    0    0  0.59600758898E+00 -0.15468986671E+01  0.26698883528E+01  0.31426779361E+01  0.51100000000E-03 0.  1.
         12    1    3    3    0    0 -0.27300681799E+02 -0.26080378259E+02 -0.82062097479E+01  0.38637484847E+02  0.00000000000E+00 0. -1.
</event>
<event>
 7    1  0.2110035E-010  0.4778728E+02  0.7816164E-02  0.1312668E+00
        -11   -1    0    0    0    0  0.00000000000E+00  0.00000000000E+00  0.45593999997E+02  0.45594000000E+02  0.51100000000E-03 0.  1.
         11   -1    0    0    0    0 -0.00000000000E+00 -0.00000000000E+00 -0.45593999997E+02  0.45594000000E+02  0.51100000000E-03 0. -1.
    9900012    2    1    2    0    0 -0.26756039176E+02 -0.13321072559E+02 -0.31468805933E+02  0.47787281649E+02  0.20000048351E+02 0.  0.
        -12    1    1    2    0    0  0.26756039176E+02  0.13321072559E+02  0.31468805933E+02  0.43400718351E+02  0.00000000000E+00 0.  1.
         11    1    3    3    0    0 -0.87656796162E+01 -0.41402355643E+01 -0.18933561034E+01  0.98774231081E+01  0.51100000000E-03 0. -1.
        -11    1    3    3    0    0 -0.17462581036E+02 -0.33978809173E+01 -0.20585876020E+02  0.27207822826E+02  0.51100000000E-03 0.  1.
        -12    1    3    3    0    0 -0.52777852413E+00 -0.57829560773E+01 -0.89895738094E+01  0.10702035715E+02  0.00000000000E+00 0.  1.
</event>
<event>
 7    1  0.2110035E-010  0.4778727E+02  0.7816164E-02  0.1312668E+00
        -11   -1    0    0    0    0  0.00000000000E+00  0.00000000000E+00  0.45593999997E+02  0.45594000000E+02  0.51100000000E-03 0.  1.
         11   -1    0    0    0    0 -0.00000000000E+00 -0.00000000000E+00 -0.45593999997E+02  0.45594000000E+02  0.51100000000E-03 0. -1.
    9900012    2    1    2    0    0 -0.34453464380E+02  0.14038633724E+01 -0.26355484918E+02  0.47787266995E+02  0.19999981536E+02 0.  0.
        -12    1    1    2    0    0  0.34453464380E+02 -0.14038633724E+01  0.26355484918E+02  0.43400733005E+02  0.00000000000E+00 0.  1.
         11    1    3    3    0    0  0.10527319242E+01  0.15971019522E+01 -0.12006947539E+01  0.22584612689E+01  0.51100000000E-03 0. -1.
        -11    1    3    3    0    0 -0.15872541274E+02 -0.57737806742E+01 -0.15599017729E+02  0.22991378039E+02  0.51100000000E-03 0.  1.
        -12    1    3    3    0    0 -0.19633655030E+02  0.55805420945E+01 -0.95557724350E+01  0.22537427687E+02  0.00000000000E+00 0.  1.
</event>
<event>
 7    1  0.2110035E-010  0.4778727E+02  0.7816164E-02  0.1312668E+00
        -11   -1    0    0    0    0  0.00000000000E+00  0.00000000000E+00  0.45593999997E+02  0.45594000000E+02  0.51100000000E-03 0. -1.
         11   -1    0    0    0    0 -0.00000000000E+00 -0.00000000000E+00 -0.45593999997E+02  0.45594000000E+02  0.51100000000E-03 0.  1.
    9900012    2    1    2    0    0 -0.10970657612E+02 -0.41868971260E+02 -0.32026898020E+01  0.47787270689E+02  0.19999998377E+02 0.  0.
        -12    1    1    2    0    0  0.10970657612E+02  0.41868971260E+02  0.32026898020E+01  0.43400729311E+02  0.00000000000E+00 0.  1.
         11    1    3    3    0    0 -0.23554589842E+01 -0.14964212539E+02  0.28559586491E+01  0.15415328216E+02  0.51100000000E-03 0. -1.
        -11    1    3    3    0    0  0.99275066609E+00 -0.50086041533E+01 -0.67340981734E+01  0.84510205254E+01  0.51100000000E-03 0.  1.
        -12    1    3    3    0    0 -0.96079492939E+01 -0.21896154567E+02  0.67544972230E+00  0.23920921947E+02  0.00000000000E+00 0.  1.
</event>
<event>
 7    1  0.2498749E-010  0.4778727E+02  0.7816164E-02  0.1312668E+00
        -11   -1    0    0    0    0  0.00000000000E+00  0.00000000000E+00  0.45593999997E+02  0.45594000000E+02  0.51100000000E-03 0.  1.
         11   -1    0    0    0    0 -0.00000000000E+00 -0.00000000000E+00 -0.45593999997E+02  0.45594000000E+02  0.51100000000E-03 0. -1.
    9900012    2    1    2    0    0 -0.33877551728E+02  0.18594827416E+02 -0.19752654178E+02  0.47787268845E+02  0.19999989971E+02 0.  0.
        -12    1    1    2    0    0  0.33877551728E+02 -0.18594827416E+02  0.19752654178E+02  0.43400731155E+02  0.00000000000E+00 0.  1.
         11    1    3    3    0    0 -0.23256894037E+02  0.95687585862E+01 -0.12618401643E+02  0.28136601099E+02  0.51100000000E-03 0. -1.
        -11    1    3    3    0    0 -0.67382267931E+01  0.99231011427E+01 -0.92425917356E+01  0.15142560512E+02  0.51100000000E-03 0.  1.
        -12    1    3    3    0    0 -0.38824308976E+01 -0.89703231288E+00  0.21083392005E+01  0.45081072336E+01  0.00000000000E+00 0.  1.
</event>
<event>
 7    1  0.2110035E-010  0.4778727E+02  0.7816164E-02  0.1312668E+00
        -11   -1    0    0    0    0  0.00000000000E+00  0.00000000000E+00  0.45593999997E+02  0.45594000000E+02  0.51100000000E-03 0. -1.
         11   -1    0    0    0    0 -0.00000000000E+00 -0.00000000000E+00 -0.45593999997E+02  0.45594000000E+02  0.51100000000E-03 0.  1.
    9900012    2    1    2    0    0  0.43288418726E+02  0.28293898850E+01 -0.13154413710E+01  0.47787273866E+02  0.20000012864E+02 0.  0.
        -12    1    1    2    0    0 -0.43288418726E+02 -0.28293898850E+01  0.13154413710E+01  0.43400726134E+02  0.00000000000E+00 0.  1.
         11    1    3    3    0    0  0.76710186417E+01 -0.24033038885E+00 -0.38651042627E+01  0.85930970506E+01  0.51100000000E-03 0. -1.
        -11    1    3    3    0    0 -0.43100196155E-01  0.96098929860E+00 -0.29024608522E+01  0.30577176650E+01  0.51100000000E-03 0.  1.
         12    1    3    3    0    0  0.35660500281E+02  0.21087309753E+01  0.54521237440E+01  0.36136459150E+02  0.00000000000E+00 0. -1.
</event>
<event>
 7    1  0.2110035E-010  0.4778727E+02  0.7816164E-02  0.1312668E+00
        -11   -1    0    0    0    0  0.00000000000E+00  0.00000000000E+00  0.45593999997E+02  0.45594000000E+02  0.51100000000E-03 0.  1.
         11   -1    0    0    0    0 -0.00000000000E+00 -0.00000000000E+00 -0.45593999997E+02  0.45594000000E+02  0.51100000000E-03 0. -1.
    9900012    2    1    2    0    0  0.35227602053E+02 -0.15816946555E+02 -0.19810689187E+02  0.47787272462E+02  0.20000006463E+02 0.  0.
        -12    1    1    2    0    0 -0.35227602053E+02  0.15816946555E+02  0.19810689187E+02  0.43400727538E+02  0.00000000000E+00 0.  1.
         11    1    3    3    0    0  0.13740132402E+02 -0.14412542086E+02 -0.61677825086E+01  0.20845962418E+02  0.51100000000E-03 0. -1.
        -11    1    3    3    0    0  0.80312136895E+01 -0.16399899616E+01 -0.10132053981E+02  0.13032592932E+02  0.51100000000E-03 0.  1.
        -12    1    3    3    0    0  0.13456255962E+02  0.23558549181E+00 -0.35108526971E+01  0.13908717112E+02  0.00000000000E+00 0.  1.
</event>
<event>
 7    1  0.2110035E-010  0.4778728E+02  0.7816164E-02  0.1312668E+00
        -11   -1    0    0    0    0  0.00000000000E+00  0.00000000000E+00  0.45593999997E+02  0.45594000000E+02  0.51100000000E-03 0.  1.
         11   -1    0    0    0    0 -0.00000000000E+00 -0.00000000000E+00 -0.45593999997E+02  0.45594000000E+02  0.51100000000E-03 0. -1.
    9900012    2    1    2    0    0 -0.20581320154E+02  0.10807373604E+02 -0.36650141385E+02  0.47787275040E+02  0.20000018218E+02 0.  0.
        -12    1    1    2    0    0  0.20581320154E+02 -0.10807373604E+02  0.36650141385E+02  0.43400724960E+02  0.00000000000E+00 0.  1.
         11    1    3    3    0    0 -0.15515185302E+01  0.22101758130E+01 -0.10290959614E+02  0.10639357918E+02  0.51100000000E-03 0. -1.
        -11    1    3    3    0    0  0.13529008263E+01 -0.23772870206E+01 -0.47436376018E+01  0.54757585942E+01  0.51100000000E-03 0.  1.
        -12    1    3    3    0    0 -0.20382702450E+02  0.10974484812E+02 -0.21615544169E+02  0.31672158528E+02  0.00000000000E+00 0.  1.
</event>
<event>
 7    1  0.2110035E-010  0.4778726E+02  0.7816164E-02  0.1312668E+00
        -11   -1    0    0    0    0  0.00000000000E+00  0.00000000000E+00  0.45593999997E+02  0.45594000000E+02  0.51100000000E-03 0.  1.
         11   -1    0    0    0    0 -0.00000000000E+00 -0.00000000000E+00 -0.45593999997E+02  0.45594000000E+02  0.51100000000E-03 0. -1.
    9900012    2    1    2    0    0  0.41440336054E+02  0.11467258068E+02 -0.59012418402E+01  0.47787261353E+02  0.19999955811E+02 0.  0.
        -12    1    1    2    0    0 -0.41440336054E+02 -0.11467258068E+02  0.59012418402E+01  0.43400738647E+02  0.00000000000E+00 0.  1.
         11    1    3    3    0    0 -0.19665711603E+01 -0.43758832175E+00  0.30212048166E+00  0.20371948151E+01  0.51100000000E-03 0. -1.
        -11    1    3    3    0    0  0.16355682803E+02  0.45769051594E+01  0.26934777058E+00  0.16986140506E+02  0.51100000000E-03 0.  1.
         12    1    3    3    0    0  0.27051224411E+02  0.73279412305E+01 -0.64727100924E+01  0.28763926032E+02  0.00000000000E+00 0. -1.
</event>
<event>
 7    1  0.2110035E-010  0.4778727E+02  0.7816164E-02  0.1312668E+00
        -11   -1    0    0    0    0  0.00000000000E+00  0.00000000000E+00  0.45593999997E+02  0.45594000000E+02  0.51100000000E-03 0. -1.
         11   -1    0    0    0    0 -0.00000000000E+00 -0.00000000000E+00 -0.45593999997E+02  0.45594000000E+02  0.51100000000E-03 0.  1.
    9900012    2    1    2    0    0  0.29191336425E+02  0.23193999041E+02  0.22215478243E+02  0.47787272042E+02  0.20000004547E+02 0.  0.
        -12    1    1    2    0    0 -0.29191336425E+02 -0.23193999041E+02 -0.22215478243E+02  0.43400727958E+02  0.00000000000E+00 0.  1.
         11    1    3    3    0    0  0.18329574586E+02  0.45725170126E+01  0.15766046749E+02  0.24605882360E+02  0.51100000000E-03 0. -1.
        -11    1    3    3    0    0  0.86874294824E+01  0.95543156265E+01  0.31651849187E+01  0.13295667487E+02  0.51100000000E-03 0.  1.
         12    1    3    3    0    0  0.21743323563E+01  0.90671664016E+01  0.32842465746E+01  0.98857221948E+01  0.00000000000E+00 0. -1.
</event>
<event>
 7    1  0.2344191E-010  0.4778727E+02  0.7816164E-02  0.1312668E+00
        -11   -1    0    0    0    0  0.00000000000E+00  0.00000000000E+00  0.45593999997E+02  0.45594000000E+02  0.51100000000E-03 0.  1.
         11   -1    0    0    0    0 -0.00000000000E+00 -0.00000000000E+00 -0.45593999997E+02  0.45594000000E+02  0.51100000000E-03 0. -1.
    9900012    2    1    2    0    0  0.33844103265E+02  0.45559604710E+01 -0.26785130932E+02  0.47787270275E+02  0.19999996492E+02 0.  0.
        -12    1    1    2    0    0 -0.33844103265E+02 -0.45559604710E+01  0.26785130932E+02  0.43400729725E+02  0.00000000000E+00 0.  1.
         11    1    3    3    0    0  0.14525212516E+02  0.79905696511E+00 -0.12543853701E+02  0.19208554256E+02  0.51100000000E-03 0. -1.
        -11    1    3    3    0    0 -0.34620452487E+00 -0.36290788353E+01 -0.11313316943E+01  0.38170646353E+01  0.51100000000E-03 0.  1.
        -12    1    3    3    0    0  0.19665095274E+02  0.73859823413E+01 -0.13109945536E+02  0.24761651384E+02  0.00000000000E+00 0.  1.
</event>
<event>
 7    1  0.2110035E-010  0.4778727E+02  0.7816164E-02  0.1312668E+00
        -11   -1    0    0    0    0  0.00000000000E+00  0.00000000000E+00  0.45593999997E+02  0.45594000000E+02  0.51100000000E-03 0.  1.
         11   -1    0    0    0    0 -0.00000000000E+00 -0.00000000000E+00 -0.45593999997E+02  0.45594000000E+02  0.51100000000E-03 0. -1.
    9900012    2    1    2    0    0 -0.25584751512E+01 -0.36123061667E+02 -0.23920740215E+02  0.47787271991E+02  0.20000004314E+02 0.  0.
        -12    1    1    2    0    0  0.25584751512E+01  0.36123061667E+02  0.23920740215E+02  0.43400728009E+02  0.00000000000E+00 0.  1.
         11    1    3    3    0    0  0.43320502767E+00  0.85249546960E+00  0.20255479627E+01  0.22399240906E+01  0.51100000000E-03 0.  1.
        -11    1    3    3    0    0  0.12495662236E+01 -0.14777404090E+02 -0.10637219205E+02  0.18250575883E+02  0.51100000000E-03 0. -1.
        -12    1    3    3    0    0 -0.42412464024E+01 -0.22198153047E+02 -0.15309068973E+02  0.27296772017E+02  0.00000000000E+00 0.  1.
</event>
<event>
 7    1  0.2110035E-010  0.4778727E+02  0.7816164E-02  0.1312668E+00
        -11   -1    0    0    0    0  0.00000000000E+00  0.00000000000E+00  0.45593999997E+02  0.45594000000E+02  0.51100000000E-03 0. -1.
         11   -1    0    0    0    0 -0.00000000000E+00 -0.00000000000E+00 -0.45593999997E+02  0.45594000000E+02  0.51100000000E-03 0.  1.
    9900012    2    1    2    0    0 -0.14497316141E+02  0.34962702733E+02 -0.21238183510E+02  0.47787271936E+02  0.20000004064E+02 0.  0.
        -12    1    1    2    0    0  0.14497316141E+02 -0.34962702733E+02  0.21238183510E+02  0.43400728064E+02  0.00000000000E+00 0.  1.
         11    1    3    3    0    0  0.38364045831E+01  0.96255794603E+01 -0.27314735318E+01  0.10715910040E+02  0.51100000000E-03 0. -1.
        -11    1    3    3    0    0 -0.69230740685E+01  0.48347778714E+01 -0.30694241045E+01  0.89847312825E+01  0.51100000000E-03 0.  1.
        -12    1    3    3    0    0 -0.11410646656E+02  0.20502345402E+02 -0.15437285873E+02  0.28086630613E+02  0.00000000000E+00 0.  1.
</event>
<event>
 7    1  0.2110035E-010  0.4778727E+02  0.7816164E-02  0.1312668E+00
        -11   -1    0    0    0    0  0.00000000000E+00  0.00000000000E+00  0.45593999997E+02  0.45594000000E+02  0.51100000000E-03 0.  1.
         11   -1    0    0    0    0 -0.00000000000E+00 -0.00000000000E+00 -0.45593999997E+02  0.45594000000E+02  0.51100000000E-03 0. -1.
    9900012    2    1    2    0    0 -0.25580227846E+02  0.26508722322E+02  0.22946952401E+02  0.47787273736E+02  0.20000012271E+02 0.  0.
        -12    1    1    2    0    0  0.25580227846E+02 -0.26508722322E+02 -0.22946952401E+02  0.43400726264E+02  0.00000000000E+00 0.  1.
         11    1    3    3    0    0 -0.88800203310E+01  0.79171210536E+01  0.86877899408E+01  0.14731369969E+02  0.51100000000E-03 0. -1.
        -11    1    3    3    0    0 -0.52245513348E+01  0.14512525744E+02  0.14066614812E+02  0.20875320180E+02  0.51100000000E-03 0.  1.
         12    1    3    3    0    0 -0.11475656180E+02  0.40790755248E+01  0.19254764785E+00  0.12180583586E+02  0.00000000000E+00 0. -1.
</event>
<event>
 7    1  0.2110035E-010  0.4778727E+02  0.7816164E-02  0.1312668E+00
        -11   -1    0    0    0    0  0.00000000000E+00  0.00000000000E+00  0.45593999997E+02  0.45594000000E+02  0.51100000000E-03 0. -1.
         11   -1    0    0    0    0 -0.00000000000E+00 -0.00000000000E+00 -0.45593999997E+02  0.45594000000E+02  0.51100000000E-03 0.  1.
    9900012    2    1    2    0    0 -0.31465341016E+02 -0.59937228727E+01  0.29285337749E+02  0.47787269520E+02  0.19999993047E+02 0.  0.
        -12    1    1    2    0    0  0.31465341016E+02  0.59937228727E+01 -0.29285337749E+02  0.43400730480E+02  0.00000000000E+00 0.  1.
         11    1    3    3    0    0 -0.51138847009E+01 -0.42334980698E+01  0.83568762216E+00  0.66912402964E+01  0.51100000000E-03 0.  1.
        -11    1    3    3    0    0 -0.50305463330E+01 -0.18987520753E+01  0.14882751559E+02  0.15824283556E+02  0.51100000000E-03 0. -1.
         12    1    3    3    0    0 -0.21320909982E+02  0.13852727244E+00  0.13566898569E+02  0.25271745667E+02  0.00000000000E+00 0. -1.
</event>
<event>
 7    1  0.2110035E-010  0.4778726E+02  0.7816164E-02  0.1312668E+00
        -11   -1    0    0    0    0  0.00000000000E+00  0.00000000000E+00  0.45593999997E+02  0.45594000000E+02  0.51100000000E-03 0.  1.
         11   -1    0    0    0    0 -0.00000000000E+00 -0.00000000000E+00 -0.45593999997E+02  0.45594000000E+02  0.51100000000E-03 0. -1.
    9900012    2    1    2    0    0  0.35231047160E+02  0.73623939280E+01 -0.24252675853E+02  0.47787264818E+02  0.19999971610E+02 0.  0.
        -12    1    1    2    0    0 -0.35231047160E+02 -0.73623939280E+01  0.24252675853E+02  0.43400735182E+02  0.00000000000E+00 0.  1.
         11    1    3    3    0    0  0.13876948506E+02 -0.46762853994E+00 -0.52119960303E+01  0.14830821932E+02  0.51100000000E-03 0. -1.
        -11    1    3    3    0    0  0.19028072879E+02  0.41223700279E+01 -0.79440765914E+01  0.21027835012E+02  0.51100000000E-03 0.  1.
        -12    1    3    3    0    0  0.23260257740E+01  0.37076524401E+01 -0.11096603231E+02  0.11928607873E+02  0.00000000000E+00 0.  1.
</event>
<event>
 7    1  0.2110035E-010  0.4778727E+02  0.7816164E-02  0.1312668E+00
        -11   -1    0    0    0    0  0.00000000000E+00  0.00000000000E+00  0.45593999997E+02  0.45594000000E+02  0.51100000000E-03 0.  1.
         11   -1    0    0    0    0 -0.00000000000E+00 -0.00000000000E+00 -0.45593999997E+02  0.45594000000E+02  0.51100000000E-03 0. -1.
    9900012    2    1    2    0    0  0.82866784185E+01  0.34732175638E+02 -0.24670427766E+02  0.47787273394E+02  0.20000010713E+02 0.  0.
        -12    1    1    2    0    0 -0.82866784185E+01 -0.34732175638E+02  0.24670427766E+02  0.43400726606E+02  0.00000000000E+00 0.  1.
         11    1    3    3    0    0 -0.57619514478E+01  0.79721301151E+01 -0.37127151497E+01  0.10513762272E+02  0.51100000000E-03 0. -1.
        -11    1    3    3    0    0  0.56803150580E+01  0.52506808154E+01 -0.56380709281E+01  0.95720150561E+01  0.51100000000E-03 0.  1.
         12    1    3    3    0    0  0.83683148082E+01  0.21509364708E+02 -0.15319641689E+02  0.27701496066E+02  0.00000000000E+00 0. -1.
</event>
<event>
 7    1  0.2110035E-010  0.4778727E+02  0.7816164E-02  0.1312668E+00
        -11   -1    0    0    0    0  0.00000000000E+00  0.00000000000E+00  0.45593999997E+02  0.45594000000E+02  0.51100000000E-03 0.  1.
         11   -1    0    0    0    0 -0.00000000000E+00 -0.00000000000E+00 -0.45593999997E+02  0.45594000000E+02  0.51100000000E-03 0. -1.
    9900012    2    1    2    0    0 -0.37684768745E+02  0.20006051247E+02 -0.79523103940E+01  0.47787272789E+02  0.20000007955E+02 0.  0.
        -12    1    1    2    0    0  0.37684768745E+02 -0.20006051247E+02  0.79523103940E+01  0.43400727211E+02  0.00000000000E+00 0.  1.
         11    1    3    3    0    0 -0.14671406124E+02  0.94506919855E+01 -0.47711019490E+00  0.17458332425E+02  0.51100000000E-03 0. -1.
        -11    1    3    3    0    0 -0.17162397523E+02 -0.17592604836E+00 -0.46989225047E+01  0.17794906903E+02  0.51100000000E-03 0.  1.
         12    1    3    3    0    0 -0.58509650976E+01  0.10731285310E+02 -0.27762776945E+01  0.12534033461E+02  0.00000000000E+00 0. -1.
</event>
<event>
 7    1  0.2110035E-010  0.4778725E+02  0.7816164E-02  0.1312668E+00
        -11   -1    0    0    0    0  0.00000000000E+00  0.00000000000E+00  0.45593999997E+02  0.45594000000E+02  0.51100000000E-03 0.  1.
         11   -1    0    0    0    0 -0.00000000000E+00 -0.00000000000E+00 -0.45593999997E+02  0.45594000000E+02  0.51100000000E-03 0. -1.
    9900012    2    1    2    0    0 -0.28083592878E+02  0.31928006307E+00 -0.33088287756E+02  0.47787252134E+02  0.19999913781E+02 0.  0.
        -12    1    1    2    0    0  0.28083592878E+02 -0.31928006307E+00  0.33088287756E+02  0.43400747866E+02  0.00000000000E+00 0.  1.
         11    1    3    3    0    0 -0.26929193959E+01  0.97644464208E+00 -0.42630101969E+01  0.51360018703E+01  0.51100000000E-03 0. -1.
        -11    1    3    3    0    0 -0.42710008188E+01 -0.72365296292E+01 -0.37163661887E+01  0.91880458737E+01  0.51100000000E-03 0.  1.
        -12    1    3    3    0    0 -0.21119672663E+02  0.65793650501E+01 -0.25108911371E+02  0.33463204390E+02  0.00000000000E+00 0.  1.
</event>
<event>
 7    1  0.2110035E-010  0.4778727E+02  0.7816164E-02  0.1312668E+00
        -11   -1    0    0    0    0  0.00000000000E+00  0.00000000000E+00  0.45593999997E+02  0.45594000000E+02  0.51100000000E-03 0. -1.
         11   -1    0    0    0    0 -0.00000000000E+00 -0.00000000000E+00 -0.45593999997E+02  0.45594000000E+02  0.51100000000E-03 0.  1.
    9900012    2    1    2    0    0 -0.16740107804E+02  0.35809392796E+02 -0.17918693991E+02  0.47787269407E+02  0.19999992533E+02 0.  0.
        -12    1    1    2    0    0  0.16740107804E+02 -0.35809392796E+02  0.17918693991E+02  0.43400730593E+02  0.00000000000E+00 0.  1.
         11    1    3    3    0    0  0.42830409197E+00  0.44564196536E+01  0.72912200615E+00  0.45359386774E+01  0.51100000000E-03 0. -1.
        -11    1    3    3    0    0 -0.12301870308E+02  0.31003837445E+02 -0.18950894121E+02  0.38362877077E+02  0.51100000000E-03 0.  1.
         12    1    3    3    0    0 -0.48665415876E+01  0.34913569742E+00  0.30307812392E+00  0.48884536521E+01  0.00000000000E+00 0. -1.
</event>
<event>
 7    1  0.2110035E-010  0.4778728E+02  0.7816164E-02  0.1312668E+00
        -11   -1    0    0    0    0  0.00000000000E+00  0.00000000000E+00  0.45593999997E+02  0.45594000000E+02  0.51100000000E-03 0.  1.
         11   -1    0    0    0    0 -0.00000000000E+00 -0.00000000000E+00 -0.45593999997E+02  0.45594000000E+02  0.51100000000E-03 0. -1.
    9900012    2    1    2    0    0  0.27897786945E+02 -0.24559515763E+01 -0.33155757316E+02  0.47787280446E+02  0.20000042866E+02 0.  0.
        -12    1    1    2    0    0 -0.27897786945E+02  0.24559515763E+01  0.33155757316E+02  0.43400719554E+02  0.00000000000E+00 0.  1.
         11    1    3    3    0    0  0.20921407462E+02 -0.59255949968E+01 -0.17486507339E+02  0.27903331440E+02  0.51100000000E-03 0. -1.
        -11    1    3    3    0    0  0.95325025113E+00 -0.11260300488E+01 -0.10750132570E+02  0.10850897670E+02  0.51100000000E-03 0.  1.
        -12    1    3    3    0    0  0.60231292315E+01  0.45956734693E+01 -0.49191174073E+01  0.90330513362E+01  0.00000000000E+00 0.  1.
</event>
<event>
 7    1  0.2110035E-010  0.4778727E+02  0.7816164E-02  0.1312668E+00
        -11   -1    0    0    0    0  0.00000000000E+00  0.00000000000E+00  0.45593999997E+02  0.45594000000E+02  0.51100000000E-03 0. -1.
         11   -1    0    0    0    0 -0.00000000000E+00 -0.00000000000E+00 -0.45593999997E+02  0.45594000000E+02  0.51100000000E-03 0.  1.
    9900012    2    1    2    0    0  0.37582462025E+02 -0.18376198534E+02  0.11554089765E+02  0.47787272878E+02  0.20000008358E+02 0.  0.
        -12    1    1    2    0    0 -0.37582462025E+02  0.18376198534E+02 -0.11554089765E+02  0.43400727122E+02  0.00000000000E+00 0.  1.
         11    1    3    3    0    0  0.11267478342E+02 -0.75337404453E+01 -0.93632125215E+00  0.13586390656E+02  0.51100000000E-03 0. -1.
        -11    1    3    3    0    0 -0.73195889556E+00 -0.19248237715E+01  0.39736072923E+01  0.44755184673E+01  0.51100000000E-03 0.  1.
         12    1    3    3    0    0  0.27046942579E+02 -0.89176343175E+01  0.85168037244E+01  0.29725363755E+02  0.00000000000E+00 0. -1.
</event>
<event>
 7    1  0.2110035E-010  0.4778727E+02  0.7816164E-02  0.1312668E+00
        -11   -1    0    0    0    0  0.00000000000E+00  0.00000000000E+00  0.45593999997E+02  0.45594000000E+02  0.51100000000E-03 0.  1.
         11   -1    0    0    0    0 -0.00000000000E+00 -0.00000000000E+00 -0.45593999997E+02  0.45594000000E+02  0.51100000000E-03 0. -1.
    9900012    2    1    2    0    0  0.13317249336E+02 -0.19442293420E+01 -0.41261293229E+02  0.47787268709E+02  0.19999989353E+02 0.  0.
        -12    1    1    2    0    0 -0.13317249336E+02  0.19442293420E+01  0.41261293229E+02  0.43400731291E+02  0.00000000000E+00 0.  1.
         11    1    3    3    0    0  0.14979783052E+02 -0.39024504236E+01 -0.24930056921E+02  0.29345029527E+02  0.51100000000E-03 0. -1.
        -11    1    3    3    0    0  0.67261012587E+00  0.43412308078E+01 -0.51262992903E+01  0.67511209427E+01  0.51100000000E-03 0.  1.
        -12    1    3    3    0    0 -0.23351438417E+01 -0.23830097262E+01 -0.11204937018E+02  0.11691118239E+02  0.00000000000E+00 0.  1.
</event>
<event>
 7    1 -0.2110035E-010  0.4778727E+02  0.7816164E-02  0.1312668E+00
        -11   -1    0    0    0    0  0.00000000000E+00  0.00000000000E+00  0.45593999997E+02  0.45594000000E+02  0.51100000000E-03 0.  1.
         11   -1    0    0    0    0 -0.00000000000E+00 -0.00000000000E+00 -0.45593999997E+02  0.45594000000E+02  0.51100000000E-03 0. -1.
    9900012    2    1    2    0    0 -0.11737858993E+01 -0.43194872582E+02 -0.40556904648E+01  0.47787269409E+02  0.19999992542E+02 0.  0.
        -12    1    1    2    0    0  0.11737858993E+01  0.43194872582E+02  0.40556904648E+01  0.43400730591E+02  0.00000000000E+00 0.  1.
         11    1    3    3    0    0 -0.45321010043E+01 -0.10783350349E+01  0.18748971958E+01  0.50217512599E+01  0.51100000000E-03 0. -1.
        -11    1    3    3    0    0 -0.51270260269E-01 -0.11382551995E+02 -0.70426059474E+00  0.11404433427E+02  0.51100000000E-03 0.  1.
         12    1    3    3    0    0  0.34095853653E+01 -0.30733985552E+02 -0.52263270658E+01  0.31361084721E+02  0.00000000000E+00 0. -1.
</event>
<event>
 7    1  0.2110035E-010  0.4778727E+02  0.7816164E-02  0.1312668E+00
        -11   -1    0    0    0    0  0.00000000000E+00  0.00000000000E+00  0.45593999997E+02  0.45594000000E+02  0.51100000000E-03 0.  1.
         11   -1    0    0    0    0 -0.00000000000E+00 -0.00000000000E+00 -0.45593999997E+02  0.45594000000E+02  0.51100000000E-03 0. -1.
    9900012    2    1    2    0    0 -0.25423446484E+02 -0.31911660724E+02 -0.14795866657E+02  0.47787269690E+02  0.19999993824E+02 0.  0.
        -12    1    1    2    0    0  0.25423446484E+02  0.31911660724E+02  0.14795866657E+02  0.43400730310E+02  0.00000000000E+00 0.  1.
         11    1    3    3    0    0 -0.55112064583E+00  0.10877841827E+01 -0.23231956574E+01  0.26237848079E+01  0.51100000000E-03 0. -1.
        -11    1    3    3    0    0 -0.93086874696E+01 -0.16759732098E+02  0.53678544802E+00  0.19178853492E+02  0.51100000000E-03 0.  1.
        -12    1    3    3    0    0 -0.15563638369E+02 -0.16239712809E+02 -0.13009456448E+02  0.25984631390E+02  0.00000000000E+00 0.  1.
</event>
<event>
 7    1  0.2110035E-010  0.4778727E+02  0.7816164E-02  0.1312668E+00
        -11   -1    0    0    0    0  0.00000000000E+00  0.00000000000E+00  0.45593999997E+02  0.45594000000E+02  0.51100000000E-03 0.  1.
         11   -1    0    0    0    0 -0.00000000000E+00 -0.00000000000E+00 -0.45593999997E+02  0.45594000000E+02  0.51100000000E-03 0. -1.
    9900012    2    1    2    0    0 -0.25669921592E+02 -0.42947873160E+01 -0.34730868138E+02  0.47787271040E+02  0.19999999980E+02 0.  0.
        -12    1    1    2    0    0  0.25669921592E+02  0.42947873160E+01  0.34730868138E+02  0.43400728960E+02  0.00000000000E+00 0.  1.
         11    1    3    3    0    0  0.14275858244E+00 -0.37885744283E+01  0.31461194012E+00  0.38042945661E+01  0.51100000000E-03 0. -1.
        -11    1    3    3    0    0 -0.58327395764E+01  0.10558240777E+01 -0.12393977141E+02  0.13738496464E+02  0.51100000000E-03 0.  1.
         12    1    3    3    0    0 -0.19979940598E+02 -0.15620369653E+01 -0.22651502938E+02  0.30244480010E+02  0.00000000000E+00 0. -1.
</event>
<event>
 7    1  0.2494857E-010  0.4778727E+02  0.7816164E-02  0.1312668E+00
        -11   -1    0    0    0    0  0.00000000000E+00  0.00000000000E+00  0.45593999997E+02  0.45594000000E+02  0.51100000000E-03 0.  1.
         11   -1    0    0    0    0 -0.00000000000E+00 -0.00000000000E+00 -0.45593999997E+02  0.45594000000E+02  0.51100000000E-03 0. -1.
    9900012    2    1    2    0    0 -0.16600092318E+02 -0.26993110648E+02 -0.29655220649E+02  0.47787271905E+02  0.20000003922E+02 0.  0.
        -12    1    1    2    0    0  0.16600092318E+02  0.26993110648E+02  0.29655220649E+02  0.43400728095E+02  0.00000000000E+00 0.  1.
         11    1    3    3    0    0 -0.36031312068E+01 -0.29654185728E+01 -0.92239456291E+01  0.10337186998E+02  0.51100000000E-03 0. -1.
        -11    1    3    3    0    0 -0.29332229197E+01 -0.20213980057E+02 -0.11342940579E+02  0.23363884260E+02  0.51100000000E-03 0.  1.
        -12    1    3    3    0    0 -0.10063738192E+02 -0.38137120182E+01 -0.90883344409E+01  0.14086200647E+02  0.00000000000E+00 0.  1.
</event>
<event>
 7    1  0.2110035E-010  0.4778727E+02  0.7816164E-02  0.1312668E+00
        -11   -1    0    0    0    0  0.00000000000E+00  0.00000000000E+00  0.45593999997E+02  0.45594000000E+02  0.51100000000E-03 0.  1.
         11   -1    0    0    0    0 -0.00000000000E+00 -0.00000000000E+00 -0.45593999997E+02  0.45594000000E+02  0.51100000000E-03 0. -1.
    9900012    2    1    2    0    0  0.38930590144E+02 -0.15601305628E+02 -0.11163861304E+02  0.47787269758E+02  0.19999994137E+02 0.  0.
        -12    1    1    2    0    0 -0.38930590144E+02  0.15601305628E+02  0.11163861304E+02  0.43400730242E+02  0.00000000000E+00 0.  1.
         11    1    3    3    0    0  0.49151814568E+01 -0.68464317102E+01  0.32788297568E-01  0.84281499304E+01  0.51100000000E-03 0. -1.
        -11    1    3    3    0    0  0.30223923722E+01 -0.55301482219E+01 -0.16718050578E+00  0.63043908977E+01  0.51100000000E-03 0.  1.
         12    1    3    3    0    0  0.30993016315E+02 -0.32247256960E+01 -0.11029469095E+02  0.33054728930E+02  0.00000000000E+00 0. -1.
</event>
<event>
 7    1  0.2110035E-010  0.4778727E+02  0.7816164E-02  0.1312668E+00
        -11   -1    0    0    0    0  0.00000000000E+00  0.00000000000E+00  0.45593999997E+02  0.45594000000E+02  0.51100000000E-03 0.  1.
         11   -1    0    0    0    0 -0.00000000000E+00 -0.00000000000E+00 -0.45593999997E+02  0.45594000000E+02  0.51100000000E-03 0. -1.
    9900012    2    1    2    0    0 -0.23131161173E+02  0.62992210096E+01 -0.36178617669E+02  0.47787272137E+02  0.20000004983E+02 0.  0.
        -12    1    1    2    0    0  0.23131161173E+02 -0.62992210096E+01  0.36178617669E+02  0.43400727863E+02  0.00000000000E+00 0.  1.
         11    1    3    3    0    0 -0.13923190528E+02  0.11699573151E+01 -0.99022857363E+01  0.17125399198E+02  0.51100000000E-03 0. -1.
        -11    1    3    3    0    0 -0.86376734725E+01 -0.95979236340E+00 -0.98603904523E+01  0.13143740127E+02  0.51100000000E-03 0.  1.
        -12    1    3    3    0    0 -0.57029717215E+00  0.60890560579E+01 -0.16415941481E+02  0.17518132813E+02  0.00000000000E+00 0.  1.
</event>
<event>
 7    1  0.2110035E-010  0.4778726E+02  0.7816164E-02  0.1312668E+00
        -11   -1    0    0    0    0  0.00000000000E+00  0.00000000000E+00  0.45593999997E+02  0.45594000000E+02  0.51100000000E-03 0.  1.
         11   -1    0    0    0    0 -0.00000000000E+00 -0.00000000000E+00 -0.45593999997E+02  0.45594000000E+02  0.51100000000E-03 0. -1.
    9900012    2    1    2    0    0  0.87363657569E+01  0.38549255806E+02  0.17923584410E+02  0.47787261666E+02  0.19999957240E+02 0.  0.
        -12    1    1    2    0    0 -0.87363657569E+01 -0.38549255806E+02 -0.17923584410E+02  0.43400738334E+02  0.00000000000E+00 0.  1.
         11    1    3    3    0    0  0.27339361158E+01  0.14917046613E+02  0.11034720065E+02  0.18755205505E+02  0.51100000000E-03 0. -1.
        -11    1    3    3    0    0 -0.40195738636E+01  0.58587998925E+01 -0.96115043505E+00  0.71698201264E+01  0.51100000000E-03 0.  1.
         12    1    3    3    0    0  0.10022003505E+02  0.17773409300E+02  0.78500147795E+01  0.21862236035E+02  0.00000000000E+00 0. -1.
</event>
<event>
 7    1  0.2416968E-010  0.4778727E+02  0.7816164E-02  0.1312668E+00
        -11   -1    0    0    0    0  0.00000000000E+00  0.00000000000E+00  0.45593999997E+02  0.45594000000E+02  0.51100000000E-03 0. -1.
         11   -1    0    0    0    0 -0.00000000000E+00 -0.00000000000E+00 -0.45593999997E+02  0.45594000000E+02  0.51100000000E-03 0.  1.
    9900012    2    1    2    0    0 -0.26710797515E+02  0.19458179720E+02  0.28134246298E+02  0.47787271012E+02  0.19999999853E+02 0.  0.
        -12    1    1    2    0    0  0.26710797515E+02 -0.19458179720E+02 -0.28134246298E+02  0.43400728988E+02  0.00000000000E+00 0.  1.
         11    1    3    3    0    0 -0.44442529707E+01  0.21467617298E+01  0.86832856356E+01  0.99879637605E+01  0.51100000000E-03 0. -1.
        -11    1    3    3    0    0 -0.44413148435E+01  0.10241870500E+02  0.10331463977E+01  0.11211091856E+02  0.51100000000E-03 0.  1.
        -12    1    3    3    0    0 -0.17825229701E+02  0.70695474907E+01  0.18417814265E+02  0.26588215395E+02  0.00000000000E+00 0.  1.
</event>
<event>
 7    1  0.2110035E-010  0.4778727E+02  0.7816164E-02  0.1312668E+00
        -11   -1    0    0    0    0  0.00000000000E+00  0.00000000000E+00  0.45593999997E+02  0.45594000000E+02  0.51100000000E-03 0.  1.
         11   -1    0    0    0    0 -0.00000000000E+00 -0.00000000000E+00 -0.45593999997E+02  0.45594000000E+02  0.51100000000E-03 0. -1.
    9900012    2    1    2    0    0 -0.58005039984E+01 -0.41325225042E+02  0.11924897691E+02  0.47787271246E+02  0.20000000921E+02 0.  0.
        -12    1    1    2    0    0  0.58005039984E+01  0.41325225042E+02 -0.11924897691E+02  0.43400728754E+02  0.00000000000E+00 0.  1.
         11    1    3    3    0    0  0.22558700350E+01 -0.40953080262E+01 -0.29208887629E+01  0.55129020371E+01  0.51100000000E-03 0. -1.
        -11    1    3    3    0    0 -0.44596342179E-01 -0.23836358326E+02  0.72323693227E+01  0.24909458713E+02  0.51100000000E-03 0.  1.
        -12    1    3    3    0    0 -0.80117776912E+01 -0.13393558690E+02  0.76134171308E+01  0.17364910497E+02  0.00000000000E+00 0.  1.
</event>
<event>
 7    1  0.2110035E-010  0.4778726E+02  0.7816164E-02  0.1312668E+00
        -11   -1    0    0    0    0  0.00000000000E+00  0.00000000000E+00  0.45593999997E+02  0.45594000000E+02  0.51100000000E-03 0.  1.
         11   -1    0    0    0    0 -0.00000000000E+00 -0.00000000000E+00 -0.45593999997E+02  0.45594000000E+02  0.51100000000E-03 0. -1.
    9900012    2    1    2    0    0 -0.10693536410E+02 -0.69689677870E+01 -0.41481389890E+02  0.47787263369E+02  0.19999965004E+02 0.  0.
        -12    1    1    2    0    0  0.10693536410E+02  0.69689677870E+01  0.41481389890E+02  0.43400736631E+02  0.00000000000E+00 0.  1.
         11    1    3    3    0    0 -0.37210373802E+01 -0.88554468084E+01 -0.32214883455E+02  0.33616421190E+02  0.51100000000E-03 0. -1.
        -11    1    3    3    0    0 -0.15369644148E+01  0.31199414557E+01 -0.75924452934E+01  0.83511388502E+01  0.51100000000E-03 0.  1.
        -12    1    3    3    0    0 -0.54355346149E+01 -0.12334624344E+01 -0.16740611412E+01  0.58197033285E+01  0.00000000000E+00 0.  1.
</event>
<event>
 7    1  0.2110035E-010  0.4778727E+02  0.7816164E-02  0.1312668E+00
        -11   -1    0    0    0    0  0.00000000000E+00  0.00000000000E+00  0.45593999997E+02  0.45594000000E+02  0.51100000000E-03 0.  1.
         11   -1    0    0    0    0 -0.00000000000E+00 -0.00000000000E+00 -0.45593999997E+02  0.45594000000E+02  0.51100000000E-03 0. -1.
    9900012    2    1    2    0    0  0.19359576672E+02 -0.27704487197E+02 -0.27226669132E+02  0.47787270377E+02  0.19999996955E+02 0.  0.
        -12    1    1    2    0    0 -0.19359576672E+02  0.27704487197E+02  0.27226669132E+02  0.43400729623E+02  0.00000000000E+00 0.  1.
         11    1    3    3    0    0  0.11163642343E+02 -0.17419612350E+02 -0.11209377915E+02  0.23531254924E+02  0.51100000000E-03 0.  1.
        -11    1    3    3    0    0 -0.74886881990E+00  0.14545168524E+01  0.84976590697E+00  0.18435091920E+01  0.51100000000E-03 0. -1.
         12    1    3    3    0    0  0.89448031492E+01 -0.11739391699E+02 -0.16867057124E+02  0.22412506260E+02  0.00000000000E+00 0. -1.
</event>
<event>
 7    1  0.2110035E-010  0.4778727E+02  0.7816164E-02  0.1312668E+00
        -11   -1    0    0    0    0  0.00000000000E+00  0.00000000000E+00  0.45593999997E+02  0.45594000000E+02  0.51100000000E-03 0.  1.
         11   -1    0    0    0    0 -0.00000000000E+00 -0.00000000000E+00 -0.45593999997E+02  0.45594000000E+02  0.51100000000E-03 0. -1.
    9900012    2    1    2    0    0  0.16486023480E+02 -0.31820429266E+02 -0.24480488851E+02  0.47787273932E+02  0.20000013163E+02 0.  0.
        -12    1    1    2    0    0 -0.16486023480E+02  0.31820429266E+02  0.24480488851E+02  0.43400726068E+02  0.00000000000E+00 0.  1.
         11    1    3    3    0    0  0.12625296223E+02 -0.29413434333E+02 -0.18424041291E+02  0.36932282921E+02  0.51100000000E-03 0. -1.
        -11    1    3    3    0    0  0.17111536137E+01 -0.27408935576E+01 -0.75526233332E+01  0.82147832387E+01  0.51100000000E-03 0.  1.
         12    1    3    3    0    0  0.21495736429E+01  0.33389862407E+00  0.14961757729E+01  0.26402077723E+01  0.00000000000E+00 0. -1.
</event>
<event>
 7    1  0.2110035E-010  0.4778727E+02  0.7816164E-02  0.1312668E+00
        -11   -1    0    0    0    0  0.00000000000E+00  0.00000000000E+00  0.45593999997E+02  0.45594000000E+02  0.51100000000E-03 0. -1.
         11   -1    0    0    0    0 -0.00000000000E+00 -0.00000000000E+00 -0.45593999997E+02  0.45594000000E+02  0.51100000000E-03 0.  1.
    9900012    2    1    2    0    0  0.34032167220E+02  0.25948367164E+02 -0.72192208123E+01  0.47787270590E+02  0.19999997929E+02 0.  0.
        -12    1    1    2    0    0 -0.34032167220E+02 -0.25948367164E+02  0.72192208123E+01  0.43400729410E+02  0.00000000000E+00 0.  1.
         11    1    3    3    0    0  0.17496946925E+02  0.73027674817E+01 -0.11049223942E+02  0.21944450656E+02  0.51100000000E-03 0.  1.
        -11    1    3    3    0    0  0.12129855104E+02  0.13461001000E+02  0.17729215609E+00  0.18120799252E+02  0.51100000000E-03 0. -1.
        -12    1    3    3    0    0  0.44053651907E+01  0.51845986822E+01  0.36527109739E+01  0.77220206823E+01  0.00000000000E+00 0.  1.
</event>
<event>
 7    1  0.2110035E-010  0.4778728E+02  0.7816164E-02  0.1312668E+00
        -11   -1    0    0    0    0  0.00000000000E+00  0.00000000000E+00  0.45593999997E+02  0.45594000000E+02  0.51100000000E-03 0.  1.
         11   -1    0    0    0    0 -0.00000000000E+00 -0.00000000000E+00 -0.45593999997E+02  0.45594000000E+02  0.51100000000E-03 0. -1.
    9900012    2    1    2    0    0  0.35971975963E+02 -0.12397108450E+02  0.20879451492E+02  0.47787275960E+02  0.20000022413E+02 0.  0.
        -12    1    1    2    0    0 -0.35971975963E+02  0.12397108450E+02 -0.20879451492E+02  0.43400724040E+02  0.00000000000E+00 0.  1.
         11    1    3    3    0    0  0.12148725579E+02 -0.30859766688E+01  0.77051006791E+01  0.14713373574E+02  0.51100000000E-03 0. -1.
        -11    1    3    3    0    0  0.10585760750E+02 -0.31729383079E+01 -0.28388387766E+01  0.11409858633E+02  0.51100000000E-03 0.  1.
        -12    1    3    3    0    0  0.13237489633E+02 -0.61381934730E+01  0.16013189589E+02  0.21664043753E+02  0.00000000000E+00 0.  1.
</event>
<event>
 7    1  0.2110035E-010  0.4778727E+02  0.7816164E-02  0.1312668E+00
        -11   -1    0    0    0    0  0.00000000000E+00  0.00000000000E+00  0.45593999997E+02  0.45594000000E+02  0.51100000000E-03 0.  1.
         11   -1    0    0    0    0 -0.00000000000E+00 -0.00000000000E+00 -0.45593999997E+02  0.45594000000E+02  0.51100000000E-03 0. -1.
    9900012    2    1    2    0    0  0.20410345489E+02 -0.35986078944E+02 -0.13116531408E+02  0.47787268705E+02  0.19999989336E+02 0.  0.
        -12    1    1    2    0    0 -0.20410345489E+02  0.35986078944E+02  0.13116531408E+02  0.43400731295E+02  0.00000000000E+00 0.  1.
         11    1    3    3    0    0 -0.11193850266E+01 -0.40010585406E+01 -0.35297448280E+01  0.54516594808E+01  0.51100000000E-03 0. -1.
        -11    1    3    3    0    0  0.10337853866E+02 -0.15052447125E+02  0.29231464823E+01  0.18493030379E+02  0.51100000000E-03 0.  1.
         12    1    3    3    0    0  0.11191876650E+02 -0.16932573278E+02 -0.12509933062E+02  0.23842578846E+02  0.00000000000E+00 0. -1.
</event>
<event>
 7    1  0.2110035E-010  0.4778727E+02  0.7816164E-02  0.1312668E+00
        -11   -1    0    0    0    0  0.00000000000E+00  0.00000000000E+00  0.45593999997E+02  0.45594000000E+02  0.51100000000E-03 0. -1.
         11   -1    0    0    0    0 -0.00000000000E+00 -0.00000000000E+00 -0.45593999997E+02  0.45594000000E+02  0.51100000000E-03 0.  1.
    9900012    2    1    2    0    0 -0.37729977106E+02 -0.11652409422E+02  0.18008158784E+02  0.47787267281E+02  0.19999982841E+02 0.  0.
        -12    1    1    2    0    0  0.37729977106E+02  0.11652409422E+02 -0.18008158784E+02  0.43400732719E+02  0.00000000000E+00 0.  1.
         11    1    3    3    0    0 -0.12340219226E+02 -0.96090657937E+01  0.10344448966E+01  0.15674349507E+02  0.51100000000E-03 0. -1.
        -11    1    3    3    0    0 -0.19020410957E+02 -0.56997947972E+01  0.13320386183E+02  0.23910173191E+02  0.51100000000E-03 0.  1.
        -12    1    3    3    0    0 -0.63693469223E+01  0.36564511685E+01  0.36533277047E+01  0.82027445823E+01  0.00000000000E+00 0.  1.
</event>
<event>
 7    1  0.2110035E-010  0.4778727E+02  0.7816164E-02  0.1312668E+00
        -11   -1    0    0    0    0  0.00000000000E+00  0.00000000000E+00  0.45593999997E+02  0.45594000000E+02  0.51100000000E-03 0. -1.
         11   -1    0    0    0    0 -0.00000000000E+00 -0.00000000000E+00 -0.45593999997E+02  0.45594000000E+02  0.51100000000E-03 0.  1.
    9900012    2    1    2    0    0  0.93440130427E+01  0.27468334844E+01  0.42293826053E+02  0.47787269636E+02  0.19999993577E+02 0.  0.
        -12    1    1    2    0    0 -0.93440130427E+01 -0.27468334844E+01 -0.42293826053E+02  0.43400730364E+02  0.00000000000E+00 0.  1.
         11    1    3    3    0    0  0.40563249353E+01 -0.15988987376E+01  0.16551080549E+02  0.17115738861E+02  0.51100000000E-03 0. -1.
        -11    1    3    3    0    0  0.64528541476E+00  0.12242157893E+01 -0.19657122215E+01  0.24039805249E+01  0.51100000000E-03 0.  1.
        -12    1    3    3    0    0  0.46424026926E+01  0.31215164327E+01  0.27708457725E+02  0.28267550250E+02  0.00000000000E+00 0.  1.
</event>
<event>
 7    1  0.2110035E-010  0.4778727E+02  0.7816164E-02  0.1312668E+00
        -11   -1    0    0    0    0  0.00000000000E+00  0.00000000000E+00  0.45593999997E+02  0.45594000000E+02  0.51100000000E-03 0. -1.
         11   -1    0    0    0    0 -0.00000000000E+00 -0.00000000000E+00 -0.45593999997E+02  0.45594000000E+02  0.51100000000E-03 0.  1.
    9900012    2    1    2    0    0 -0.12777117316E+02 -0.33366767861E+02  0.24637924464E+02  0.47787271362E+02  0.20000001447E+02 0.  0.
        -12    1    1    2    0    0  0.12777117316E+02  0.33366767861E+02 -0.24637924464E+02  0.43400728638E+02  0.00000000000E+00 0.  1.
         11    1    3    3    0    0 -0.42260296549E+01 -0.26097209581E+02  0.11011137799E+02  0.28638589883E+02  0.51100000000E-03 0.  1.
        -11    1    3    3    0    0 -0.58917310944E+01 -0.42668593125E+01  0.31442408231E+01  0.79249501131E+01  0.51100000000E-03 0. -1.
        -12    1    3    3    0    0 -0.26593565672E+01 -0.30026989675E+01  0.10482545842E+02  0.11223731366E+02  0.00000000000E+00 0.  1.
</event>
<event>
 7    1  0.2110035E-010  0.4778726E+02  0.7816164E-02  0.1312668E+00
        -11   -1    0    0    0    0  0.00000000000E+00  0.00000000000E+00  0.45593999997E+02  0.45594000000E+02  0.51100000000E-03 0.  1.
         11   -1    0    0    0    0 -0.00000000000E+00 -0.00000000000E+00 -0.45593999997E+02  0.45594000000E+02  0.51100000000E-03 0. -1.
    9900012    2    1    2    0    0 -0.38630074242E+02  0.22464588042E+01 -0.19654379790E+02  0.47787264315E+02  0.19999969316E+02 0.  0.
        -12    1    1    2    0    0  0.38630074242E+02 -0.22464588042E+01  0.19654379790E+02  0.43400735685E+02  0.00000000000E+00 0.  1.
         11    1    3    3    0    0 -0.26706211138E+02 -0.63993409768E+01 -0.16181164089E+02  0.31874807447E+02  0.51100000000E-03 0. -1.
        -11    1    3    3    0    0 -0.57533587115E+01  0.55011551481E+01 -0.41083217874E+01  0.89577984235E+01  0.51100000000E-03 0.  1.
         12    1    3    3    0    0 -0.61705043929E+01  0.31446446330E+01  0.63510608636E+00  0.69546584439E+01  0.00000000000E+00 0. -1.
</event>
<event>
 7    1  0.2110035E-010  0.4778729E+02  0.7816164E-02  0.1312668E+00
        -11   -1    0    0    0    0  0.00000000000E+00  0.00000000000E+00  0.45593999997E+02  0.45594000000E+02  0.51100000000E-03 0.  1.
         11   -1    0    0    0    0 -0.00000000000E+00 -0.00000000000E+00 -0.45593999997E+02  0.45594000000E+02  0.51100000000E-03 0. -1.
    9900012    2    1    2    0    0  0.27012214861E+02  0.22339260772E+02 -0.25591392150E+02  0.47787289457E+02  0.20000083948E+02 0.  0.
        -12    1    1    2    0    0 -0.27012214861E+02 -0.22339260772E+02  0.25591392150E+02  0.43400710543E+02  0.00000000000E+00 0.  1.
         11    1    3    3    0    0  0.16971990547E+02  0.39542714784E+01 -0.99072377814E+01  0.20045899501E+02  0.51100000000E-03 0. -1.
        -11    1    3    3    0    0  0.11189123682E+02  0.13474357302E+02 -0.14007071633E+02  0.22426610298E+02  0.51100000000E-03 0.  1.
        -12    1    3    3    0    0 -0.11488993684E+01  0.49106319916E+01 -0.16770827357E+01  0.53147796585E+01  0.00000000000E+00 0.  1.
</event>
<event>
 7    1  0.2110035E-010  0.4778726E+02  0.7816164E-02  0.1312668E+00
        -11   -1    0    0    0    0  0.00000000000E+00  0.00000000000E+00  0.45593999997E+02  0.45594000000E+02  0.51100000000E-03 0. -1.
         11   -1    0    0    0    0 -0.00000000000E+00 -0.00000000000E+00 -0.45593999997E+02  0.45594000000E+02  0.51100000000E-03 0.  1.
    9900012    2    1    2    0    0 -0.82161174671E+01  0.42063702927E+02 -0.68384750491E+01  0.47787257712E+02  0.19999939213E+02 0.  0.
        -12    1    1    2    0    0  0.82161174671E+01 -0.42063702927E+02  0.68384750491E+01  0.43400742288E+02  0.00000000000E+00 0.  1.
         11    1    3    3    0    0  0.25366454004E+01  0.31588913098E+01  0.37027044384E+01  0.54884592204E+01  0.51100000000E-03 0.  1.
        -11    1    3    3    0    0 -0.62137233694E+01  0.10603540596E+02 -0.27098685213E+01  0.12585261974E+02  0.51100000000E-03 0. -1.
        -12    1    3    3    0    0 -0.45390394980E+01  0.28301271021E+02 -0.78313109662E+01  0.29713536518E+02  0.00000000000E+00 0.  1.
</event>
<event>
 7    1  0.2110035E-010  0.4778728E+02  0.7816164E-02  0.1312668E+00
        -11   -1    0    0    0    0  0.00000000000E+00  0.00000000000E+00  0.45593999997E+02  0.45594000000E+02  0.51100000000E-03 0.  1.
         11   -1    0    0    0    0 -0.00000000000E+00 -0.00000000000E+00 -0.45593999997E+02  0.45594000000E+02  0.51100000000E-03 0. -1.
    9900012    2    1    2    0    0  0.20023809282E+02 -0.33527086019E+02 -0.18936853121E+02  0.47787276029E+02  0.20000022727E+02 0.  0.
        -12    1    1    2    0    0 -0.20023809282E+02  0.33527086019E+02  0.18936853121E+02  0.43400723971E+02  0.00000000000E+00 0.  1.
         11    1    3    3    0    0  0.22618266369E+01 -0.66639848018E+01  0.70721748809E+00  0.70728148576E+01  0.51100000000E-03 0. -1.
        -11    1    3    3    0    0  0.20054543106E+02 -0.26407272731E+02 -0.19256728360E+02  0.38345147538E+02  0.51100000000E-03 0.  1.
        -12    1    3    3    0    0 -0.22925604612E+01 -0.45582848661E+00 -0.38734224844E+00  0.23693136337E+01  0.00000000000E+00 0.  1.
</event>
<event>
 7    1  0.2110035E-010  0.4778727E+02  0.7816164E-02  0.1312668E+00
        -11   -1    0    0    0    0  0.00000000000E+00  0.00000000000E+00  0.45593999997E+02  0.45594000000E+02  0.51100000000E-03 0.  1.
         11   -1    0    0    0    0 -0.00000000000E+00 -0.00000000000E+00 -0.45593999997E+02  0.45594000000E+02  0.51100000000E-03 0. -1.
    9900012    2    1    2    0    0  0.79257124282E+01  0.35721852412E+02 -0.23340002604E+02  0.47787269836E+02  0.19999994491E+02 0.  0.
        -12    1    1    2    0    0 -0.79257124282E+01 -0.35721852412E+02  0.23340002604E+02  0.43400730164E+02  0.00000000000E+00 0.  1.
         11    1    3    3    0    0 -0.12259429176E+01  0.42590544019E+01 -0.10103347226E+02  0.11032683530E+02  0.51100000000E-03 0. -1.
        -11    1    3    3    0    0  0.65770784321E+01  0.67911134169E+01 -0.29849683267E+01  0.99139910387E+01  0.51100000000E-03 0.  1.
         12    1    3    3    0    0  0.25745769137E+01  0.24671684593E+02 -0.10251687051E+02  0.26840595268E+02  0.00000000000E+00 0. -1.
</event>
<event>
 7    1  0.2110035E-010  0.4778727E+02  0.7816164E-02  0.1312668E+00
        -11   -1    0    0    0    0  0.00000000000E+00  0.00000000000E+00  0.45593999997E+02  0.45594000000E+02  0.51100000000E-03 0. -1.
         11   -1    0    0    0    0 -0.00000000000E+00 -0.00000000000E+00 -0.45593999997E+02  0.45594000000E+02  0.51100000000E-03 0.  1.
    9900012    2    1    2    0    0  0.24542869241E+02 -0.15223890045E+02  0.32396049201E+02  0.47787271175E+02  0.20000000596E+02 0.  0.
        -12    1    1    2    0    0 -0.24542869241E+02  0.15223890045E+02 -0.32396049201E+02  0.43400728825E+02  0.00000000000E+00 0.  1.
         11    1    3    3    0    0  0.26659032876E+01  0.35152493671E+01  0.38331292240E+01  0.58443903326E+01  0.51100000000E-03 0. -1.
        -11    1    3    3    0    0  0.32853968912E+01 -0.92228852309E+01  0.10103085825E+02  0.14068681110E+02  0.51100000000E-03 0.  1.
         12    1    3    3    0    0  0.18591569062E+02 -0.95162541809E+01  0.18459834152E+02  0.27874199733E+02  0.00000000000E+00 0. -1.
</event>
<event>
 7    1  0.2110035E-010  0.4778727E+02  0.7816164E-02  0.1312668E+00
        -11   -1    0    0    0    0  0.00000000000E+00  0.00000000000E+00  0.45593999997E+02  0.45594000000E+02  0.51100000000E-03 0.  1.
         11   -1    0    0    0    0 -0.00000000000E+00 -0.00000000000E+00 -0.45593999997E+02  0.45594000000E+02  0.51100000000E-03 0. -1.
    9900012    2    1    2    0    0 -0.39844406251E+02  0.15226353723E+02 -0.80127860614E+01  0.47787270770E+02  0.19999998751E+02 0.  0.
        -12    1    1    2    0    0  0.39844406251E+02 -0.15226353723E+02  0.80127860614E+01  0.43400729230E+02  0.00000000000E+00 0.  1.
         11    1    3    3    0    0 -0.17342820380E+02 -0.21815342340E+01 -0.27666843745E+00  0.17481677724E+02  0.51100000000E-03 0. -1.
        -11    1    3    3    0    0 -0.48351672136E+01  0.62133116691E+00 -0.20033206465E+01  0.52705017102E+01  0.51100000000E-03 0.  1.
         12    1    3    3    0    0 -0.17666418657E+02  0.16786556791E+02 -0.57327969774E+01  0.25035091337E+02  0.00000000000E+00 0. -1.
</event>
<event>
 7    1  0.2110035E-010  0.4778726E+02  0.7816164E-02  0.1312668E+00
        -11   -1    0    0    0    0  0.00000000000E+00  0.00000000000E+00  0.45593999997E+02  0.45594000000E+02  0.51100000000E-03 0.  1.
         11   -1    0    0    0    0 -0.00000000000E+00 -0.00000000000E+00 -0.45593999997E+02  0.45594000000E+02  0.51100000000E-03 0. -1.
    9900012    2    1    2    0    0 -0.22925302237E+02 -0.20768262460E+02 -0.30442302935E+02  0.47787262491E+02  0.19999961004E+02 0.  0.
        -12    1    1    2    0    0  0.22925302237E+02  0.20768262460E+02  0.30442302935E+02  0.43400737509E+02  0.00000000000E+00 0.  1.
         11    1    3    3    0    0 -0.80605583259E+01 -0.16741665086E+01 -0.58035065262E+01  0.10072542990E+02  0.51100000000E-03 0. -1.
        -11    1    3    3    0    0 -0.54088866656E+01 -0.11998041860E+02 -0.37036366760E+01  0.13672087928E+02  0.51100000000E-03 0.  1.
        -12    1    3    3    0    0 -0.94558572459E+01 -0.70960540921E+01 -0.20935159733E+02  0.24042631573E+02  0.00000000000E+00 0.  1.
</event>
<event>
 7    1  0.2110035E-010  0.4778727E+02  0.7816164E-02  0.1312668E+00
        -11   -1    0    0    0    0  0.00000000000E+00  0.00000000000E+00  0.45593999997E+02  0.45594000000E+02  0.51100000000E-03 0. -1.
         11   -1    0    0    0    0 -0.00000000000E+00 -0.00000000000E+00 -0.45593999997E+02  0.45594000000E+02  0.51100000000E-03 0.  1.
    9900012    2    1    2    0    0  0.17471015022E+02  0.36262803086E+02  0.16229474477E+02  0.47787273101E+02  0.20000009375E+02 0.  0.
        -12    1    1    2    0    0 -0.17471015022E+02 -0.36262803086E+02 -0.16229474477E+02  0.43400726899E+02  0.00000000000E+00 0.  1.
         11    1    3    3    0    0  0.57890879747E+00  0.87319477912E+01  0.88972348224E+00  0.87962296332E+01  0.51100000000E-03 0. -1.
        -11    1    3    3    0    0  0.17213503087E+02  0.15862065168E+02  0.63387557353E+01  0.24250559261E+02  0.51100000000E-03 0.  1.
        -12    1    3    3    0    0 -0.32139686309E+00  0.11668790127E+02  0.90009952599E+01  0.14740484207E+02  0.00000000000E+00 0.  1.
</event>
<event>
 7    1  0.2110035E-010  0.4778724E+02  0.7816164E-02  0.1312668E+00
        -11   -1    0    0    0    0  0.00000000000E+00  0.00000000000E+00  0.45593999997E+02  0.45594000000E+02  0.51100000000E-03 0.  1.
         11   -1    0    0    0    0 -0.00000000000E+00 -0.00000000000E+00 -0.45593999997E+02  0.45594000000E+02  0.51100000000E-03 0. -1.
    9900012    2    1    2    0    0  0.35861292901E+02 -0.80724706813E+01 -0.23074414706E+02  0.47787242801E+02  0.19999871226E+02 0.  0.
        -12    1    1    2    0    0 -0.35861292901E+02  0.80724706813E+01  0.23074414706E+02  0.43400757199E+02  0.00000000000E+00 0.  1.
         11    1    3    3    0    0  0.91253304763E+01 -0.64707219215E+01 -0.65234177418E+01  0.12949782924E+02  0.51100000000E-03 0. -1.
        -11    1    3    3    0    0  0.10908291985E+02  0.21261194032E+01  0.69385786625E+00  0.11135198999E+02  0.51100000000E-03 0.  1.
        -12    1    3    3    0    0  0.15827670440E+02 -0.37278681630E+01 -0.17244854830E+02  0.23702260878E+02  0.00000000000E+00 0.  1.
</event>
<event>
 7    1  0.2110035E-010  0.4778727E+02  0.7816164E-02  0.1312668E+00
        -11   -1    0    0    0    0  0.00000000000E+00  0.00000000000E+00  0.45593999997E+02  0.45594000000E+02  0.51100000000E-03 0.  1.
         11   -1    0    0    0    0 -0.00000000000E+00 -0.00000000000E+00 -0.45593999997E+02  0.45594000000E+02  0.51100000000E-03 0. -1.
    9900012    2    1    2    0    0 -0.15479312059E+02 -0.25414467538E+01 -0.40466723052E+02  0.47787265812E+02  0.19999976145E+02 0.  0.
        -12    1    1    2    0    0  0.15479312059E+02  0.25414467538E+01  0.40466723052E+02  0.43400734188E+02  0.00000000000E+00 0.  1.
         11    1    3    3    0    0 -0.76244611014E+01 -0.14840717729E+01 -0.36560204530E+02  0.37376241540E+02  0.51100000000E-03 0. -1.
        -11    1    3    3    0    0 -0.56279516047E+01  0.10689732523E+01 -0.44883669526E+01  0.72774982818E+01  0.51100000000E-03 0.  1.
         12    1    3    3    0    0 -0.22268993530E+01 -0.21263482332E+01  0.58184843023E+00  0.31335259905E+01  0.00000000000E+00 0. -1.
</event>
<event>
 7    1  0.2110035E-010  0.4778728E+02  0.7816164E-02  0.1312668E+00
        -11   -1    0    0    0    0  0.00000000000E+00  0.00000000000E+00  0.45593999997E+02  0.45594000000E+02  0.51100000000E-03 0.  1.
         11   -1    0    0    0    0 -0.00000000000E+00 -0.00000000000E+00 -0.45593999997E+02  0.45594000000E+02  0.51100000000E-03 0. -1.
    9900012    2    1    2    0    0  0.29608299682E+02 -0.18980763467E+00 -0.31732244858E+02  0.47787276495E+02  0.20000024851E+02 0.  0.
        -12    1    1    2    0    0 -0.29608299682E+02  0.18980763467E+00  0.31732244858E+02  0.43400723505E+02  0.00000000000E+00 0.  1.
         11    1    3    3    0    0  0.81902910876E+01  0.50820323439E+01 -0.18088916541E+02  0.20496751517E+02  0.51100000000E-03 0. -1.
        -11    1    3    3    0    0  0.13462552192E+02 -0.32362580624E+01 -0.13099623506E+02  0.19060792586E+02  0.51100000000E-03 0.  1.
         12    1    3    3    0    0  0.79554564032E+01 -0.20355819162E+01 -0.54370481080E+00  0.82297323919E+01  0.00000000000E+00 0. -1.
</event>
<event>
 7    1  0.2110035E-010  0.4778727E+02  0.7816164E-02  0.1312668E+00
        -11   -1    0    0    0    0  0.00000000000E+00  0.00000000000E+00  0.45593999997E+02  0.45594000000E+02  0.51100000000E-03 0.  1.
         11   -1    0    0    0    0 -0.00000000000E+00 -0.00000000000E+00 -0.45593999997E+02  0.45594000000E+02  0.51100000000E-03 0. -1.
    9900012    2    1    2    0    0 -0.20756596120E+02 -0.24999851456E+02 -0.28771424396E+02  0.47787265938E+02  0.19999976719E+02 0.  0.
        -12    1    1    2    0    0  0.20756596120E+02  0.24999851456E+02  0.28771424396E+02  0.43400734062E+02  0.00000000000E+00 0.  1.
         11    1    3    3    0    0 -0.98670937185E+01 -0.10706583598E+02 -0.18587130995E+02  0.23610843053E+02  0.51100000000E-03 0. -1.
        -11    1    3    3    0    0 -0.86641282289E+01 -0.43841976491E+01 -0.10113371511E+02  0.14020292100E+02  0.51100000000E-03 0.  1.
        -12    1    3    3    0    0 -0.22253741727E+01 -0.99090702088E+01 -0.70921890271E-01  0.10156130785E+02  0.00000000000E+00 0.  1.
</event>
<event>
 7    1  0.2294357E-010  0.4778727E+02  0.7816164E-02  0.1312668E+00
        -11   -1    0    0    0    0  0.00000000000E+00  0.00000000000E+00  0.45593999997E+02  0.45594000000E+02  0.51100000000E-03 0. -1.
         11   -1    0    0    0    0 -0.00000000000E+00 -0.00000000000E+00 -0.45593999997E+02  0.45594000000E+02  0.51100000000E-03 0.  1.
    9900012    2    1    2    0    0  0.29204234197E+02  0.11224361416E+02  0.30079055409E+02  0.47787272373E+02  0.20000006059E+02 0.  0.
        -12    1    1    2    0    0 -0.29204234197E+02 -0.11224361416E+02 -0.30079055409E+02  0.43400727627E+02  0.00000000000E+00 0.  1.
         11    1    3    3    0    0  0.18075199547E+02  0.14912696844E+01  0.16098633698E+02  0.24250829494E+02  0.51100000000E-03 0. -1.
        -11    1    3    3    0    0  0.12257592833E+02  0.11458988977E+02  0.13128497765E+02  0.21305268462E+02  0.51100000000E-03 0.  1.
        -12    1    3    3    0    0 -0.11285581822E+01 -0.17258972452E+01  0.85192394651E+00  0.22311744177E+01  0.00000000000E+00 0.  1.
</event>
<event>
 7    1  0.2110035E-010  0.4778726E+02  0.7816164E-02  0.1312668E+00
        -11   -1    0    0    0    0  0.00000000000E+00  0.00000000000E+00  0.45593999997E+02  0.45594000000E+02  0.51100000000E-03 0. -1.
         11   -1    0    0    0    0 -0.00000000000E+00 -0.00000000000E+00 -0.45593999997E+02  0.45594000000E+02  0.51100000000E-03 0.  1.
    9900012    2    1    2    0    0 -0.28963824829E+01 -0.20690624754E+02  0.38041201937E+02  0.47787262345E+02  0.19999960335E+02 0.  0.
        -12    1    1    2    0    0  0.28963824829E+01  0.20690624754E+02 -0.38041201937E+02  0.43400737655E+02  0.00000000000E+00 0.  1.
         11    1    3    3    0    0 -0.22728122034E+01 -0.27756362901E+01  0.24253929895E+02  0.24517808787E+02  0.51100000000E-03 0.  1.
        -11    1    3    3    0    0  0.16314193847E+01 -0.16950246905E+01  0.14166403521E+01  0.27461806311E+01  0.51100000000E-03 0. -1.
         12    1    3    3    0    0 -0.22549896643E+01 -0.16219963774E+02  0.12370631690E+02  0.20523272927E+02  0.00000000000E+00 0. -1.
</event>
<event>
 7    1  0.2110035E-010  0.4778727E+02  0.7816164E-02  0.1312668E+00
        -11   -1    0    0    0    0  0.00000000000E+00  0.00000000000E+00  0.45593999997E+02  0.45594000000E+02  0.51100000000E-03 0. -1.
         11   -1    0    0    0    0 -0.00000000000E+00 -0.00000000000E+00 -0.45593999997E+02  0.45594000000E+02  0.51100000000E-03 0.  1.
    9900012    2    1    2    0    0  0.40084622300E+02 -0.15738787201E+02 -0.53978555125E+01  0.47787271761E+02  0.20000003269E+02 0.  0.
        -12    1    1    2    0    0 -0.40084622300E+02  0.15738787201E+02  0.53978555125E+01  0.43400728239E+02  0.00000000000E+00 0.  1.
         11    1    3    3    0    0  0.13595570412E+02 -0.13635408857E+01 -0.43200841668E+01  0.14330453798E+02  0.51100000000E-03 0. -1.
        -11    1    3    3    0    0  0.13105691897E+02 -0.56134773691E+01 -0.76299967451E+01  0.16170563962E+02  0.51100000000E-03 0.  1.
        -12    1    3    3    0    0  0.13383359991E+02 -0.87617689460E+01  0.65522253995E+01  0.17286254001E+02  0.00000000000E+00 0.  1.
</event>
<event>
 7    1  0.2194823E-010  0.4778727E+02  0.7816164E-02  0.1312668E+00
        -11   -1    0    0    0    0  0.00000000000E+00  0.00000000000E+00  0.45593999997E+02  0.45594000000E+02  0.51100000000E-03 0.  1.
         11   -1    0    0    0    0 -0.00000000000E+00 -0.00000000000E+00 -0.45593999997E+02  0.45594000000E+02  0.51100000000E-03 0. -1.
    9900012    2    1    2    0    0 -0.14536685653E+02 -0.28264101764E+02 -0.29554162268E+02  0.47787272061E+02  0.20000004635E+02 0.  0.
        -12    1    1    2    0    0  0.14536685653E+02  0.28264101764E+02  0.29554162268E+02  0.43400727939E+02  0.00000000000E+00 0.  1.
         11    1    3    3    0    0 -0.97549814995E+01 -0.19081805013E+02 -0.19478846510E+02  0.28960324726E+02  0.51100000000E-03 0. -1.
        -11    1    3    3    0    0 -0.14552129760E+01 -0.85049500263E+01 -0.47219874310E+00  0.86414577283E+01  0.51100000000E-03 0.  1.
        -12    1    3    3    0    0 -0.33264911774E+01 -0.67734672511E+00 -0.96031170144E+01  0.10185489607E+02  0.00000000000E+00 0.  1.
</event>
<event>
 7    1  0.2110035E-010  0.4778728E+02  0.7816164E-02  0.1312668E+00
        -11   -1    0    0    0    0  0.00000000000E+00  0.00000000000E+00  0.45593999997E+02  0.45594000000E+02  0.51100000000E-03 0. -1.
         11   -1    0    0    0    0 -0.00000000000E+00 -0.00000000000E+00 -0.45593999997E+02  0.45594000000E+02  0.51100000000E-03 0.  1.
    9900012    2    1    2    0    0  0.41931569987E+02  0.10708139103E+02 -0.32713656640E+01  0.47787278370E+02  0.20000033402E+02 0.  0.
        -12    1    1    2    0    0 -0.41931569987E+02 -0.10708139103E+02  0.32713656640E+01  0.43400721630E+02  0.00000000000E+00 0.  1.
         11    1    3    3    0    0  0.22406777564E+02 -0.43463227943E+01 -0.35474752822E+01  0.23098458472E+02  0.51100000000E-03 0.  1.
        -11    1    3    3    0    0  0.52478686183E+01  0.38994186720E+01  0.62100397340E+00  0.65674376442E+01  0.51100000000E-03 0. -1.
        -12    1    3    3    0    0  0.14276923805E+02  0.11155043226E+02 -0.34489435520E+00  0.18121382254E+02  0.00000000000E+00 0.  1.
</event>
<event>
 7    1  0.2110035E-010  0.4778727E+02  0.7816164E-02  0.1312668E+00
        -11   -1    0    0    0    0  0.00000000000E+00  0.00000000000E+00  0.45593999997E+02  0.45594000000E+02  0.51100000000E-03 0.  1.
         11   -1    0    0    0    0 -0.00000000000E+00 -0.00000000000E+00 -0.45593999997E+02  0.45594000000E+02  0.51100000000E-03 0. -1.
    9900012    2    1    2    0    0  0.24616011223E+02  0.33790141584E+02 -0.11657698799E+02  0.47787267078E+02  0.19999981918E+02 0.  0.
        -12    1    1    2    0    0 -0.24616011223E+02 -0.33790141584E+02  0.11657698799E+02  0.43400732922E+02  0.00000000000E+00 0.  1.
         11    1    3    3    0    0  0.80604868808E+01  0.21546329360E+02 -0.21431488073E+01  0.23104303598E+02  0.51100000000E-03 0. -1.
        -11    1    3    3    0    0 -0.10411497102E+01  0.18159209502E+01  0.69820144096E-01  0.20943821834E+01  0.51100000000E-03 0.  1.
        -12    1    3    3    0    0  0.17596674053E+02  0.10427891274E+02 -0.95843701358E+01  0.22588581298E+02  0.00000000000E+00 0.  1.
</event>
<event>
 7    1  0.2110035E-010  0.4778727E+02  0.7816164E-02  0.1312668E+00
        -11   -1    0    0    0    0  0.00000000000E+00  0.00000000000E+00  0.45593999997E+02  0.45594000000E+02  0.51100000000E-03 0.  1.
         11   -1    0    0    0    0 -0.00000000000E+00 -0.00000000000E+00 -0.45593999997E+02  0.45594000000E+02  0.51100000000E-03 0. -1.
    9900012    2    1    2    0    0  0.14714410600E+02 -0.49069576782E+01 -0.40534323332E+02  0.47787268659E+02  0.19999989122E+02 0.  0.
        -12    1    1    2    0    0 -0.14714410600E+02  0.49069576782E+01  0.40534323332E+02  0.43400731341E+02  0.00000000000E+00 0.  1.
         11    1    3    3    0    0  0.83876031279E+01 -0.96110500436E+01 -0.15235573982E+02  0.19870754490E+02  0.51100000000E-03 0. -1.
        -11    1    3    3    0    0 -0.65512088627E+00  0.62137329639E+00 -0.13957606818E+02  0.13986782206E+02  0.51100000000E-03 0.  1.
         12    1    3    3    0    0  0.69819283586E+01  0.40827190690E+01 -0.11341142533E+02  0.13929731963E+02  0.00000000000E+00 0. -1.
</event>
<event>
 7    1  0.2110035E-010  0.4778727E+02  0.7816164E-02  0.1312668E+00
        -11   -1    0    0    0    0  0.00000000000E+00  0.00000000000E+00  0.45593999997E+02  0.45594000000E+02  0.51100000000E-03 0.  1.
         11   -1    0    0    0    0 -0.00000000000E+00 -0.00000000000E+00 -0.45593999997E+02  0.45594000000E+02  0.51100000000E-03 0. -1.
    9900012    2    1    2    0    0 -0.15860625313E+01  0.30777265830E+02 -0.30559247046E+02  0.47787271131E+02  0.20000000395E+02 0.  0.
        -12    1    1    2    0    0  0.15860625313E+01 -0.30777265830E+02  0.30559247046E+02  0.43400728869E+02  0.00000000000E+00 0.  1.
         11    1    3    3    0    0 -0.74902217718E+01  0.15056083264E+02 -0.21854823298E+02  0.27575756873E+02  0.51100000000E-03 0. -1.
        -11    1    3    3    0    0  0.53003350927E+00  0.62674981012E+01 -0.66338861605E+01  0.91417128494E+01  0.51100000000E-03 0.  1.
        -12    1    3    3    0    0  0.53741257312E+01  0.94536844648E+01 -0.20705375873E+01  0.11069801409E+02  0.00000000000E+00 0.  1.
</event>
<event>
 7    1  0.2110035E-010  0.4778727E+02  0.7816164E-02  0.1312668E+00
        -11   -1    0    0    0    0  0.00000000000E+00  0.00000000000E+00  0.45593999997E+02  0.45594000000E+02  0.51100000000E-03 0.  1.
         11   -1    0    0    0    0 -0.00000000000E+00 -0.00000000000E+00 -0.45593999997E+02  0.45594000000E+02  0.51100000000E-03 0. -1.
    9900012    2    1    2    0    0  0.40320891502E+02 -0.79162619100E+01 -0.13970751250E+02  0.47787269768E+02  0.19999994182E+02 0.  0.
        -12    1    1    2    0    0 -0.40320891502E+02  0.79162619100E+01  0.13970751250E+02  0.43400730232E+02  0.00000000000E+00 0.  1.
         11    1    3    3    0    0  0.74339888544E+01 -0.57690311610E+01 -0.90379838219E+00  0.94531879596E+01  0.51100000000E-03 0. -1.
        -11    1    3    3    0    0  0.20950379770E+02 -0.15348995011E+01 -0.15538625296E+02  0.26128972528E+02  0.51100000000E-03 0.  1.
         12    1    3    3    0    0  0.11936522877E+02 -0.61233124791E+00  0.24716724288E+01  0.12205109281E+02  0.00000000000E+00 0. -1.
</event>
<event>
 7    1  0.2110035E-010  0.4778727E+02  0.7816164E-02  0.1312668E+00
        -11   -1    0    0    0    0  0.00000000000E+00  0.00000000000E+00  0.45593999997E+02  0.45594000000E+02  0.51100000000E-03 0.  1.
         11   -1    0    0    0    0 -0.00000000000E+00 -0.00000000000E+00 -0.45593999997E+02  0.45594000000E+02  0.51100000000E-03 0. -1.
    9900012    2    1    2    0    0  0.26667384410E+02  0.31474861702E+02 -0.13483594772E+02  0.47787266845E+02  0.19999980853E+02 0.  0.
        -12    1    1    2    0    0 -0.26667384410E+02 -0.31474861702E+02  0.13483594772E+02  0.43400733155E+02  0.00000000000E+00 0.  1.
         11    1    3    3    0    0  0.86590896292E+01  0.70254260153E+01 -0.33893571510E+01  0.11654363391E+02  0.51100000000E-03 0. -1.
        -11    1    3    3    0    0  0.18693060665E+02  0.14717930564E+02 -0.28084433615E+01  0.23956947875E+02  0.51100000000E-03 0.  1.
         12    1    3    3    0    0 -0.68476588391E+00  0.97315051228E+01 -0.72857942592E+01  0.12175955579E+02  0.00000000000E+00 0. -1.
</event>
<event>
 7    1  0.2110035E-010  0.4778728E+02  0.7816164E-02  0.1312668E+00
        -11   -1    0    0    0    0  0.00000000000E+00  0.00000000000E+00  0.45593999997E+02  0.45594000000E+02  0.51100000000E-03 0. -1.
         11   -1    0    0    0    0 -0.00000000000E+00 -0.00000000000E+00 -0.45593999997E+02  0.45594000000E+02  0.51100000000E-03 0.  1.
    9900012    2    1    2    0    0  0.10058407248E+02 -0.41352022966E+02  0.85124070825E+01  0.47787280719E+02  0.20000044112E+02 0.  0.
        -12    1    1    2    0    0 -0.10058407248E+02  0.41352022966E+02 -0.85124070825E+01  0.43400719281E+02  0.00000000000E+00 0.  1.
         11    1    3    3    0    0  0.28687520337E+01 -0.38106058484E+02  0.86808599212E+01  0.39187482194E+02  0.51100000000E-03 0.  1.
        -11    1    3    3    0    0  0.45510045909E+01 -0.19226262846E+01  0.15577523775E+01  0.51802246425E+01  0.51100000000E-03 0. -1.
        -12    1    3    3    0    0  0.26386506230E+01 -0.13233381972E+01 -0.17262052162E+01  0.34195738833E+01  0.00000000000E+00 0.  1.
</event>
<event>
 7    1  0.2110035E-010  0.4778728E+02  0.7816164E-02  0.1312668E+00
        -11   -1    0    0    0    0  0.00000000000E+00  0.00000000000E+00  0.45593999997E+02  0.45594000000E+02  0.51100000000E-03 0.  1.
         11   -1    0    0    0    0 -0.00000000000E+00 -0.00000000000E+00 -0.45593999997E+02  0.45594000000E+02  0.51100000000E-03 0. -1.
    9900012    2    1    2    0    0 -0.73645169080E+01 -0.54086636618E+01 -0.42427968916E+02  0.47787282284E+02  0.20000051247E+02 0.  0.
        -12    1    1    2    0    0  0.73645169080E+01  0.54086636618E+01  0.42427968916E+02  0.43400717716E+02  0.00000000000E+00 0.  1.
         11    1    3    3    0    0 -0.49244274072E+01 -0.78664421701E+01 -0.13822290504E+02  0.16648922270E+02  0.51100000000E-03 0. -1.
        -11    1    3    3    0    0  0.60503909504E+00 -0.10371575573E+01  0.75212748554E+00  0.14168500700E+01  0.51100000000E-03 0.  1.
         12    1    3    3    0    0 -0.30451285957E+01  0.34949360656E+01 -0.29357805897E+02  0.29721509945E+02  0.00000000000E+00 0. -1.
</event>
<event>
 7    1  0.2110035E-010  0.4778727E+02  0.7816164E-02  0.1312668E+00
        -11   -1    0    0    0    0  0.00000000000E+00  0.00000000000E+00  0.45593999997E+02  0.45594000000E+02  0.51100000000E-03 0.  1.
         11   -1    0    0    0    0 -0.00000000000E+00 -0.00000000000E+00 -0.45593999997E+02  0.45594000000E+02  0.51100000000E-03 0. -1.
    9900012    2    1    2    0    0  0.42916792869E+01 -0.91883362512E+01 -0.42199281706E+02  0.47787269469E+02  0.19999992816E+02 0.  0.
        -12    1    1    2    0    0 -0.42916792869E+01  0.91883362512E+01  0.42199281706E+02  0.43400730531E+02  0.00000000000E+00 0.  1.
         11    1    3    3    0    0  0.57940840786E+01 -0.84550189300E+00 -0.46383649504E+01  0.74699875123E+01  0.51100000000E-03 0. -1.
        -11    1    3    3    0    0 -0.10581447327E+01  0.18078732080E+01 -0.19355350594E+02  0.19468376221E+02  0.51100000000E-03 0.  1.
         12    1    3    3    0    0 -0.44426005906E+00 -0.10150707566E+02 -0.18205566161E+02  0.20848905735E+02  0.00000000000E+00 0. -1.
</event>
<event>
 7    1  0.3829123E-010  0.4778727E+02  0.7816164E-02  0.1312668E+00
        -11   -1    0    0    0    0  0.00000000000E+00  0.00000000000E+00  0.45593999997E+02  0.45594000000E+02  0.51100000000E-03 0.  1.
         11   -1    0    0    0    0 -0.00000000000E+00 -0.00000000000E+00 -0.45593999997E+02  0.45594000000E+02  0.51100000000E-03 0. -1.
    9900012    2    1    2    0    0  0.24976895979E+02 -0.20274012178E+02 -0.29133186582E+02  0.47787268866E+02  0.19999990068E+02 0.  0.
        -12    1    1    2    0    0 -0.24976895979E+02  0.20274012178E+02  0.29133186582E+02  0.43400731134E+02  0.00000000000E+00 0.  1.
         11    1    3    3    0    0  0.11043016644E+02 -0.76307873458E+01 -0.87314368263E+01  0.16012967290E+02  0.51100000000E-03 0. -1.
        -11    1    3    3    0    0  0.35615849104E+01  0.29805698953E+01 -0.81288581478E+01  0.93619986660E+01  0.51100000000E-03 0.  1.
        -12    1    3    3    0    0  0.10372294425E+02 -0.15623794728E+02 -0.12272891608E+02  0.22412302910E+02  0.00000000000E+00 0.  1.
</event>
<event>
 7    1  0.2110035E-010  0.4778727E+02  0.7816164E-02  0.1312668E+00
        -11   -1    0    0    0    0  0.00000000000E+00  0.00000000000E+00  0.45593999997E+02  0.45594000000E+02  0.51100000000E-03 0. -1.
         11   -1    0    0    0    0 -0.00000000000E+00 -0.00000000000E+00 -0.45593999997E+02  0.45594000000E+02  0.51100000000E-03 0.  1.
    9900012    2    1    2    0    0  0.71073166128E+01 -0.42475580198E+02  0.53790566921E+01  0.47787272892E+02  0.20000008426E+02 0.  0.
        -12    1    1    2    0    0 -0.71073166128E+01  0.42475580198E+02 -0.53790566921E+01  0.43400727108E+02  0.00000000000E+00 0.  1.
         11    1    3    3    0    0 -0.12590376789E+01 -0.86037657021E+01  0.60734326206E+01  0.10606438808E+02  0.51100000000E-03 0. -1.
        -11    1    3    3    0    0 -0.19621979013E+01 -0.11083441560E+02 -0.39961866968E+01  0.11944136880E+02  0.51100000000E-03 0.  1.
         12    1    3    3    0    0  0.10328552193E+02 -0.22788372935E+02  0.33018107683E+01  0.25236697205E+02  0.00000000000E+00 0. -1.
</event>
<event>
 7    1  0.2110035E-010  0.4778727E+02  0.7816164E-02  0.1312668E+00
        -11   -1    0    0    0    0  0.00000000000E+00  0.00000000000E+00  0.45593999997E+02  0.45594000000E+02  0.51100000000E-03 0.  1.
         11   -1    0    0    0    0 -0.00000000000E+00 -0.00000000000E+00 -0.45593999997E+02  0.45594000000E+02  0.51100000000E-03 0. -1.
    9900012    2    1    2    0    0 -0.40777497940E+02 -0.93520959187E+01 -0.11548044175E+02  0.47787270045E+02  0.19999995445E+02 0.  0.
        -12    1    1    2    0    0  0.40777497940E+02  0.93520959187E+01  0.11548044175E+02  0.43400729955E+02  0.00000000000E+00 0.  1.
         11    1    3    3    0    0 -0.28137804811E+02 -0.24754262527E+01 -0.10699563256E+02  0.30205040123E+02  0.51100000000E-03 0. -1.
        -11    1    3    3    0    0 -0.11367020657E+02 -0.84940673817E+01 -0.31074233469E+01  0.14526335375E+02  0.51100000000E-03 0.  1.
        -12    1    3    3    0    0 -0.12726724723E+01  0.16173977158E+01  0.22589424282E+01  0.30558945477E+01  0.00000000000E+00 0.  1.
</event>
<event>
 7    1  0.2110035E-010  0.4778728E+02  0.7816164E-02  0.1312668E+00
        -11   -1    0    0    0    0  0.00000000000E+00  0.00000000000E+00  0.45593999997E+02  0.45594000000E+02  0.51100000000E-03 0.  1.
         11   -1    0    0    0    0 -0.00000000000E+00 -0.00000000000E+00 -0.45593999997E+02  0.45594000000E+02  0.51100000000E-03 0. -1.
    9900012    2    1    2    0    0 -0.16716217177E+02 -0.13091262382E+02 -0.37852474743E+02  0.47787275218E+02  0.20000019028E+02 0.  0.
        -12    1    1    2    0    0  0.16716217177E+02  0.13091262382E+02  0.37852474743E+02  0.43400724782E+02  0.00000000000E+00 0.  1.
         11    1    3    3    0    0 -0.96428682880E+01 -0.37478146764E+01 -0.93450246798E+01  0.13941323832E+02  0.51100000000E-03 0. -1.
        -11    1    3    3    0    0  0.39380197283E+01 -0.27791151794E+01 -0.43259437166E+01  0.64765168000E+01  0.51100000000E-03 0.  1.
         12    1    3    3    0    0 -0.11011368618E+02 -0.65643325258E+01 -0.24181506346E+02  0.27369434585E+02  0.00000000000E+00 0. -1.
</event>
<event>
 7    1  0.2110035E-010  0.4778727E+02  0.7816164E-02  0.1312668E+00
        -11   -1    0    0    0    0  0.00000000000E+00  0.00000000000E+00  0.45593999997E+02  0.45594000000E+02  0.51100000000E-03 0.  1.
         11   -1    0    0    0    0 -0.00000000000E+00 -0.00000000000E+00 -0.45593999997E+02  0.45594000000E+02  0.51100000000E-03 0. -1.
    9900012    2    1    2    0    0 -0.24119982726E+02 -0.97780740276E+01 -0.34730951881E+02  0.47787270548E+02  0.19999997737E+02 0.  0.
        -12    1    1    2    0    0  0.24119982726E+02  0.97780740276E+01  0.34730951881E+02  0.43400729452E+02  0.00000000000E+00 0.  1.
         11    1    3    3    0    0  0.16432576555E+00 -0.15854372822E+01 -0.63156210228E+01  0.65136536213E+01  0.51100000000E-03 0. -1.
        -11    1    3    3    0    0  0.85264350613E+00 -0.34233836535E+01 -0.72714580109E+01  0.80821196758E+01  0.51100000000E-03 0.  1.
         12    1    3    3    0    0 -0.25136951998E+02 -0.47692530919E+01 -0.21143872847E+02  0.33191497251E+02  0.00000000000E+00 0. -1.
</event>
<event>
 7    1  0.2110035E-010  0.4778727E+02  0.7816164E-02  0.1312668E+00
        -11   -1    0    0    0    0  0.00000000000E+00  0.00000000000E+00  0.45593999997E+02  0.45594000000E+02  0.51100000000E-03 0.  1.
         11   -1    0    0    0    0 -0.00000000000E+00 -0.00000000000E+00 -0.45593999997E+02  0.45594000000E+02  0.51100000000E-03 0. -1.
    9900012    2    1    2    0    0  0.17459376142E+02 -0.15555906818E+01 -0.39703575678E+02  0.47787267296E+02  0.19999982909E+02 0.  0.
        -12    1    1    2    0    0 -0.17459376142E+02  0.15555906818E+01  0.39703575678E+02  0.43400732704E+02  0.00000000000E+00 0.  1.
         11    1    3    3    0    0  0.42243046518E+01 -0.21261713435E+01 -0.18061537407E+02  0.18670417460E+02  0.51100000000E-03 0. -1.
        -11    1    3    3    0    0  0.10934986599E+02 -0.41934975401E+01 -0.72273581981E+01  0.13762051458E+02  0.51100000000E-03 0.  1.
        -12    1    3    3    0    0  0.23000848909E+01  0.47640782018E+01 -0.14414680073E+02  0.15354798378E+02  0.00000000000E+00 0.  1.
</event>
<event>
 7    1  0.2110035E-010  0.4778728E+02  0.7816164E-02  0.1312668E+00
        -11   -1    0    0    0    0  0.00000000000E+00  0.00000000000E+00  0.45593999997E+02  0.45594000000E+02  0.51100000000E-03 0. -1.
         11   -1    0    0    0    0 -0.00000000000E+00 -0.00000000000E+00 -0.45593999997E+02  0.45594000000E+02  0.51100000000E-03 0.  1.
    9900012    2    1    2    0    0 -0.27007593220E+01  0.43148851984E+02 -0.38085945249E+01  0.47787275113E+02  0.20000018549E+02 0.  0.
        -12    1    1    2    0    0  0.27007593220E+01 -0.43148851984E+02  0.38085945249E+01  0.43400724887E+02  0.00000000000E+00 0.  1.
         11    1    3    3    0    0 -0.48259843414E+01  0.14830260076E+02 -0.32779586829E+01  0.15936491212E+02  0.51100000000E-03 0. -1.
        -11    1    3    3    0    0  0.35955352607E+01  0.18819912501E+00 -0.76586176804E+00  0.36810103546E+01  0.51100000000E-03 0.  1.
         12    1    3    3    0    0 -0.14703102413E+01  0.28130392784E+02  0.23522592607E+00  0.28169773546E+02  0.00000000000E+00 0. -1.
</event>
<event>
 7    1  0.2110035E-010  0.4778727E+02  0.7816164E-02  0.1312668E+00
        -11   -1    0    0    0    0  0.00000000000E+00  0.00000000000E+00  0.45593999997E+02  0.45594000000E+02  0.51100000000E-03 0.  1.
         11   -1    0    0    0    0 -0.00000000000E+00 -0.00000000000E+00 -0.45593999997E+02  0.45594000000E+02  0.51100000000E-03 0. -1.
    9900012    2    1    2    0    0 -0.35609353746E+02 -0.12530273884E+01 -0.24779570672E+02  0.47787271037E+02  0.19999999965E+02 0.  0.
        -12    1    1    2    0    0  0.35609353746E+02  0.12530273884E+01  0.24779570672E+02  0.43400728963E+02  0.00000000000E+00 0.  1.
         11    1    3    3    0    0 -0.18648083314E+01  0.29591355450E+01 -0.88861682517E+00  0.36088271515E+01  0.51100000000E-03 0. -1.
        -11    1    3    3    0    0 -0.10010737596E+01 -0.38611143137E+01 -0.49230401964E+01  0.63361405802E+01  0.51100000000E-03 0.  1.
         12    1    3    3    0    0 -0.32743471655E+02 -0.35104861971E+00 -0.18967913651E+02  0.37842303305E+02  0.00000000000E+00 0. -1.
</event>
<event>
 7    1  0.2110035E-010  0.4778727E+02  0.7816164E-02  0.1312668E+00
        -11   -1    0    0    0    0  0.00000000000E+00  0.00000000000E+00  0.45593999997E+02  0.45594000000E+02  0.51100000000E-03 0.  1.
         11   -1    0    0    0    0 -0.00000000000E+00 -0.00000000000E+00 -0.45593999997E+02  0.45594000000E+02  0.51100000000E-03 0. -1.
    9900012    2    1    2    0    0  0.22459782297E+02 -0.18312197698E+02 -0.32308589508E+02  0.47787270037E+02  0.19999995405E+02 0.  0.
        -12    1    1    2    0    0 -0.22459782297E+02  0.18312197698E+02  0.32308589508E+02  0.43400729963E+02  0.00000000000E+00 0.  1.
         11    1    3    3    0    0  0.44282044541E+01 -0.14425350483E+01  0.28117359905E+00  0.46657219063E+01  0.51100000000E-03 0. -1.
        -11    1    3    3    0    0  0.11831775051E+02 -0.38006794994E+01 -0.21734256076E+02  0.25036252773E+02  0.51100000000E-03 0.  1.
         12    1    3    3    0    0  0.61998027920E+01 -0.13068983150E+02 -0.10855507032E+02  0.18085295357E+02  0.00000000000E+00 0. -1.
</event>
<event>
 7    1 -0.2110035E-010  0.4778727E+02  0.7816164E-02  0.1312668E+00
        -11   -1    0    0    0    0  0.00000000000E+00  0.00000000000E+00  0.45593999997E+02  0.45594000000E+02  0.51100000000E-03 0. -1.
         11   -1    0    0    0    0 -0.00000000000E+00 -0.00000000000E+00 -0.45593999997E+02  0.45594000000E+02  0.51100000000E-03 0.  1.
    9900012    2    1    2    0    0 -0.20056681027E+02 -0.32440437046E+02 -0.20711606796E+02  0.47787273444E+02  0.20000010939E+02 0.  0.
        -12    1    1    2    0    0  0.20056681027E+02  0.32440437046E+02  0.20711606796E+02  0.43400726556E+02  0.00000000000E+00 0.  1.
         11    1    3    3    0    0 -0.17459124006E+02 -0.25492998473E+02 -0.82375700425E+01  0.31977672565E+02  0.51100000000E-03 0. -1.
        -11    1    3    3    0    0 -0.16892166493E+01  0.63604159461E+00 -0.11151035852E+01  0.21216639850E+01  0.51100000000E-03 0.  1.
        -12    1    3    3    0    0 -0.90834037109E+00 -0.75834801682E+01 -0.11358933168E+02  0.13687936894E+02  0.00000000000E+00 0.  1.
</event>
<event>
 7    1  0.2110035E-010  0.4778728E+02  0.7816164E-02  0.1312668E+00
        -11   -1    0    0    0    0  0.00000000000E+00  0.00000000000E+00  0.45593999997E+02  0.45594000000E+02  0.51100000000E-03 0.  1.
         11   -1    0    0    0    0 -0.00000000000E+00 -0.00000000000E+00 -0.45593999997E+02  0.45594000000E+02  0.51100000000E-03 0. -1.
    9900012    2    1    2    0    0 -0.42737734801E+02  0.37678372597E+01 -0.65507395853E+01  0.47787276934E+02  0.20000026851E+02 0.  0.
        -12    1    1    2    0    0  0.42737734801E+02 -0.37678372597E+01  0.65507395853E+01  0.43400723066E+02  0.00000000000E+00 0.  1.
         11    1    3    3    0    0 -0.20331624233E+02 -0.31167498316E+01 -0.11405324091E+02  0.23519576768E+02  0.51100000000E-03 0. -1.
        -11    1    3    3    0    0 -0.42604443732E+01  0.29506406309E+01  0.15449964554E+01  0.54078351212E+01  0.51100000000E-03 0.  1.
         12    1    3    3    0    0 -0.18145666195E+02  0.39339464605E+01  0.33095880505E+01  0.18859865044E+02  0.00000000000E+00 0. -1.
</event>
<event>
 7    1  0.2110035E-010  0.4778727E+02  0.7816164E-02  0.1312668E+00
        -11   -1    0    0    0    0  0.00000000000E+00  0.00000000000E+00  0.45593999997E+02  0.45594000000E+02  0.51100000000E-03 0.  1.
         11   -1    0    0    0    0 -0.00000000000E+00 -0.00000000000E+00 -0.45593999997E+02  0.45594000000E+02  0.51100000000E-03 0. -1.
    9900012    2    1    2    0    0  0.50349647829E+01 -0.15383639241E+02 -0.40269293616E+02  0.47787271493E+02  0.20000002044E+02 0.  0.
        -12    1    1    2    0    0 -0.50349647829E+01  0.15383639241E+02  0.40269293616E+02  0.43400728507E+02  0.00000000000E+00 0.  1.
         11    1    3    3    0    0 -0.57808167287E+01 -0.53398933183E+00 -0.10794366935E+02  0.12256481732E+02  0.51100000000E-03 0. -1.
        -11    1    3    3    0    0  0.29306754598E+01 -0.70399013430E+01 -0.65164257267E+01  0.10030596896E+02  0.51100000000E-03 0.  1.
        -12    1    3    3    0    0  0.78851060518E+01 -0.78097485662E+01 -0.22958500954E+02  0.25500192865E+02  0.00000000000E+00 0.  1.
</event>
<event>
 7    1  0.2110035E-010  0.4778727E+02  0.7816164E-02  0.1312668E+00
        -11   -1    0    0    0    0  0.00000000000E+00  0.00000000000E+00  0.45593999997E+02  0.45594000000E+02  0.51100000000E-03 0. -1.
         11   -1    0    0    0    0 -0.00000000000E+00 -0.00000000000E+00 -0.45593999997E+02  0.45594000000E+02  0.51100000000E-03 0.  1.
    9900012    2    1    2    0    0 -0.20084366750E+02  0.33904133392E+02 -0.18186568572E+02  0.47787270453E+02  0.19999997303E+02 0.  0.
        -12    1    1    2    0    0  0.20084366750E+02 -0.33904133392E+02  0.18186568572E+02  0.43400729547E+02  0.00000000000E+00 0.  1.
         11    1    3    3    0    0 -0.21764755569E+01  0.22542681270E+02 -0.96078843479E+01  0.24601239128E+02  0.51100000000E-03 0. -1.
        -11    1    3    3    0    0 -0.87058727446E+01  0.58751080803E+01 -0.62523146371E+01  0.12222951926E+02  0.51100000000E-03 0.  1.
         12    1    3    3    0    0 -0.92020184487E+01  0.54863440409E+01 -0.23263695869E+01  0.10963079399E+02  0.00000000000E+00 0. -1.
</event>
<event>
 7    1  0.2110035E-010  0.4778727E+02  0.7816164E-02  0.1312668E+00
        -11   -1    0    0    0    0  0.00000000000E+00  0.00000000000E+00  0.45593999997E+02  0.45594000000E+02  0.51100000000E-03 0.  1.
         11   -1    0    0    0    0 -0.00000000000E+00 -0.00000000000E+00 -0.45593999997E+02  0.45594000000E+02  0.51100000000E-03 0. -1.
    9900012    2    1    2    0    0  0.20448156472E+02 -0.49489606531E+01 -0.37960561310E+02  0.47787268098E+02  0.19999986564E+02 0.  0.
        -12    1    1    2    0    0 -0.20448156472E+02  0.49489606531E+01  0.37960561310E+02  0.43400731902E+02  0.00000000000E+00 0.  1.
         11    1    3    3    0    0  0.61009154265E+01 -0.35374660461E+01 -0.22737315645E+02  0.23805889147E+02  0.51100000000E-03 0. -1.
        -11    1    3    3    0    0  0.11850659859E+02  0.39522835459E+01 -0.11575662082E+02  0.17030990494E+02  0.51100000000E-03 0.  1.
         12    1    3    3    0    0  0.24965811873E+01 -0.53637781529E+01 -0.36475835833E+01  0.69503884565E+01  0.00000000000E+00 0. -1.
</event>
<event>
 7    1  0.2110035E-010  0.4778727E+02  0.7816164E-02  0.1312668E+00
        -11   -1    0    0    0    0  0.00000000000E+00  0.00000000000E+00  0.45593999997E+02  0.45594000000E+02  0.51100000000E-03 0. -1.
         11   -1    0    0    0    0 -0.00000000000E+00 -0.00000000000E+00 -0.45593999997E+02  0.45594000000E+02  0.51100000000E-03 0.  1.
    9900012    2    1    2    0    0  0.27288264864E+01  0.40776748509E+02  0.14609368089E+02  0.47787270180E+02  0.19999996058E+02 0.  0.
        -12    1    1    2    0    0 -0.27288264864E+01 -0.40776748509E+02 -0.14609368089E+02  0.43400729820E+02  0.00000000000E+00 0.  1.
         11    1    3    3    0    0  0.72879468495E+01  0.64453217640E+01  0.36917984922E+01  0.10406042393E+02  0.51100000000E-03 0. -1.
        -11    1    3    3    0    0 -0.84024385414E+00  0.18395655452E+02  0.10086293963E+02  0.20996177638E+02  0.51100000000E-03 0.  1.
        -12    1    3    3    0    0 -0.37188765090E+01  0.15935771293E+02  0.83127563449E+00  0.16385050148E+02  0.00000000000E+00 0.  1.
</event>
<event>
 7    1  0.2243492E-010  0.4778727E+02  0.7816164E-02  0.1312668E+00
        -11   -1    0    0    0    0  0.00000000000E+00  0.00000000000E+00  0.45593999997E+02  0.45594000000E+02  0.51100000000E-03 0.  1.
         11   -1    0    0    0    0 -0.00000000000E+00 -0.00000000000E+00 -0.45593999997E+02  0.45594000000E+02  0.51100000000E-03 0. -1.
    9900012    2    1    2    0    0 -0.56404655132E+01 -0.16743085814E+02 -0.39641867103E+02  0.47787269578E+02  0.19999993313E+02 0.  0.
        -12    1    1    2    0    0  0.56404655132E+01  0.16743085814E+02  0.39641867103E+02  0.43400730422E+02  0.00000000000E+00 0.  1.
         11    1    3    3    0    0  0.14930207894E+01 -0.10364775419E+02 -0.22464223131E+02  0.24785056016E+02  0.51100000000E-03 0. -1.
        -11    1    3    3    0    0 -0.60501167715E+01 -0.11372396384E+01 -0.16495826654E+02  0.17607087329E+02  0.51100000000E-03 0.  1.
        -12    1    3    3    0    0 -0.10833695310E+01 -0.52410707566E+01 -0.68181731770E+00  0.53951262331E+01  0.00000000000E+00 0.  1.
</event>
<event>
 7    1  0.2110035E-010  0.4778727E+02  0.7816164E-02  0.1312668E+00
        -11   -1    0    0    0    0  0.00000000000E+00  0.00000000000E+00  0.45593999997E+02  0.45594000000E+02  0.51100000000E-03 0.  1.
         11   -1    0    0    0    0 -0.00000000000E+00 -0.00000000000E+00 -0.45593999997E+02  0.45594000000E+02  0.51100000000E-03 0. -1.
    9900012    2    1    2    0    0 -0.42946011118E+02  0.95515664142E+00 -0.61928329455E+01  0.47787269879E+02  0.19999994687E+02 0.  0.
        -12    1    1    2    0    0  0.42946011118E+02 -0.95515664142E+00  0.61928329455E+01  0.43400730121E+02  0.00000000000E+00 0.  1.
         11    1    3    3    0    0 -0.15361094782E+01 -0.85048444867E-01  0.25572006218E+01  0.29843158090E+01  0.51100000000E-03 0.  1.
        -11    1    3    3    0    0 -0.30298747094E+02  0.23265606610E+01 -0.12707774592E+02  0.32938040247E+02  0.51100000000E-03 0. -1.
         12    1    3    3    0    0 -0.11111154546E+02 -0.12863555747E+01  0.39577410252E+01  0.11864913823E+02  0.00000000000E+00 0. -1.
</event>
<event>
 7    1  0.2110035E-010  0.4778727E+02  0.7816164E-02  0.1312668E+00
        -11   -1    0    0    0    0  0.00000000000E+00  0.00000000000E+00  0.45593999997E+02  0.45594000000E+02  0.51100000000E-03 0.  1.
         11   -1    0    0    0    0 -0.00000000000E+00 -0.00000000000E+00 -0.45593999997E+02  0.45594000000E+02  0.51100000000E-03 0. -1.
    9900012    2    1    2    0    0  0.10010247444E+02 -0.12608814550E+01 -0.42211707537E+02  0.47787272712E+02  0.20000007602E+02 0.  0.
        -12    1    1    2    0    0 -0.10010247444E+02  0.12608814550E+01  0.42211707537E+02  0.43400727288E+02  0.00000000000E+00 0.  1.
         11    1    3    3    0    0  0.63340993048E+00 -0.38184266962E+01 -0.13982444850E+02  0.14508285730E+02  0.51100000000E-03 0. -1.
        -11    1    3    3    0    0  0.20688167623E+01  0.76756887787E+01 -0.85670140555E+01  0.11687169508E+02  0.51100000000E-03 0.  1.
        -12    1    3    3    0    0  0.73080207511E+01 -0.51181435374E+01 -0.19662248631E+02  0.21591817474E+02  0.00000000000E+00 0.  1.
</event>
<event>
 7    1  0.2110035E-010  0.4778727E+02  0.7816164E-02  0.1312668E+00
        -11   -1    0    0    0    0  0.00000000000E+00  0.00000000000E+00  0.45593999997E+02  0.45594000000E+02  0.51100000000E-03 0.  1.
         11   -1    0    0    0    0 -0.00000000000E+00 -0.00000000000E+00 -0.45593999997E+02  0.45594000000E+02  0.51100000000E-03 0. -1.
    9900012    2    1    2    0    0  0.23584240216E+02  0.36091113168E+02 -0.49838161084E+01  0.47787271213E+02  0.20000000767E+02 0.  0.
        -12    1    1    2    0    0 -0.23584240216E+02 -0.36091113168E+02  0.49838161084E+01  0.43400728787E+02  0.00000000000E+00 0.  1.
         11    1    3    3    0    0  0.38696692476E+01  0.22967247999E+02  0.82590595840E+00  0.23305598934E+02  0.51100000000E-03 0. -1.
        -11    1    3    3    0    0  0.60798540790E+01  0.28882743483E+01 -0.14955327565E+01  0.68951702531E+01  0.51100000000E-03 0.  1.
         12    1    3    3    0    0  0.13634716890E+02  0.10235590820E+02 -0.43141893103E+01  0.17586502026E+02  0.00000000000E+00 0. -1.
</event>
<event>
 7    1  0.2110035E-010  0.4778727E+02  0.7816164E-02  0.1312668E+00
        -11   -1    0    0    0    0  0.00000000000E+00  0.00000000000E+00  0.45593999997E+02  0.45594000000E+02  0.51100000000E-03 0.  1.
         11   -1    0    0    0    0 -0.00000000000E+00 -0.00000000000E+00 -0.45593999997E+02  0.45594000000E+02  0.51100000000E-03 0. -1.
    9900012    2    1    2    0    0 -0.33644074588E+02 -0.19592974415E+02  0.19178502902E+02  0.47787269881E+02  0.19999994696E+02 0.  0.
        -12    1    1    2    0    0  0.33644074588E+02  0.19592974415E+02 -0.19178502902E+02  0.43400730119E+02  0.00000000000E+00 0.  1.
         11    1    3    3    0    0 -0.28646016040E+01 -0.61067291611E+01  0.52780659827E+01  0.85648154783E+01  0.51100000000E-03 0. -1.
        -11    1    3    3    0    0 -0.90015800091E+01  0.27219331449E+01  0.50160757867E+01  0.10658254044E+02  0.51100000000E-03 0.  1.
         12    1    3    3    0    0 -0.21777892975E+02 -0.16208178399E+02  0.88843611325E+01  0.28564200359E+02  0.00000000000E+00 0. -1.
</event>
<event>
 7    1  0.2110035E-010  0.4778727E+02  0.7816164E-02  0.1312668E+00
        -11   -1    0    0    0    0  0.00000000000E+00  0.00000000000E+00  0.45593999997E+02  0.45594000000E+02  0.51100000000E-03 0. -1.
         11   -1    0    0    0    0 -0.00000000000E+00 -0.00000000000E+00 -0.45593999997E+02  0.45594000000E+02  0.51100000000E-03 0.  1.
    9900012    2    1    2    0    0 -0.11409964842E+01  0.28713785649E+02  0.32524450380E+02  0.47787271529E+02  0.20000002210E+02 0.  0.
        -12    1    1    2    0    0  0.11409964842E+01 -0.28713785649E+02 -0.32524450380E+02  0.43400728471E+02  0.00000000000E+00 0.  1.
         11    1    3    3    0    0 -0.37199669445E+01  0.78624305522E+01  0.31644085925E+01  0.92557792896E+01  0.51100000000E-03 0. -1.
        -11    1    3    3    0    0 -0.28444122203E+01  0.13808240722E+01  0.35901695686E+00  0.31821768388E+01  0.51100000000E-03 0.  1.
         12    1    3    3    0    0  0.54233826806E+01  0.19470531024E+02  0.29001024831E+02  0.35349315401E+02  0.00000000000E+00 0. -1.
</event>
<event>
 7    1  0.2110035E-010  0.4778728E+02  0.7816164E-02  0.1312668E+00
        -11   -1    0    0    0    0  0.00000000000E+00  0.00000000000E+00  0.45593999997E+02  0.45594000000E+02  0.51100000000E-03 0.  1.
         11   -1    0    0    0    0 -0.00000000000E+00 -0.00000000000E+00 -0.45593999997E+02  0.45594000000E+02  0.51100000000E-03 0. -1.
    9900012    2    1    2    0    0 -0.31422368510E+01  0.30645630972E+02 -0.30571139277E+02  0.47787275274E+02  0.20000019282E+02 0.  0.
        -12    1    1    2    0    0  0.31422368510E+01 -0.30645630972E+02  0.30571139277E+02  0.43400724726E+02  0.00000000000E+00 0.  1.
         11    1    3    3    0    0  0.20896962783E+01  0.60659394462E+01 -0.14019981501E+02  0.15418246769E+02  0.51100000000E-03 0. -1.
        -11    1    3    3    0    0 -0.31141588149E+01  0.14746619894E+01 -0.59149625402E+01  0.68453922619E+01  0.51100000000E-03 0.  1.
        -12    1    3    3    0    0 -0.21177743145E+01  0.23105029536E+02 -0.10636195236E+02  0.25523636242E+02  0.00000000000E+00 0.  1.
</event>
<event>
 7    1  0.2110035E-010  0.4778728E+02  0.7816164E-02  0.1312668E+00
        -11   -1    0    0    0    0  0.00000000000E+00  0.00000000000E+00  0.45593999997E+02  0.45594000000E+02  0.51100000000E-03 0. -1.
         11   -1    0    0    0    0 -0.00000000000E+00 -0.00000000000E+00 -0.45593999997E+02  0.45594000000E+02  0.51100000000E-03 0.  1.
    9900012    2    1    2    0    0  0.12201162688E+02  0.38541200591E+02  0.15790178527E+02  0.47787282819E+02  0.20000053683E+02 0.  0.
        -12    1    1    2    0    0 -0.12201162688E+02 -0.38541200591E+02 -0.15790178527E+02  0.43400717181E+02  0.00000000000E+00 0.  1.
         11    1    3    3    0    0  0.10285505074E+00  0.79973638739E+01  0.11474795097E+02  0.13987113029E+02  0.51100000000E-03 0. -1.
        -11    1    3    3    0    0  0.43843898181E+01  0.15779981505E+02 -0.73365091820E+00  0.16394173791E+02  0.51100000000E-03 0.  1.
        -12    1    3    3    0    0  0.77139178189E+01  0.14763855213E+02  0.50490343475E+01  0.17405995998E+02  0.00000000000E+00 0.  1.
</event>
<event>
 7    1  0.2110035E-010  0.4778727E+02  0.7816164E-02  0.1312668E+00
        -11   -1    0    0    0    0  0.00000000000E+00  0.00000000000E+00  0.45593999997E+02  0.45594000000E+02  0.51100000000E-03 0.  1.
         11   -1    0    0    0    0 -0.00000000000E+00 -0.00000000000E+00 -0.45593999997E+02  0.45594000000E+02  0.51100000000E-03 0. -1.
    9900012    2    1    2    0    0  0.25834593861E+02  0.24491870326E+02 -0.24826298278E+02  0.47787273759E+02  0.20000012378E+02 0.  0.
        -12    1    1    2    0    0 -0.25834593861E+02 -0.24491870326E+02  0.24826298278E+02  0.43400726241E+02  0.00000000000E+00 0.  1.
         11    1    3    3    0    0  0.51912272380E+01  0.51934586913E+01 -0.10042041296E+02  0.12440395776E+02  0.51100000000E-03 0. -1.
        -11    1    3    3    0    0  0.21901433102E+02  0.15760224459E+02 -0.89873181839E+01  0.28439925023E+02  0.51100000000E-03 0.  1.
        -12    1    3    3    0    0 -0.12580664795E+01  0.35381871763E+01 -0.57969387982E+01  0.69069529600E+01  0.00000000000E+00 0.  1.
</event>
<event>
 7    1  0.2110035E-010  0.4778727E+02  0.7816164E-02  0.1312668E+00
        -11   -1    0    0    0    0  0.00000000000E+00  0.00000000000E+00  0.45593999997E+02  0.45594000000E+02  0.51100000000E-03 0.  1.
         11   -1    0    0    0    0 -0.00000000000E+00 -0.00000000000E+00 -0.45593999997E+02  0.45594000000E+02  0.51100000000E-03 0. -1.
    9900012    2    1    2    0    0 -0.36787575254E+02  0.47439525946E+01 -0.22534247420E+02  0.47787273208E+02  0.20000009864E+02 0.  0.
        -12    1    1    2    0    0  0.36787575254E+02 -0.47439525946E+01  0.22534247420E+02  0.43400726792E+02  0.00000000000E+00 0.  1.
         11    1    3    3    0    0 -0.25677010828E+02  0.79825735520E+01 -0.20887727274E+02  0.34048898903E+02  0.51100000000E-03 0. -1.
        -11    1    3    3    0    0 -0.10792264007E+02 -0.51470392345E+00 -0.19503271440E+01  0.10979146541E+02  0.51100000000E-03 0.  1.
        -12    1    3    3    0    0 -0.31830041913E+00 -0.27239170339E+01  0.30380699785E+00  0.27592277645E+01  0.00000000000E+00 0.  1.
</event>
<event>
 7    1  0.2110035E-010  0.4778726E+02  0.7816164E-02  0.1312668E+00
        -11   -1    0    0    0    0  0.00000000000E+00  0.00000000000E+00  0.45593999997E+02  0.45594000000E+02  0.51100000000E-03 0.  1.
         11   -1    0    0    0    0 -0.00000000000E+00 -0.00000000000E+00 -0.45593999997E+02  0.45594000000E+02  0.51100000000E-03 0. -1.
    9900012    2    1    2    0    0  0.38522741437E+02  0.19800501543E+02  0.27501263325E+01  0.47787255029E+02  0.19999926980E+02 0.  0.
        -12    1    1    2    0    0 -0.38522741437E+02 -0.19800501543E+02 -0.27501263325E+01  0.43400744971E+02  0.00000000000E+00 0.  1.
         11    1    3    3    0    0  0.11723138099E+02  0.55387369770E+01  0.35294560262E+01  0.13437508485E+02  0.51100000000E-03 0. -1.
        -11    1    3    3    0    0  0.14702020323E+02  0.22346881613E+01 -0.66758478340E+01  0.16300618925E+02  0.51100000000E-03 0.  1.
        -12    1    3    3    0    0  0.12097583015E+02  0.12027076404E+02  0.58965181403E+01  0.18049127619E+02  0.00000000000E+00 0.  1.
</event>
<event>
 7    1  0.2110035E-010  0.4778727E+02  0.7816164E-02  0.1312668E+00
        -11   -1    0    0    0    0  0.00000000000E+00  0.00000000000E+00  0.45593999997E+02  0.45594000000E+02  0.51100000000E-03 0.  1.
         11   -1    0    0    0    0 -0.00000000000E+00 -0.00000000000E+00 -0.45593999997E+02  0.45594000000E+02  0.51100000000E-03 0. -1.
    9900012    2    1    2    0    0 -0.78515060430E+01 -0.19038302676E+01 -0.42642145384E+02  0.47787270977E+02  0.19999999691E+02 0.  0.
        -12    1    1    2    0    0  0.78515060430E+01  0.19038302676E+01  0.42642145384E+02  0.43400729023E+02  0.00000000000E+00 0.  1.
         11    1    3    3    0    0  0.15414761427E+01 -0.24134520391E+01 -0.12755258573E+02  0.13072777860E+02  0.51100000000E-03 0. -1.
        -11    1    3    3    0    0 -0.10759084852E+02 -0.41399061845E+01 -0.14167796054E+02  0.18265354509E+02  0.51100000000E-03 0.  1.
         12    1    3    3    0    0  0.13661026665E+01  0.46495279560E+01 -0.15719090757E+02  0.16449138608E+02  0.00000000000E+00 0. -1.
</event>
<event>
 7    1  0.2110035E-010  0.4778727E+02  0.7816164E-02  0.1312668E+00
        -11   -1    0    0    0    0  0.00000000000E+00  0.00000000000E+00  0.45593999997E+02  0.45594000000E+02  0.51100000000E-03 0.  1.
         11   -1    0    0    0    0 -0.00000000000E+00 -0.00000000000E+00 -0.45593999997E+02  0.45594000000E+02  0.51100000000E-03 0. -1.
    9900012    2    1    2    0    0 -0.27720131016E+02 -0.33386268372E+02 -0.75811360370E+00  0.47787270563E+02  0.19999997807E+02 0.  0.
        -12    1    1    2    0    0  0.27720131016E+02  0.33386268372E+02  0.75811360370E+00  0.43400729437E+02  0.00000000000E+00 0.  1.
         11    1    3    3    0    0 -0.21409744929E+02 -0.10795407890E+02  0.13475681205E+01  0.24015285748E+02  0.51100000000E-03 0. -1.
        -11    1    3    3    0    0 -0.13705311197E+00 -0.54932949744E+01 -0.70766696249E+00  0.55403850067E+01  0.51100000000E-03 0.  1.
        -12    1    3    3    0    0 -0.61733329750E+01 -0.17097565508E+02 -0.13980147618E+01  0.18231599809E+02  0.00000000000E+00 0.  1.
</event>
<event>
 7    1  0.2110035E-010  0.4778727E+02  0.7816164E-02  0.1312668E+00
        -11   -1    0    0    0    0  0.00000000000E+00  0.00000000000E+00  0.45593999997E+02  0.45594000000E+02  0.51100000000E-03 0. -1.
         11   -1    0    0    0    0 -0.00000000000E+00 -0.00000000000E+00 -0.45593999997E+02  0.45594000000E+02  0.51100000000E-03 0.  1.
    9900012    2    1    2    0    0 -0.10377067559E+02 -0.39252274101E+02  0.15336192635E+02  0.47787270078E+02  0.19999995594E+02 0.  0.
        -12    1    1    2    0    0  0.10377067559E+02  0.39252274101E+02 -0.15336192635E+02  0.43400729922E+02  0.00000000000E+00 0.  1.
         11    1    3    3    0    0 -0.93677133918E+00 -0.34421644576E+01  0.69782321133E+01  0.78372036074E+01  0.51100000000E-03 0. -1.
        -11    1    3    3    0    0 -0.94107584988E+01 -0.12309402469E+02  0.21489156791E+01  0.15642941012E+02  0.51100000000E-03 0.  1.
        -12    1    3    3    0    0 -0.29537720743E-01 -0.23500707175E+02  0.62090448424E+01  0.24307125458E+02  0.00000000000E+00 0.  1.
</event>
<event>
 7    1  0.2110035E-010  0.4778727E+02  0.7816164E-02  0.1312668E+00
        -11   -1    0    0    0    0  0.00000000000E+00  0.00000000000E+00  0.45593999997E+02  0.45594000000E+02  0.51100000000E-03 0.  1.
         11   -1    0    0    0    0 -0.00000000000E+00 -0.00000000000E+00 -0.45593999997E+02  0.45594000000E+02  0.51100000000E-03 0. -1.
    9900012    2    1    2    0    0 -0.25765468297E+02  0.20376239681E+02 -0.28364989165E+02  0.47787272927E+02  0.20000008586E+02 0.  0.
        -12    1    1    2    0    0  0.25765468297E+02 -0.20376239681E+02  0.28364989165E+02  0.43400727073E+02  0.00000000000E+00 0.  1.
         11    1    3    3    0    0 -0.17963424410E+02  0.10318376446E+02 -0.20239007522E+02  0.28961542341E+02  0.51100000000E-03 0. -1.
        -11    1    3    3    0    0 -0.28307117993E+01  0.10001486830E+02 -0.90343358258E+01  0.13771778831E+02  0.51100000000E-03 0.  1.
        -12    1    3    3    0    0 -0.49713320876E+01  0.56376404563E-01  0.90835418292E+00  0.50539517554E+01  0.00000000000E+00 0.  1.
</event>
<event>
 7    1  0.2110035E-010  0.4778727E+02  0.7816164E-02  0.1312668E+00
        -11   -1    0    0    0    0  0.00000000000E+00  0.00000000000E+00  0.45593999997E+02  0.45594000000E+02  0.51100000000E-03 0.  1.
         11   -1    0    0    0    0 -0.00000000000E+00 -0.00000000000E+00 -0.45593999997E+02  0.45594000000E+02  0.51100000000E-03 0. -1.
    9900012    2    1    2    0    0 -0.32765884480E+02 -0.14507384644E+02 -0.24485827262E+02  0.47787272683E+02  0.20000007471E+02 0.  0.
        -12    1    1    2    0    0  0.32765884480E+02  0.14507384644E+02  0.24485827262E+02  0.43400727317E+02  0.00000000000E+00 0.  1.
         11    1    3    3    0    0 -0.30009679074E+02 -0.97161656438E+01 -0.15200762363E+02  0.35014966652E+02  0.51100000000E-03 0. -1.
        -11    1    3    3    0    0 -0.12565810296E+01 -0.40147183035E+01 -0.10095141062E+01  0.43262082626E+01  0.51100000000E-03 0.  1.
         12    1    3    3    0    0 -0.14996243763E+01 -0.77650069642E+00 -0.82755507923E+01  0.84460977686E+01  0.00000000000E+00 0. -1.
</event>
<event>
 7    1  0.2110035E-010  0.4778726E+02  0.7816164E-02  0.1312668E+00
        -11   -1    0    0    0    0  0.00000000000E+00  0.00000000000E+00  0.45593999997E+02  0.45594000000E+02  0.51100000000E-03 0. -1.
         11   -1    0    0    0    0 -0.00000000000E+00 -0.00000000000E+00 -0.45593999997E+02  0.45594000000E+02  0.51100000000E-03 0.  1.
    9900012    2    1    2    0    0 -0.15858183499E+02  0.39948615801E+02 -0.60208412761E+01  0.47787257864E+02  0.19999939903E+02 0.  0.
        -12    1    1    2    0    0  0.15858183499E+02 -0.39948615801E+02  0.60208412761E+01  0.43400742136E+02  0.00000000000E+00 0.  1.
         11    1    3    3    0    0 -0.77859155943E+01  0.14704648633E+02 -0.10025170202E+02  0.19425529874E+02  0.51100000000E-03 0. -1.
        -11    1    3    3    0    0 -0.23690158670E+01  0.17426796809E+02 -0.70264366058E+00  0.17601113362E+02  0.51100000000E-03 0.  1.
        -12    1    3    3    0    0 -0.57032520381E+01  0.78171703589E+01  0.47069725861E+01  0.10760614627E+02  0.00000000000E+00 0.  1.
</event>
<event>
 7    1  0.2110035E-010  0.4778726E+02  0.7816164E-02  0.1312668E+00
        -11   -1    0    0    0    0  0.00000000000E+00  0.00000000000E+00  0.45593999997E+02  0.45594000000E+02  0.51100000000E-03 0.  1.
         11   -1    0    0    0    0 -0.00000000000E+00 -0.00000000000E+00 -0.45593999997E+02  0.45594000000E+02  0.51100000000E-03 0. -1.
    9900012    2    1    2    0    0  0.21250756736E+02  0.30093103156E+02 -0.22944163246E+02  0.47787260991E+02  0.19999954164E+02 0.  0.
        -12    1    1    2    0    0 -0.21250756736E+02 -0.30093103156E+02  0.22944163246E+02  0.43400739009E+02  0.00000000000E+00 0.  1.
         11    1    3    3    0    0 -0.11834544558E+01  0.68359459266E+01 -0.60781977699E+00  0.69642060785E+01  0.51100000000E-03 0. -1.
        -11    1    3    3    0    0  0.78667150616E+01  0.17679304550E+01 -0.37382255441E+01  0.88873569993E+01  0.51100000000E-03 0.  1.
         12    1    3    3    0    0  0.14567496130E+02  0.21489226775E+02 -0.18598117925E+02  0.31935697914E+02  0.00000000000E+00 0. -1.
</event>
<event>
 7    1  0.2110035E-010  0.4778727E+02  0.7816164E-02  0.1312668E+00
        -11   -1    0    0    0    0  0.00000000000E+00  0.00000000000E+00  0.45593999997E+02  0.45594000000E+02  0.51100000000E-03 0. -1.
         11   -1    0    0    0    0 -0.00000000000E+00 -0.00000000000E+00 -0.45593999997E+02  0.45594000000E+02  0.51100000000E-03 0.  1.
    9900012    2    1    2    0    0  0.10373154323E+02  0.41692572136E+02 -0.61441443145E+01  0.47787269461E+02  0.19999992782E+02 0.  0.
        -12    1    1    2    0    0 -0.10373154323E+02 -0.41692572136E+02  0.61441443145E+01  0.43400730539E+02  0.00000000000E+00 0.  1.
         11    1    3    3    0    0  0.45093942269E+01  0.28534937939E+02  0.25666811664E+01  0.29002847652E+02  0.51100000000E-03 0. -1.
        -11    1    3    3    0    0  0.67217665402E-02  0.16539128794E+01  0.15710575410E+01  0.22811609003E+01  0.51100000000E-03 0.  1.
        -12    1    3    3    0    0  0.58570383300E+01  0.11503721318E+02 -0.10281883022E+02  0.16503260909E+02  0.00000000000E+00 0.  1.
</event>
<event>
 7    1  0.2110035E-010  0.4778727E+02  0.7816164E-02  0.1312668E+00
        -11   -1    0    0    0    0  0.00000000000E+00  0.00000000000E+00  0.45593999997E+02  0.45594000000E+02  0.51100000000E-03 0.  1.
         11   -1    0    0    0    0 -0.00000000000E+00 -0.00000000000E+00 -0.45593999997E+02  0.45594000000E+02  0.51100000000E-03 0. -1.
    9900012    2    1    2    0    0  0.19241845894E+02  0.22044788571E+02 -0.32053114686E+02  0.47787268467E+02  0.19999988247E+02 0.  0.
        -12    1    1    2    0    0 -0.19241845894E+02 -0.22044788571E+02  0.32053114686E+02  0.43400731533E+02  0.00000000000E+00 0.  1.
         11    1    3    3    0    0  0.38447493402E+01  0.14562399903E+02 -0.13478005983E+02  0.20211438196E+02  0.51100000000E-03 0. -1.
        -11    1    3    3    0    0  0.83730382096E+01  0.50832198079E+01 -0.17528759591E+02  0.20079947847E+02  0.51100000000E-03 0.  1.
        -12    1    3    3    0    0  0.70240583442E+01  0.23991688604E+01 -0.10463491121E+01  0.74958824236E+01  0.00000000000E+00 0.  1.
</event>
<event>
 7    1  0.2110035E-010  0.4778727E+02  0.7816164E-02  0.1312668E+00
        -11   -1    0    0    0    0  0.00000000000E+00  0.00000000000E+00  0.45593999997E+02  0.45594000000E+02  0.51100000000E-03 0.  1.
         11   -1    0    0    0    0 -0.00000000000E+00 -0.00000000000E+00 -0.45593999997E+02  0.45594000000E+02  0.51100000000E-03 0. -1.
    9900012    2    1    2    0    0  0.29118276160E+02 -0.32181478087E+02 -0.31860672207E+00  0.47787273639E+02  0.20000011832E+02 0.  0.
        -12    1    1    2    0    0 -0.29118276160E+02  0.32181478087E+02  0.31860672207E+00  0.43400726361E+02  0.00000000000E+00 0.  1.
         11    1    3    3    0    0  0.12324280104E+02 -0.98638485066E+01 -0.52616158469E+01  0.16639350619E+02  0.51100000000E-03 0.  1.
        -11    1    3    3    0    0  0.17859906652E+02 -0.22536052333E+02  0.62712600410E+01  0.29430912714E+02  0.51100000000E-03 0. -1.
         12    1    3    3    0    0 -0.10659105962E+01  0.21842275280E+00 -0.13282509161E+01  0.17170103070E+01  0.00000000000E+00 0. -1.
</event>
<event>
 7    1  0.2110035E-010  0.4778728E+02  0.7816164E-02  0.1312668E+00
        -11   -1    0    0    0    0  0.00000000000E+00  0.00000000000E+00  0.45593999997E+02  0.45594000000E+02  0.51100000000E-03 0.  1.
         11   -1    0    0    0    0 -0.00000000000E+00 -0.00000000000E+00 -0.45593999997E+02  0.45594000000E+02  0.51100000000E-03 0. -1.
    9900012    2    1    2    0    0 -0.38677245221E+02  0.25637977298E+01 -0.19522304359E+02  0.47787277378E+02  0.20000028876E+02 0.  0.
        -12    1    1    2    0    0  0.38677245221E+02 -0.25637977298E+01  0.19522304359E+02  0.43400722622E+02  0.00000000000E+00 0.  1.
         11    1    3    3    0    0 -0.12686332676E+02 -0.21797825392E+00 -0.23497862191E+01  0.12903954697E+02  0.51100000000E-03 0. -1.
        -11    1    3    3    0    0 -0.85608067110E+01 -0.30713421836E+01 -0.13269092579E+02  0.16086931730E+02  0.51100000000E-03 0.  1.
        -12    1    3    3    0    0 -0.17430105833E+02  0.58531181674E+01 -0.39034255602E+01  0.18796390950E+02  0.00000000000E+00 0.  1.
</event>
<event>
 7    1  0.2110035E-010  0.4778727E+02  0.7816164E-02  0.1312668E+00
        -11   -1    0    0    0    0  0.00000000000E+00  0.00000000000E+00  0.45593999997E+02  0.45594000000E+02  0.51100000000E-03 0. -1.
         11   -1    0    0    0    0 -0.00000000000E+00 -0.00000000000E+00 -0.45593999997E+02  0.45594000000E+02  0.51100000000E-03 0.  1.
    9900012    2    1    2    0    0  0.42319837019E+02 -0.68284228997E+01 -0.67843514251E+01  0.47787269720E+02  0.19999993960E+02 0.  0.
        -12    1    1    2    0    0 -0.42319837019E+02  0.68284228997E+01  0.67843514251E+01  0.43400730280E+02  0.00000000000E+00 0.  1.
         11    1    3    3    0    0  0.18124231143E+02 -0.32518421834E+01  0.18418592838E+01  0.18505531011E+02  0.51100000000E-03 0. -1.
        -11    1    3    3    0    0 -0.28058736923E+00 -0.34765382500E+01 -0.73232333777E+00  0.35638946684E+01  0.51100000000E-03 0.  1.
         12    1    3    3    0    0  0.24476193245E+02 -0.10004246633E+00 -0.78938873711E+01  0.25717844041E+02  0.00000000000E+00 0. -1.
</event>
<event>
 7    1  0.2110035E-010  0.4778727E+02  0.7816164E-02  0.1312668E+00
        -11   -1    0    0    0    0  0.00000000000E+00  0.00000000000E+00  0.45593999997E+02  0.45594000000E+02  0.51100000000E-03 0.  1.
         11   -1    0    0    0    0 -0.00000000000E+00 -0.00000000000E+00 -0.45593999997E+02  0.45594000000E+02  0.51100000000E-03 0. -1.
    9900012    2    1    2    0    0 -0.25151928726E+00 -0.17024421102E+01 -0.43366599559E+02  0.47787268112E+02  0.19999986631E+02 0.  0.
        -12    1    1    2    0    0  0.25151928726E+00  0.17024421102E+01  0.43366599559E+02  0.43400731888E+02  0.00000000000E+00 0.  1.
         11    1    3    3    0    0  0.72711469071E+01  0.21970310931E+01 -0.29441256053E+02  0.30405329816E+02  0.51100000000E-03 0. -1.
        -11    1    3    3    0    0 -0.87636952099E+00  0.15677566748E+01 -0.24760336284E+01  0.30588604608E+01  0.51100000000E-03 0.  1.
         12    1    3    3    0    0 -0.66462966734E+01 -0.54672298781E+01 -0.11449309877E+02  0.14323077835E+02  0.00000000000E+00 0. -1.
</event>
<event>
 7    1  0.2110035E-010  0.4778727E+02  0.7816164E-02  0.1312668E+00
        -11   -1    0    0    0    0  0.00000000000E+00  0.00000000000E+00  0.45593999997E+02  0.45594000000E+02  0.51100000000E-03 0.  1.
         11   -1    0    0    0    0 -0.00000000000E+00 -0.00000000000E+00 -0.45593999997E+02  0.45594000000E+02  0.51100000000E-03 0. -1.
    9900012    2    1    2    0    0  0.17650347654E+02 -0.39423081697E+02 -0.42319383637E+01  0.47787269072E+02  0.19999991006E+02 0.  0.
        -12    1    1    2    0    0 -0.17650347654E+02  0.39423081697E+02  0.42319383637E+01  0.43400730928E+02  0.00000000000E+00 0.  1.
         11    1    3    3    0    0  0.86417066228E+01 -0.15785660110E+02 -0.31346794514E+01  0.18267248670E+02  0.51100000000E-03 0. -1.
        -11    1    3    3    0    0  0.12584421085E+02 -0.20123315451E+02 -0.34468673920E+01  0.23983251945E+02  0.51100000000E-03 0.  1.
        -12    1    3    3    0    0 -0.35757800542E+01 -0.35141061361E+01  0.23496084796E+01  0.55367684563E+01  0.00000000000E+00 0.  1.
</event>
<event>
 7    1  0.2110035E-010  0.4778728E+02  0.7816164E-02  0.1312668E+00
        -11   -1    0    0    0    0  0.00000000000E+00  0.00000000000E+00  0.45593999997E+02  0.45594000000E+02  0.51100000000E-03 0.  1.
         11   -1    0    0    0    0 -0.00000000000E+00 -0.00000000000E+00 -0.45593999997E+02  0.45594000000E+02  0.51100000000E-03 0. -1.
    9900012    2    1    2    0    0  0.12434438208E+01 -0.43370276643E+02 -0.10465656609E+01  0.47787281708E+02  0.20000048619E+02 0.  0.
        -12    1    1    2    0    0 -0.12434438208E+01  0.43370276643E+02  0.10465656609E+01  0.43400718292E+02  0.00000000000E+00 0.  1.
         11    1    3    3    0    0  0.12326880794E+01 -0.18796067714E+02  0.62897955388E+01  0.19858832030E+02  0.51100000000E-03 0.  1.
        -11    1    3    3    0    0  0.38470915899E+01 -0.21428557597E+02 -0.45609373064E+01  0.22243770898E+02  0.51100000000E-03 0. -1.
        -12    1    3    3    0    0 -0.38363358485E+01 -0.31456513313E+01 -0.27754238933E+01  0.56846787797E+01  0.00000000000E+00 0.  1.
</event>
<event>
 7    1  0.2110035E-010  0.4778727E+02  0.7816164E-02  0.1312668E+00
        -11   -1    0    0    0    0  0.00000000000E+00  0.00000000000E+00  0.45593999997E+02  0.45594000000E+02  0.51100000000E-03 0. -1.
         11   -1    0    0    0    0 -0.00000000000E+00 -0.00000000000E+00 -0.45593999997E+02  0.45594000000E+02  0.51100000000E-03 0.  1.
    9900012    2    1    2    0    0 -0.27681449340E+02  0.30919825267E+02  0.12701379720E+02  0.47787270987E+02  0.19999999737E+02 0.  0.
        -12    1    1    2    0    0  0.27681449340E+02 -0.30919825267E+02 -0.12701379720E+02  0.43400729013E+02  0.00000000000E+00 0.  1.
         11    1    3    3    0    0 -0.63634449369E+01  0.92896670155E+01  0.10306279453E+02  0.15264689357E+02  0.51100000000E-03 0. -1.
        -11    1    3    3    0    0 -0.35652121745E+01  0.94735342815E+01  0.41393223012E+01  0.10935839200E+02  0.51100000000E-03 0.  1.
        -12    1    3    3    0    0 -0.17752792228E+02  0.12156623970E+02 -0.17442220347E+01  0.21586742430E+02  0.00000000000E+00 0.  1.
</event>
<event>
 7    1  0.2110035E-010  0.4778727E+02  0.7816164E-02  0.1312668E+00
        -11   -1    0    0    0    0  0.00000000000E+00  0.00000000000E+00  0.45593999997E+02  0.45594000000E+02  0.51100000000E-03 0.  1.
         11   -1    0    0    0    0 -0.00000000000E+00 -0.00000000000E+00 -0.45593999997E+02  0.45594000000E+02  0.51100000000E-03 0. -1.
    9900012    2    1    2    0    0 -0.42368539472E+02 -0.70347614864E+01  0.62483730808E+01  0.47787272215E+02  0.20000005336E+02 0.  0.
        -12    1    1    2    0    0  0.42368539472E+02  0.70347614864E+01 -0.62483730808E+01  0.43400727785E+02  0.00000000000E+00 0.  1.
         11    1    3    3    0    0 -0.12515552265E+02 -0.66432697044E+01 -0.84773511341E+00  0.14194743250E+02  0.51100000000E-03 0. -1.
        -11    1    3    3    0    0  0.21872512666E+00  0.25209999375E+01 -0.10909507368E+00  0.25328212258E+01  0.51100000000E-03 0.  1.
         12    1    3    3    0    0 -0.30071712334E+02 -0.29124917196E+01  0.72052032678E+01  0.31059707739E+02  0.00000000000E+00 0. -1.
</event>
<event>
 7    1  0.2261850E-010  0.4778728E+02  0.7816164E-02  0.1312668E+00
        -11   -1    0    0    0    0  0.00000000000E+00  0.00000000000E+00  0.45593999997E+02  0.45594000000E+02  0.51100000000E-03 0.  1.
         11   -1    0    0    0    0 -0.00000000000E+00 -0.00000000000E+00 -0.45593999997E+02  0.45594000000E+02  0.51100000000E-03 0. -1.
    9900012    2    1    2    0    0 -0.37047529494E+02  0.20893871233E+02  0.86342112296E+01  0.47787275348E+02  0.20000019623E+02 0.  0.
        -12    1    1    2    0    0  0.37047529494E+02 -0.20893871233E+02 -0.86342112296E+01  0.43400724652E+02  0.00000000000E+00 0.  1.
         11    1    3    3    0    0 -0.17316286127E+02  0.14850584777E+02 -0.68858047829E+00  0.22822527835E+02  0.51100000000E-03 0. -1.
        -11    1    3    3    0    0 -0.49652927310E+00 -0.18487187914E+01 -0.48792512645E+00  0.19754426539E+01  0.51100000000E-03 0.  1.
        -12    1    3    3    0    0 -0.19234714094E+02  0.78920052479E+01  0.98107168344E+01  0.22989304859E+02  0.00000000000E+00 0.  1.
</event>
<event>
 7    1  0.2110035E-010  0.4778727E+02  0.7816164E-02  0.1312668E+00
        -11   -1    0    0    0    0  0.00000000000E+00  0.00000000000E+00  0.45593999997E+02  0.45594000000E+02  0.51100000000E-03 0.  1.
         11   -1    0    0    0    0 -0.00000000000E+00 -0.00000000000E+00 -0.45593999997E+02  0.45594000000E+02  0.51100000000E-03 0. -1.
    9900012    2    1    2    0    0  0.74256382215E+01 -0.18173685090E+02 -0.38706595847E+02  0.47787268499E+02  0.19999988396E+02 0.  0.
        -12    1    1    2    0    0 -0.74256382215E+01  0.18173685090E+02  0.38706595847E+02  0.43400731501E+02  0.00000000000E+00 0.  1.
         11    1    3    3    0    0 -0.44237726993E+01 -0.31454488350E+01 -0.12728841412E+02  0.13837883408E+02  0.51100000000E-03 0.  1.
        -11    1    3    3    0    0  0.46940406628E+01 -0.11513427586E+02 -0.21418220658E+02  0.24765564984E+02  0.51100000000E-03 0. -1.
        -12    1    3    3    0    0  0.71553702580E+01 -0.35148086691E+01 -0.45595337761E+01  0.91838201074E+01  0.00000000000E+00 0.  1.
</event>
<event>
 7    1  0.2110035E-010  0.4778727E+02  0.7816164E-02  0.1312668E+00
        -11   -1    0    0    0    0  0.00000000000E+00  0.00000000000E+00  0.45593999997E+02  0.45594000000E+02  0.51100000000E-03 0.  1.
         11   -1    0    0    0    0 -0.00000000000E+00 -0.00000000000E+00 -0.45593999997E+02  0.45594000000E+02  0.51100000000E-03 0. -1.
    9900012    2    1    2    0    0  0.15450186820E+02 -0.53270163698E+01 -0.40206198054E+02  0.47787265696E+02  0.19999975615E+02 0.  0.
        -12    1    1    2    0    0 -0.15450186820E+02  0.53270163698E+01  0.40206198054E+02  0.43400734304E+02  0.00000000000E+00 0.  1.
         11    1    3    3    0    0 -0.91239125965E+00  0.37240170087E+01 -0.70469293613E+01  0.80224668386E+01  0.51100000000E-03 0.  1.
        -11    1    3    3    0    0  0.79987838376E+00 -0.23600591948E+01 -0.13873854537E+02  0.14095869069E+02  0.51100000000E-03 0. -1.
        -12    1    3    3    0    0  0.15562699696E+02 -0.66909741838E+01 -0.19285414155E+02  0.25668929789E+02  0.00000000000E+00 0.  1.
</event>
<event>
 7    1  0.2110035E-010  0.4778727E+02  0.7816164E-02  0.1312668E+00
        -11   -1    0    0    0    0  0.00000000000E+00  0.00000000000E+00  0.45593999997E+02  0.45594000000E+02  0.51100000000E-03 0.  1.
         11   -1    0    0    0    0 -0.00000000000E+00 -0.00000000000E+00 -0.45593999997E+02  0.45594000000E+02  0.51100000000E-03 0. -1.
    9900012    2    1    2    0    0 -0.12456006797E+02  0.37718083028E+02 -0.17487631297E+02  0.47787272575E+02  0.20000006977E+02 0.  0.
        -12    1    1    2    0    0  0.12456006797E+02 -0.37718083028E+02  0.17487631297E+02  0.43400727425E+02  0.00000000000E+00 0.  1.
         11    1    3    3    0    0 -0.68082165095E+01  0.28136109892E+02 -0.95967867006E+01  0.30497390169E+02  0.51100000000E-03 0. -1.
        -11    1    3    3    0    0 -0.83232743690E+01  0.73093553760E+01 -0.33947337525E+01  0.11585671743E+02  0.51100000000E-03 0.  1.
        -12    1    3    3    0    0  0.26754840812E+01  0.22726177600E+01 -0.44961108441E+01  0.57042106618E+01  0.00000000000E+00 0.  1.
</event>
<event>
 7    1  0.2110035E-010  0.4778727E+02  0.7816164E-02  0.1312668E+00
        -11   -1    0    0    0    0  0.00000000000E+00  0.00000000000E+00  0.45593999997E+02  0.45594000000E+02  0.51100000000E-03 0.  1.
         11   -1    0    0    0    0 -0.00000000000E+00 -0.00000000000E+00 -0.45593999997E+02  0.45594000000E+02  0.51100000000E-03 0. -1.
    9900012    2    1    2    0    0  0.12749160337E+02  0.27110359478E+02 -0.31402396522E+02  0.47787272038E+02  0.20000004529E+02 0.  0.
        -12    1    1    2    0    0 -0.12749160337E+02 -0.27110359478E+02  0.31402396522E+02  0.43400727962E+02  0.00000000000E+00 0.  1.
         11    1    3    3    0    0  0.23055450138E+01  0.10464707909E+02 -0.23513916955E+01  0.10970628633E+02  0.51100000000E-03 0.  1.
        -11    1    3    3    0    0  0.95862387937E+01  0.17922621332E+02 -0.23567120866E+02  0.31121142585E+02  0.51100000000E-03 0. -1.
        -12    1    3    3    0    0  0.85737652935E+00 -0.12769697634E+01 -0.54838839612E+01  0.56955008199E+01  0.00000000000E+00 0.  1.
</event>
<event>
 7    1  0.2110035E-010  0.4778727E+02  0.7816164E-02  0.1312668E+00
        -11   -1    0    0    0    0  0.00000000000E+00  0.00000000000E+00  0.45593999997E+02  0.45594000000E+02  0.51100000000E-03 0.  1.
         11   -1    0    0    0    0 -0.00000000000E+00 -0.00000000000E+00 -0.45593999997E+02  0.45594000000E+02  0.51100000000E-03 0. -1.
    9900012    2    1    2    0    0  0.15142509188E+02  0.30583685173E+02 -0.26813543801E+02  0.47787268273E+02  0.19999987365E+02 0.  0.
        -12    1    1    2    0    0 -0.15142509188E+02 -0.30583685173E+02  0.26813543801E+02  0.43400731727E+02  0.00000000000E+00 0.  1.
         11    1    3    3    0    0 -0.29856969652E+01  0.65376235289E+01 -0.57934095167E+01  0.92313867790E+01  0.51100000000E-03 0.  1.
        -11    1    3    3    0    0  0.13338093565E+02  0.16474341409E+02 -0.78016874241E+01  0.22587053631E+02  0.51100000000E-03 0. -1.
         12    1    3    3    0    0  0.47901125884E+01  0.75717202345E+01 -0.13218446860E+02  0.15968827863E+02  0.00000000000E+00 0. -1.
</event>
<event>
 7    1  0.2472915E-010  0.4778727E+02  0.7816164E-02  0.1312668E+00
        -11   -1    0    0    0    0  0.00000000000E+00  0.00000000000E+00  0.45593999997E+02  0.45594000000E+02  0.51100000000E-03 0. -1.
         11   -1    0    0    0    0 -0.00000000000E+00 -0.00000000000E+00 -0.45593999997E+02  0.45594000000E+02  0.51100000000E-03 0.  1.
    9900012    2    1    2    0    0  0.29523451929E+02  0.18511313410E+02  0.25871221775E+02  0.47787273577E+02  0.20000011546E+02 0.  0.
        -12    1    1    2    0    0 -0.29523451929E+02 -0.18511313410E+02 -0.25871221775E+02  0.43400726423E+02  0.00000000000E+00 0.  1.
         11    1    3    3    0    0  0.15473953826E+02  0.22381482495E+01  0.13171744471E+02  0.20443762062E+02  0.51100000000E-03 0. -1.
        -11    1    3    3    0    0  0.96833445626E+01  0.78789453695E+01  0.13337993759E+01  0.12554838234E+02  0.51100000000E-03 0.  1.
        -12    1    3    3    0    0  0.43661535405E+01  0.83942197908E+01  0.11365677928E+02  0.14788673280E+02  0.00000000000E+00 0.  1.
</event>
<event>
 7    1  0.2110035E-010  0.4778726E+02  0.7816164E-02  0.1312668E+00
        -11   -1    0    0    0    0  0.00000000000E+00  0.00000000000E+00  0.45593999997E+02  0.45594000000E+02  0.51100000000E-03 0.  1.
         11   -1    0    0    0    0 -0.00000000000E+00 -0.00000000000E+00 -0.45593999997E+02  0.45594000000E+02  0.51100000000E-03 0. -1.
    9900012    2    1    2    0    0  0.11192467267E+02 -0.37360056814E+02 -0.19041501277E+02  0.47787263375E+02  0.19999965034E+02 0.  0.
        -12    1    1    2    0    0 -0.11192467267E+02  0.37360056814E+02  0.19041501277E+02  0.43400736625E+02  0.00000000000E+00 0.  1.
         11    1    3    3    0    0  0.62042741927E+01 -0.16761435426E+02 -0.55694958775E+01  0.18720524042E+02  0.51100000000E-03 0. -1.
        -11    1    3    3    0    0 -0.48158404594E+00 -0.76537642074E+01 -0.12893487612E+02  0.15001801652E+02  0.51100000000E-03 0.  1.
        -12    1    3    3    0    0  0.54697771203E+01 -0.12944857180E+02 -0.57851778778E+00  0.14064937682E+02  0.00000000000E+00 0.  1.
</event>
<event>
 7    1  0.2110035E-010  0.4778729E+02  0.7816164E-02  0.1312668E+00
        -11   -1    0    0    0    0  0.00000000000E+00  0.00000000000E+00  0.45593999997E+02  0.45594000000E+02  0.51100000000E-03 0.  1.
         11   -1    0    0    0    0 -0.00000000000E+00 -0.00000000000E+00 -0.45593999997E+02  0.45594000000E+02  0.51100000000E-03 0. -1.
    9900012    2    1    2    0    0 -0.55656023208E+01  0.21067251624E+02 -0.37534207488E+02  0.47787288578E+02  0.20000079943E+02 0.  0.
        -12    1    1    2    0    0  0.55656023208E+01 -0.21067251624E+02  0.37534207488E+02  0.43400711422E+02  0.00000000000E+00 0.  1.
         11    1    3    3    0    0 -0.11756803581E+00  0.10865689606E+02 -0.17582890955E+02  0.20669665877E+02  0.51100000000E-03 0. -1.
        -11    1    3    3    0    0 -0.13632784892E+01  0.12655154683E+02 -0.10374167329E+02  0.16420560780E+02  0.51100000000E-03 0.  1.
        -12    1    3    3    0    0 -0.40847557957E+01 -0.24535926652E+01 -0.95771492043E+01  0.10697061922E+02  0.00000000000E+00 0.  1.
</event>
<event>
 7    1  0.2255807E-010  0.4778727E+02  0.7816164E-02  0.1312668E+00
        -11   -1    0    0    0    0  0.00000000000E+00  0.00000000000E+00  0.45593999997E+02  0.45594000000E+02  0.51100000000E-03 0.  1.
         11   -1    0    0    0    0 -0.00000000000E+00 -0.00000000000E+00 -0.45593999997E+02  0.45594000000E+02  0.51100000000E-03 0. -1.
    9900012    2    1    2    0    0  0.39009196283E+02  0.18920413660E+02  0.19808986817E+01  0.47787269508E+02  0.19999992992E+02 0.  0.
        -12    1    1    2    0    0 -0.39009196283E+02 -0.18920413660E+02 -0.19808986817E+01  0.43400730492E+02  0.00000000000E+00 0.  1.
         11    1    3    3    0    0  0.91918387351E+01  0.56942869654E+01 -0.23629044879E+01  0.11067886937E+02  0.51100000000E-03 0. -1.
        -11    1    3    3    0    0  0.55303907238E+01  0.20809170470E+01  0.77883184095E+01  0.97761618861E+01  0.51100000000E-03 0.  1.
        -12    1    3    3    0    0  0.24286966824E+02  0.11145209647E+02 -0.34445152398E+01  0.26943220684E+02  0.00000000000E+00 0.  1.
</event>
<event>
 7    1  0.2110035E-010  0.4778727E+02  0.7816164E-02  0.1312668E+00
        -11   -1    0    0    0    0  0.00000000000E+00  0.00000000000E+00  0.45593999997E+02  0.45594000000E+02  0.51100000000E-03 0.  1.
         11   -1    0    0    0    0 -0.00000000000E+00 -0.00000000000E+00 -0.45593999997E+02  0.45594000000E+02  0.51100000000E-03 0. -1.
    9900012    2    1    2    0    0 -0.94594002038E+01 -0.39949394015E+02 -0.14077957209E+02  0.47787271739E+02  0.20000003167E+02 0.  0.
        -12    1    1    2    0    0  0.94594002038E+01  0.39949394015E+02  0.14077957209E+02  0.43400728261E+02  0.00000000000E+00 0.  1.
         11    1    3    3    0    0 -0.20672475594E+01 -0.55301823642E+01 -0.54781021956E+01  0.80539452059E+01  0.51100000000E-03 0. -1.
        -11    1    3    3    0    0 -0.60466448580E+01 -0.54291674455E+01 -0.69029950677E+01  0.10662509759E+02  0.51100000000E-03 0.  1.
         12    1    3    3    0    0 -0.13455077864E+01 -0.28990044206E+02 -0.16968599455E+01  0.29070816774E+02  0.00000000000E+00 0. -1.
</event>
<event>
 7    1  0.2110035E-010  0.4778732E+02  0.7816164E-02  0.1312668E+00
        -11   -1    0    0    0    0  0.00000000000E+00  0.00000000000E+00  0.45593999997E+02  0.45594000000E+02  0.51100000000E-03 0. -1.
         11   -1    0    0    0    0 -0.00000000000E+00 -0.00000000000E+00 -0.45593999997E+02  0.45594000000E+02  0.51100000000E-03 0.  1.
    9900012    2    1    2    0    0  0.38213359716E+02  0.22556867102E+01  0.20451650595E+02  0.47787320335E+02  0.20000224732E+02 0.  0.
        -12    1    1    2    0    0 -0.38213359716E+02 -0.22556867102E+01 -0.20451650595E+02  0.43400679665E+02  0.00000000000E+00 0.  1.
         11    1    3    3    0    0  0.36478384668E+02  0.38788227994E+01  0.16057736681E+02  0.40044584177E+02  0.51100000000E-03 0. -1.
        -11    1    3    3    0    0  0.36818114320E+01 -0.18317649469E+01  0.17904608984E+01  0.44851810143E+01  0.51100000000E-03 0.  1.
        -12    1    3    3    0    0 -0.19468363838E+01  0.20862885768E+00  0.26034530164E+01  0.32575551437E+01  0.00000000000E+00 0.  1.
</event>
<event>
 7    1  0.2110035E-010  0.4778727E+02  0.7816164E-02  0.1312668E+00
        -11   -1    0    0    0    0  0.00000000000E+00  0.00000000000E+00  0.45593999997E+02  0.45594000000E+02  0.51100000000E-03 0.  1.
         11   -1    0    0    0    0 -0.00000000000E+00 -0.00000000000E+00 -0.45593999997E+02  0.45594000000E+02  0.51100000000E-03 0. -1.
    9900012    2    1    2    0    0  0.41274816547E+02 -0.10791716759E+02 -0.79719145520E+01  0.47787273587E+02  0.20000011592E+02 0.  0.
        -12    1    1    2    0    0 -0.41274816547E+02  0.10791716759E+02  0.79719145520E+01  0.43400726413E+02  0.00000000000E+00 0.  1.
         11    1    3    3    0    0  0.39269850062E+02 -0.78179361908E+01 -0.75193108457E+01  0.40740413424E+02  0.51100000000E-03 0. -1.
        -11    1    3    3    0    0  0.17088662428E+01 -0.17638666289E+01 -0.31979411522E+01  0.40321554030E+01  0.51100000000E-03 0.  1.
         12    1    3    3    0    0  0.29610024228E+00 -0.12099139393E+01  0.27453374459E+01  0.30147047593E+01  0.00000000000E+00 0. -1.
</event>
<event>
 7    1  0.2110035E-010  0.4778727E+02  0.7816164E-02  0.1312668E+00
        -11   -1    0    0    0    0  0.00000000000E+00  0.00000000000E+00  0.45593999997E+02  0.45594000000E+02  0.51100000000E-03 0. -1.
         11   -1    0    0    0    0 -0.00000000000E+00 -0.00000000000E+00 -0.45593999997E+02  0.45594000000E+02  0.51100000000E-03 0.  1.
    9900012    2    1    2    0    0  0.10195624097E+02 -0.42086835325E+02 -0.28932262739E+01  0.47787271703E+02  0.20000003004E+02 0.  0.
        -12    1    1    2    0    0 -0.10195624097E+02  0.42086835325E+02  0.28932262739E+01  0.43400728297E+02  0.00000000000E+00 0.  1.
         11    1    3    3    0    0  0.29239733845E+01 -0.22577865213E+02  0.58826810502E+01  0.23514156471E+02  0.51100000000E-03 0. -1.
        -11    1    3    3    0    0 -0.12136259087E+01 -0.80798002332E+01 -0.48722731578E+01  0.95128915499E+01  0.51100000000E-03 0.  1.
        -12    1    3    3    0    0  0.84852766214E+01 -0.11429169879E+02 -0.39036341664E+01  0.14760223683E+02  0.00000000000E+00 0.  1.
</event>
<event>
 7    1  0.2110035E-010  0.4778727E+02  0.7816164E-02  0.1312668E+00
        -11   -1    0    0    0    0  0.00000000000E+00  0.00000000000E+00  0.45593999997E+02  0.45594000000E+02  0.51100000000E-03 0.  1.
         11   -1    0    0    0    0 -0.00000000000E+00 -0.00000000000E+00 -0.45593999997E+02  0.45594000000E+02  0.51100000000E-03 0. -1.
    9900012    2    1    2    0    0 -0.93882024132E+01 -0.21656778859E+02 -0.36420717596E+02  0.47787273217E+02  0.20000009904E+02 0.  0.
        -12    1    1    2    0    0  0.93882024132E+01  0.21656778859E+02  0.36420717596E+02  0.43400726783E+02  0.00000000000E+00 0.  1.
         11    1    3    3    0    0 -0.10027495525E+02 -0.30498589005E+01 -0.14564656461E+02  0.17943843621E+02  0.51100000000E-03 0. -1.
        -11    1    3    3    0    0 -0.29308704828E+01 -0.14617147678E+02 -0.17053899490E+02  0.22651412674E+02  0.51100000000E-03 0.  1.
        -12    1    3    3    0    0  0.35701635943E+01 -0.39897722802E+01 -0.48021616453E+01  0.71920169219E+01  0.00000000000E+00 0.  1.
</event>
<event>
 7    1  0.2110035E-010  0.4778727E+02  0.7816164E-02  0.1312668E+00
        -11   -1    0    0    0    0  0.00000000000E+00  0.00000000000E+00  0.45593999997E+02  0.45594000000E+02  0.51100000000E-03 0.  1.
         11   -1    0    0    0    0 -0.00000000000E+00 -0.00000000000E+00 -0.45593999997E+02  0.45594000000E+02  0.51100000000E-03 0. -1.
    9900012    2    1    2    0    0  0.19616440688E+01  0.30697865000E+02 -0.30617253280E+02  0.47787272340E+02  0.20000005907E+02 0.  0.
        -12    1    1    2    0    0 -0.19616440688E+01 -0.30697865000E+02  0.30617253280E+02  0.43400727660E+02  0.00000000000E+00 0.  1.
         11    1    3    3    0    0 -0.10589017930E+01  0.80697584892E+01 -0.14962001192E+02  0.17032432445E+02  0.51100000000E-03 0. -1.
        -11    1    3    3    0    0  0.79247796971E+01  0.12306313861E+02 -0.11429311631E+02  0.18570855089E+02  0.51100000000E-03 0.  1.
        -12    1    3    3    0    0 -0.49042338352E+01  0.10321792650E+02 -0.42259404568E+01  0.12183984806E+02  0.00000000000E+00 0.  1.
</event>
<event>
 7    1  0.2110035E-010  0.4778727E+02  0.7816164E-02  0.1312668E+00
        -11   -1    0    0    0    0  0.00000000000E+00  0.00000000000E+00  0.45593999997E+02  0.45594000000E+02  0.51100000000E-03 0.  1.
         11   -1    0    0    0    0 -0.00000000000E+00 -0.00000000000E+00 -0.45593999997E+02  0.45594000000E+02  0.51100000000E-03 0. -1.
    9900012    2    1    2    0    0 -0.14128386218E+02  0.19524838822E+02 -0.36094221309E+02  0.47787269130E+02  0.19999991272E+02 0.  0.
        -12    1    1    2    0    0  0.14128386218E+02 -0.19524838822E+02  0.36094221309E+02  0.43400730870E+02  0.00000000000E+00 0.  1.
         11    1    3    3    0    0 -0.31472041158E+01  0.18382892167E+02 -0.19490610133E+02  0.26976276647E+02  0.51100000000E-03 0. -1.
        -11    1    3    3    0    0 -0.51472255959E+01  0.35299221675E+01 -0.80990766708E+01  0.10224936431E+02  0.51100000000E-03 0.  1.
        -12    1    3    3    0    0 -0.58339565061E+01 -0.23879755125E+01 -0.85045345059E+01  0.10586056051E+02  0.00000000000E+00 0.  1.
</event>
<event>
 7    1  0.2110035E-010  0.4778727E+02  0.7816164E-02  0.1312668E+00
        -11   -1    0    0    0    0  0.00000000000E+00  0.00000000000E+00  0.45593999997E+02  0.45594000000E+02  0.51100000000E-03 0. -1.
         11   -1    0    0    0    0 -0.00000000000E+00 -0.00000000000E+00 -0.45593999997E+02  0.45594000000E+02  0.51100000000E-03 0.  1.
    9900012    2    1    2    0    0  0.20134954212E+02  0.29773728565E+02  0.24325552314E+02  0.47787265108E+02  0.19999972933E+02 0.  0.
        -12    1    1    2    0    0 -0.20134954212E+02 -0.29773728565E+02 -0.24325552314E+02  0.43400734892E+02  0.00000000000E+00 0.  1.
         11    1    3    3    0    0  0.55380945042E+01  0.11964912761E+02  0.52378447048E+01  0.14186777137E+02  0.51100000000E-03 0. -1.
        -11    1    3    3    0    0  0.10969221999E+02  0.15276720455E+02  0.59311413253E+01  0.19720052150E+02  0.51100000000E-03 0.  1.
         12    1    3    3    0    0  0.36276377087E+01  0.25320953498E+01  0.13156566284E+02  0.13880435821E+02  0.00000000000E+00 0. -1.
</event>
<event>
 7    1  0.2110035E-010  0.4778727E+02  0.7816164E-02  0.1312668E+00
        -11   -1    0    0    0    0  0.00000000000E+00  0.00000000000E+00  0.45593999997E+02  0.45594000000E+02  0.51100000000E-03 0.  1.
         11   -1    0    0    0    0 -0.00000000000E+00 -0.00000000000E+00 -0.45593999997E+02  0.45594000000E+02  0.51100000000E-03 0. -1.
    9900012    2    1    2    0    0 -0.46226474730E+01 -0.68954098536E+01 -0.42599386525E+02  0.47787270985E+02  0.19999999730E+02 0.  0.
        -12    1    1    2    0    0  0.46226474730E+01  0.68954098536E+01  0.42599386525E+02  0.43400729015E+02  0.00000000000E+00 0.  1.
         11    1    3    3    0    0 -0.12042859288E+02 -0.57015919598E+01 -0.21027420621E+02  0.24893594135E+02  0.51100000000E-03 0. -1.
        -11    1    3    3    0    0  0.23691824821E+01 -0.36190328267E+00 -0.91405075415E+01  0.94494908856E+01  0.51100000000E-03 0.  1.
         12    1    3    3    0    0  0.50510293328E+01 -0.83191461111E+00 -0.12431458362E+02  0.13444185965E+02  0.00000000000E+00 0. -1.
</event>
<event>
 7    1  0.2110035E-010  0.4778727E+02  0.7816164E-02  0.1312668E+00
        -11   -1    0    0    0    0  0.00000000000E+00  0.00000000000E+00  0.45593999997E+02  0.45594000000E+02  0.51100000000E-03 0.  1.
         11   -1    0    0    0    0 -0.00000000000E+00 -0.00000000000E+00 -0.45593999997E+02  0.45594000000E+02  0.51100000000E-03 0. -1.
    9900012    2    1    2    0    0  0.26769296482E+01  0.36173525492E+02 -0.23831360495E+02  0.47787266805E+02  0.19999980668E+02 0.  0.
        -12    1    1    2    0    0 -0.26769296482E+01 -0.36173525492E+02  0.23831360495E+02  0.43400733195E+02  0.00000000000E+00 0.  1.
         11    1    3    3    0    0  0.44714947074E+01  0.27244067866E+02 -0.17745833845E+02  0.32819934764E+02  0.51100000000E-03 0. -1.
        -11    1    3    3    0    0 -0.45786057682E+01  0.95133764606E+01 -0.34988408066E+01  0.11122492963E+02  0.51100000000E-03 0.  1.
         12    1    3    3    0    0  0.27840407091E+01 -0.58391883492E+00 -0.25866858437E+01  0.38448390772E+01  0.00000000000E+00 0. -1.
</event>
<event>
 7    1  0.2110035E-010  0.4778727E+02  0.7816164E-02  0.1312668E+00
        -11   -1    0    0    0    0  0.00000000000E+00  0.00000000000E+00  0.45593999997E+02  0.45594000000E+02  0.51100000000E-03 0.  1.
         11   -1    0    0    0    0 -0.00000000000E+00 -0.00000000000E+00 -0.45593999997E+02  0.45594000000E+02  0.51100000000E-03 0. -1.
    9900012    2    1    2    0    0  0.21482648949E+02 -0.15410451498E+02 -0.34418555587E+02  0.47787272011E+02  0.20000004409E+02 0.  0.
        -12    1    1    2    0    0 -0.21482648949E+02  0.15410451498E+02  0.34418555587E+02  0.43400727989E+02  0.00000000000E+00 0.  1.
         11    1    3    3    0    0  0.55012738460E+01 -0.53896008563E+01 -0.12738345282E+02  0.14885471175E+02  0.51100000000E-03 0. -1.
        -11    1    3    3    0    0  0.13094687852E+02 -0.74538857527E+01 -0.51456110504E+01  0.15921952647E+02  0.51100000000E-03 0.  1.
        -12    1    3    3    0    0  0.28866872515E+01 -0.25669648891E+01 -0.16534599254E+02  0.16979848189E+02  0.00000000000E+00 0.  1.
</event>
<event>
 7    1  0.2110035E-010  0.4778727E+02  0.7816164E-02  0.1312668E+00
        -11   -1    0    0    0    0  0.00000000000E+00  0.00000000000E+00  0.45593999997E+02  0.45594000000E+02  0.51100000000E-03 0. -1.
         11   -1    0    0    0    0 -0.00000000000E+00 -0.00000000000E+00 -0.45593999997E+02  0.45594000000E+02  0.51100000000E-03 0.  1.
    9900012    2    1    2    0    0 -0.14482448173E+02 -0.35063685553E+02  0.21081270910E+02  0.47787270366E+02  0.19999996906E+02 0.  0.
        -12    1    1    2    0    0  0.14482448173E+02  0.35063685553E+02 -0.21081270910E+02  0.43400729634E+02  0.00000000000E+00 0.  1.
         11    1    3    3    0    0 -0.24515302147E+01 -0.10705775038E+02  0.92716518811E+01  0.14373139825E+02  0.51100000000E-03 0. -1.
        -11    1    3    3    0    0 -0.11073321874E+02 -0.54825806681E+01  0.44970599086E+01  0.13149170932E+02  0.51100000000E-03 0.  1.
         12    1    3    3    0    0 -0.95759608408E+00 -0.18875329846E+02  0.73125591200E+01  0.20264959609E+02  0.00000000000E+00 0. -1.
</event>
<event>
 7    1  0.2110035E-010  0.4778727E+02  0.7816164E-02  0.1312668E+00
        -11   -1    0    0    0    0  0.00000000000E+00  0.00000000000E+00  0.45593999997E+02  0.45594000000E+02  0.51100000000E-03 0. -1.
         11   -1    0    0    0    0 -0.00000000000E+00 -0.00000000000E+00 -0.45593999997E+02  0.45594000000E+02  0.51100000000E-03 0.  1.
    9900012    2    1    2    0    0  0.10436100323E+02 -0.11739324039E+02  0.40458614839E+02  0.47787269205E+02  0.19999991612E+02 0.  0.
        -12    1    1    2    0    0 -0.10436100323E+02  0.11739324039E+02 -0.40458614839E+02  0.43400730795E+02  0.00000000000E+00 0.  1.
         11    1    3    3    0    0  0.62677919246E+01 -0.10106460067E+02  0.40794444842E+02  0.42492499114E+02  0.51100000000E-03 0. -1.
        -11    1    3    3    0    0  0.27548996681E+01 -0.15040416851E+01  0.10514031530E+01  0.33101453780E+01  0.51100000000E-03 0.  1.
         12    1    3    3    0    0  0.14134087303E+01 -0.12882228690E+00 -0.13872331562E+01  0.19846247127E+01  0.00000000000E+00 0. -1.
</event>
<event>
 7    1  0.2110035E-010  0.4778727E+02  0.7816164E-02  0.1312668E+00
        -11   -1    0    0    0    0  0.00000000000E+00  0.00000000000E+00  0.45593999997E+02  0.45594000000E+02  0.51100000000E-03 0. -1.
         11   -1    0    0    0    0 -0.00000000000E+00 -0.00000000000E+00 -0.45593999997E+02  0.45594000000E+02  0.51100000000E-03 0.  1.
    9900012    2    1    2    0    0 -0.29734520202E+02 -0.17913455884E+01  0.31563782995E+02  0.47787274112E+02  0.20000013985E+02 0.  0.
        -12    1    1    2    0    0  0.29734520202E+02  0.17913455884E+01 -0.31563782995E+02  0.43400725888E+02  0.00000000000E+00 0.  1.
         11    1    3    3    0    0 -0.11537294040E+02 -0.21915774427E+01  0.94585676488E+01  0.15079014148E+02  0.51100000000E-03 0. -1.
        -11    1    3    3    0    0 -0.79806209191E+01  0.71278876509E+01  0.15417049589E+02  0.18766526341E+02  0.51100000000E-03 0.  1.
         12    1    3    3    0    0 -0.10216605243E+02 -0.67276557966E+01  0.66881657575E+01  0.13941733623E+02  0.00000000000E+00 0. -1.
</event>
<event>
 7    1  0.2110035E-010  0.4778728E+02  0.7816164E-02  0.1312668E+00
        -11   -1    0    0    0    0  0.00000000000E+00  0.00000000000E+00  0.45593999997E+02  0.45594000000E+02  0.51100000000E-03 0.  1.
         11   -1    0    0    0    0 -0.00000000000E+00 -0.00000000000E+00 -0.45593999997E+02  0.45594000000E+02  0.51100000000E-03 0. -1.
    9900012    2    1    2    0    0  0.33326557588E+02 -0.20354738225E+01 -0.27727606788E+02  0.47787276820E+02  0.20000026332E+02 0.  0.
        -12    1    1    2    0    0 -0.33326557588E+02  0.20354738225E+01  0.27727606788E+02  0.43400723180E+02  0.00000000000E+00 0.  1.
         11    1    3    3    0    0  0.30437897977E+01 -0.53356647558E+01 -0.21861039944E+01  0.65202013507E+01  0.51100000000E-03 0. -1.
        -11    1    3    3    0    0  0.23926032163E+02 -0.20633055605E+01 -0.17664647136E+02  0.29811943976E+02  0.51100000000E-03 0.  1.
         12    1    3    3    0    0  0.63567356273E+01  0.53634964937E+01 -0.78768556576E+01  0.11455131493E+02  0.00000000000E+00 0. -1.
</event>
<event>
 7    1  0.2110035E-010  0.4778727E+02  0.7816164E-02  0.1312668E+00
        -11   -1    0    0    0    0  0.00000000000E+00  0.00000000000E+00  0.45593999997E+02  0.45594000000E+02  0.51100000000E-03 0.  1.
         11   -1    0    0    0    0 -0.00000000000E+00 -0.00000000000E+00 -0.45593999997E+02  0.45594000000E+02  0.51100000000E-03 0. -1.
    9900012    2    1    2    0    0  0.19944473160E+02  0.24324259169E+02 -0.29902706521E+02  0.47787269003E+02  0.19999990694E+02 0.  0.
        -12    1    1    2    0    0 -0.19944473160E+02 -0.24324259169E+02  0.29902706521E+02  0.43400730997E+02  0.00000000000E+00 0.  1.
         11    1    3    3    0    0  0.45833721104E+01  0.98127663952E+01 -0.13032204575E+02  0.16945088981E+02  0.51100000000E-03 0. -1.
        -11    1    3    3    0    0  0.15332708206E+01  0.36534485341E+01  0.24981869790E+01  0.46839666997E+01  0.51100000000E-03 0.  1.
        -12    1    3    3    0    0  0.13827830229E+02  0.10858044240E+02 -0.19368688924E+02  0.26158213322E+02  0.00000000000E+00 0.  1.
</event>
<event>
 7    1  0.2110035E-010  0.4778727E+02  0.7816164E-02  0.1312668E+00
        -11   -1    0    0    0    0  0.00000000000E+00  0.00000000000E+00  0.45593999997E+02  0.45594000000E+02  0.51100000000E-03 0.  1.
         11   -1    0    0    0    0 -0.00000000000E+00 -0.00000000000E+00 -0.45593999997E+02  0.45594000000E+02  0.51100000000E-03 0. -1.
    9900012    2    1    2    0    0  0.10547810819E+02 -0.33088572960E+02 -0.26029089292E+02  0.47787268866E+02  0.19999990068E+02 0.  0.
        -12    1    1    2    0    0 -0.10547810819E+02  0.33088572960E+02  0.26029089292E+02  0.43400731134E+02  0.00000000000E+00 0.  1.
         11    1    3    3    0    0 -0.53581739866E+00 -0.22049757599E+02 -0.15497005755E+02  0.26956188493E+02  0.51100000000E-03 0. -1.
        -11    1    3    3    0    0  0.80951019973E+01 -0.12225034098E+02 -0.77785148125E+01  0.16597813953E+02  0.51100000000E-03 0.  1.
        -12    1    3    3    0    0  0.29885262204E+01  0.11862187376E+01 -0.27535687243E+01  0.42332664200E+01  0.00000000000E+00 0.  1.
</event>
<event>
 7    1  0.2110035E-010  0.4778727E+02  0.7816164E-02  0.1312668E+00
        -11   -1    0    0    0    0  0.00000000000E+00  0.00000000000E+00  0.45593999997E+02  0.45594000000E+02  0.51100000000E-03 0. -1.
         11   -1    0    0    0    0 -0.00000000000E+00 -0.00000000000E+00 -0.45593999997E+02  0.45594000000E+02  0.51100000000E-03 0.  1.
    9900012    2    1    2    0    0 -0.25037353160E+02 -0.31908197676E+02 -0.15447375533E+02  0.47787267943E+02  0.19999985860E+02 0.  0.
        -12    1    1    2    0    0  0.25037353160E+02  0.31908197676E+02  0.15447375533E+02  0.43400732057E+02  0.00000000000E+00 0.  1.
         11    1    3    3    0    0 -0.44266765319E+01 -0.25859431262E+01 -0.79514338225E+01  0.94608597424E+01  0.51100000000E-03 0. -1.
        -11    1    3    3    0    0 -0.18069911520E+02 -0.16379976927E+02 -0.44902226846E+01  0.24798940430E+02  0.51100000000E-03 0.  1.
         12    1    3    3    0    0 -0.25407651079E+01 -0.12942277624E+02 -0.30057190263E+01  0.13527467771E+02  0.00000000000E+00 0. -1.
</event>
<event>
 7    1  0.2110035E-010  0.4778727E+02  0.7816164E-02  0.1312668E+00
        -11   -1    0    0    0    0  0.00000000000E+00  0.00000000000E+00  0.45593999997E+02  0.45594000000E+02  0.51100000000E-03 0. -1.
         11   -1    0    0    0    0 -0.00000000000E+00 -0.00000000000E+00 -0.45593999997E+02  0.45594000000E+02  0.51100000000E-03 0.  1.
    9900012    2    1    2    0    0 -0.26332076248E+02 -0.94451401905E+01  0.33181836282E+02  0.47787272220E+02  0.20000005360E+02 0.  0.
        -12    1    1    2    0    0  0.26332076248E+02  0.94451401905E+01 -0.33181836282E+02  0.43400727780E+02  0.00000000000E+00 0.  1.
         11    1    3    3    0    0 -0.49400504799E+01  0.24025244754E+01 -0.61397656734E+00  0.55274940149E+01  0.51100000000E-03 0.  1.
        -11    1    3    3    0    0 -0.45266595104E+01 -0.51018874111E+01  0.12746108503E+02  0.14456250680E+02  0.51100000000E-03 0. -1.
         12    1    3    3    0    0 -0.16865366258E+02 -0.67457772548E+01  0.21049704346E+02  0.27803527525E+02  0.00000000000E+00 0. -1.
</event>
<event>
 7    1  0.2110035E-010  0.4778727E+02  0.7816164E-02  0.1312668E+00
        -11   -1    0    0    0    0  0.00000000000E+00  0.00000000000E+00  0.45593999997E+02  0.45594000000E+02  0.51100000000E-03 0. -1.
         11   -1    0    0    0    0 -0.00000000000E+00 -0.00000000000E+00 -0.45593999997E+02  0.45594000000E+02  0.51100000000E-03 0.  1.
    9900012    2    1    2    0    0  0.33343079399E+02  0.15744298387E+02  0.22890590799E+02  0.47787273939E+02  0.20000013198E+02 0.  0.
        -12    1    1    2    0    0 -0.33343079399E+02 -0.15744298387E+02 -0.22890590799E+02  0.43400726061E+02  0.00000000000E+00 0.  1.
         11    1    3    3    0    0  0.89865851532E+01  0.18952448778E+01  0.90629478444E+01  0.12903010879E+02  0.51100000000E-03 0. -1.
        -11    1    3    3    0    0  0.23036425643E+02  0.12698668904E+02  0.61560311144E+01  0.27015362623E+02  0.51100000000E-03 0.  1.
         12    1    3    3    0    0  0.13200686031E+01  0.11503846055E+01  0.76716118400E+01  0.78689004366E+01  0.00000000000E+00 0. -1.
</event>
<event>
 7    1  0.2110035E-010  0.4778727E+02  0.7816164E-02  0.1312668E+00
        -11   -1    0    0    0    0  0.00000000000E+00  0.00000000000E+00  0.45593999997E+02  0.45594000000E+02  0.51100000000E-03 0.  1.
         11   -1    0    0    0    0 -0.00000000000E+00 -0.00000000000E+00 -0.45593999997E+02  0.45594000000E+02  0.51100000000E-03 0. -1.
    9900012    2    1    2    0    0  0.12429398574E+01  0.19369143810E+02 -0.38818999425E+02  0.47787270193E+02  0.19999996119E+02 0.  0.
        -12    1    1    2    0    0 -0.12429398574E+01 -0.19369143810E+02  0.38818999425E+02  0.43400729807E+02  0.00000000000E+00 0.  1.
         11    1    3    3    0    0 -0.14169239895E+01  0.60959388797E+01 -0.22916828223E+02  0.23756034191E+02  0.51100000000E-03 0. -1.
        -11    1    3    3    0    0  0.53648029186E+01  0.10123992336E+01 -0.46505672581E+01  0.71717388859E+01  0.51100000000E-03 0.  1.
        -12    1    3    3    0    0 -0.27049390717E+01  0.12260805697E+02 -0.11251603944E+02  0.16859497117E+02  0.00000000000E+00 0.  1.
</event>
<event>
 7    1  0.2110035E-010  0.4778727E+02  0.7816164E-02  0.1312668E+00
        -11   -1    0    0    0    0  0.00000000000E+00  0.00000000000E+00  0.45593999997E+02  0.45594000000E+02  0.51100000000E-03 0.  1.
         11   -1    0    0    0    0 -0.00000000000E+00 -0.00000000000E+00 -0.45593999997E+02  0.45594000000E+02  0.51100000000E-03 0. -1.
    9900012    2    1    2    0    0 -0.12871756158E+02  0.69081022475E+01 -0.40868316340E+02  0.47787271161E+02  0.20000000533E+02 0.  0.
        -12    1    1    2    0    0  0.12871756158E+02 -0.69081022475E+01  0.40868316340E+02  0.43400728839E+02  0.00000000000E+00 0.  1.
         11    1    3    3    0    0 -0.49384305801E+00  0.79748171439E+00  0.91120284639E+00  0.13077266301E+01  0.51100000000E-03 0. -1.
        -11    1    3    3    0    0 -0.95773615907E+01 -0.28873392011E+01 -0.28433540771E+02  0.30141811886E+02  0.51100000000E-03 0.  1.
        -12    1    3    3    0    0 -0.28005515095E+01  0.89979597342E+01 -0.13345978415E+02  0.16337732646E+02  0.00000000000E+00 0.  1.
</event>
<event>
 7    1  0.2110035E-010  0.4778727E+02  0.7816164E-02  0.1312668E+00
        -11   -1    0    0    0    0  0.00000000000E+00  0.00000000000E+00  0.45593999997E+02  0.45594000000E+02  0.51100000000E-03 0.  1.
         11   -1    0    0    0    0 -0.00000000000E+00 -0.00000000000E+00 -0.45593999997E+02  0.45594000000E+02  0.51100000000E-03 0. -1.
    9900012    2    1    2    0    0 -0.43103568186E+02 -0.10417025808E+01 -0.49619146596E+01  0.47787270378E+02  0.19999996963E+02 0.  0.
        -12    1    1    2    0    0  0.43103568186E+02  0.10417025808E+01  0.49619146596E+01  0.43400729622E+02  0.00000000000E+00 0.  1.
         11    1    3    3    0    0 -0.38511543055E+01 -0.15158398225E+01 -0.11631472893E+01  0.42990780093E+01  0.51100000000E-03 0. -1.
        -11    1    3    3    0    0 -0.13650230454E+02 -0.74899160263E+01 -0.57669593217E+01  0.16603778293E+02  0.51100000000E-03 0.  1.
         12    1    3    3    0    0 -0.25602183426E+02  0.79640532680E+01  0.19681919514E+01  0.26884414075E+02  0.00000000000E+00 0. -1.
</event>
<event>
 7    1  0.2110035E-010  0.4778728E+02  0.7816164E-02  0.1312668E+00
        -11   -1    0    0    0    0  0.00000000000E+00  0.00000000000E+00  0.45593999997E+02  0.45594000000E+02  0.51100000000E-03 0.  1.
         11   -1    0    0    0    0 -0.00000000000E+00 -0.00000000000E+00 -0.45593999997E+02  0.45594000000E+02  0.51100000000E-03 0. -1.
    9900012    2    1    2    0    0 -0.24741649525E+02 -0.35625639321E+02  0.15122565665E+01  0.47787282055E+02  0.20000050201E+02 0.  0.
        -12    1    1    2    0    0  0.24741649525E+02  0.35625639321E+02 -0.15122565665E+01  0.43400717945E+02  0.00000000000E+00 0.  1.
         11    1    3    3    0    0 -0.22011357551E+01 -0.14258787420E+01 -0.34019538874E+01  0.42955115310E+01  0.51100000000E-03 0. -1.
        -11    1    3    3    0    0 -0.18161805335E+01  0.11817187495E+01 -0.17045718342E+00  0.21734826536E+01  0.51100000000E-03 0.  1.
         12    1    3    3    0    0 -0.20724333236E+02 -0.35381479328E+02  0.50846676374E+01  0.41318287870E+02  0.00000000000E+00 0. -1.
</event>
<event>
 7    1  0.2110035E-010  0.4778728E+02  0.7816164E-02  0.1312668E+00
        -11   -1    0    0    0    0  0.00000000000E+00  0.00000000000E+00  0.45593999997E+02  0.45594000000E+02  0.51100000000E-03 0.  1.
         11   -1    0    0    0    0 -0.00000000000E+00 -0.00000000000E+00 -0.45593999997E+02  0.45594000000E+02  0.51100000000E-03 0. -1.
    9900012    2    1    2    0    0 -0.11947573372E+02  0.40616022822E+02 -0.95507617758E+01  0.47787275699E+02  0.20000021223E+02 0.  0.
        -12    1    1    2    0    0  0.11947573372E+02 -0.40616022822E+02  0.95507617758E+01  0.43400724301E+02  0.00000000000E+00 0.  1.
         11    1    3    3    0    0  0.55790104014E+00  0.26718403176E+00  0.19392337021E+01  0.20355020241E+01  0.51100000000E-03 0. -1.
        -11    1    3    3    0    0 -0.10386772639E+02  0.16387690401E+02 -0.95332420065E+01  0.21617681327E+02  0.51100000000E-03 0.  1.
         12    1    3    3    0    0 -0.21187017732E+01  0.23961148389E+02 -0.19567534714E+01  0.24134092348E+02  0.00000000000E+00 0. -1.
</event>
<event>
 7    1  0.2110035E-010  0.4778728E+02  0.7816164E-02  0.1312668E+00
        -11   -1    0    0    0    0  0.00000000000E+00  0.00000000000E+00  0.45593999997E+02  0.45594000000E+02  0.51100000000E-03 0. -1.
         11   -1    0    0    0    0 -0.00000000000E+00 -0.00000000000E+00 -0.45593999997E+02  0.45594000000E+02  0.51100000000E-03 0.  1.
    9900012    2    1    2    0    0  0.25506840263E+02 -0.50711680442E+01  0.34746320223E+02  0.47787280944E+02  0.20000045135E+02 0.  0.
        -12    1    1    2    0    0 -0.25506840263E+02  0.50711680442E+01 -0.34746320223E+02  0.43400719056E+02  0.00000000000E+00 0.  1.
         11    1    3    3    0    0  0.91785055404E+01 -0.34320751488E+01  0.27168601021E+02  0.28881776010E+02  0.51100000000E-03 0. -1.
        -11    1    3    3    0    0  0.29119839162E+01  0.99909436787E+00  0.34475494471E+01  0.46220598585E+01  0.51100000000E-03 0.  1.
        -12    1    3    3    0    0  0.13416350807E+02 -0.26381872633E+01  0.41301697546E+01  0.14283445075E+02  0.00000000000E+00 0.  1.
</event>
<event>
 7    1  0.2110035E-010  0.4778727E+02  0.7816164E-02  0.1312668E+00
        -11   -1    0    0    0    0  0.00000000000E+00  0.00000000000E+00  0.45593999997E+02  0.45594000000E+02  0.51100000000E-03 0.  1.
         11   -1    0    0    0    0 -0.00000000000E+00 -0.00000000000E+00 -0.45593999997E+02  0.45594000000E+02  0.51100000000E-03 0. -1.
    9900012    2    1    2    0    0  0.39576783695E+02 -0.14621283262E+02 -0.10174451303E+02  0.47787271997E+02  0.20000004344E+02 0.  0.
        -12    1    1    2    0    0 -0.39576783695E+02  0.14621283262E+02  0.10174451303E+02  0.43400728003E+02  0.00000000000E+00 0.  1.
         11    1    3    3    0    0  0.60639792079E+01  0.60451165466E+00 -0.38694332817E+01  0.72187112671E+01  0.51100000000E-03 0. -1.
        -11    1    3    3    0    0  0.13787796113E+02 -0.11232866219E+02 -0.95457641549E+01  0.20184207161E+02  0.51100000000E-03 0.  1.
         12    1    3    3    0    0  0.19725008374E+02 -0.39929286975E+01  0.32407461337E+01  0.20384353570E+02  0.00000000000E+00 0. -1.
</event>
<event>
 7    1  0.2110035E-010  0.4778726E+02  0.7816164E-02  0.1312668E+00
        -11   -1    0    0    0    0  0.00000000000E+00  0.00000000000E+00  0.45593999997E+02  0.45594000000E+02  0.51100000000E-03 0.  1.
         11   -1    0    0    0    0 -0.00000000000E+00 -0.00000000000E+00 -0.45593999997E+02  0.45594000000E+02  0.51100000000E-03 0. -1.
    9900012    2    1    2    0    0  0.10801514120E+02 -0.38390288907E+02 -0.17121242430E+02  0.47787263462E+02  0.19999965429E+02 0.  0.
        -12    1    1    2    0    0 -0.10801514120E+02  0.38390288907E+02  0.17121242430E+02  0.43400736538E+02  0.00000000000E+00 0.  1.
         11    1    3    3    0    0  0.49864229938E+01 -0.28369950777E+02 -0.64372614139E+01  0.29515366441E+02  0.51100000000E-03 0. -1.
        -11    1    3    3    0    0  0.24005201080E+01 -0.20875137364E+00  0.10250317826E+01  0.26185424078E+01  0.51100000000E-03 0.  1.
        -12    1    3    3    0    0  0.34145710187E+01 -0.98115867564E+01 -0.11709012799E+02  0.15653354613E+02  0.00000000000E+00 0.  1.
</event>
<event>
 7    1  0.2110035E-010  0.4778727E+02  0.7816164E-02  0.1312668E+00
        -11   -1    0    0    0    0  0.00000000000E+00  0.00000000000E+00  0.45593999997E+02  0.45594000000E+02  0.51100000000E-03 0.  1.
         11   -1    0    0    0    0 -0.00000000000E+00 -0.00000000000E+00 -0.45593999997E+02  0.45594000000E+02  0.51100000000E-03 0. -1.
    9900012    2    1    2    0    0  0.55224631508E+01  0.26573958976E+02 -0.33866656572E+02  0.47787270487E+02  0.19999997457E+02 0.  0.
        -12    1    1    2    0    0 -0.55224631508E+01 -0.26573958976E+02  0.33866656572E+02  0.43400729513E+02  0.00000000000E+00 0.  1.
         11    1    3    3    0    0 -0.19110792586E+01  0.31198432660E+01 -0.16939808979E+02  0.17330400297E+02  0.51100000000E-03 0. -1.
        -11    1    3    3    0    0  0.17923816305E+01  0.49681839038E+01 -0.91898116977E+00  0.53609709813E+01  0.51100000000E-03 0.  1.
         12    1    3    3    0    0  0.56411607790E+01  0.18485931806E+02 -0.16007866424E+02  0.25095899209E+02  0.00000000000E+00 0. -1.
</event>
<event>
 7    1  0.2110035E-010  0.4778727E+02  0.7816164E-02  0.1312668E+00
        -11   -1    0    0    0    0  0.00000000000E+00  0.00000000000E+00  0.45593999997E+02  0.45594000000E+02  0.51100000000E-03 0. -1.
         11   -1    0    0    0    0 -0.00000000000E+00 -0.00000000000E+00 -0.45593999997E+02  0.45594000000E+02  0.51100000000E-03 0.  1.
    9900012    2    1    2    0    0  0.17547093802E+02 -0.20213938503E+02  0.34163128668E+02  0.47787272228E+02  0.20000005398E+02 0.  0.
        -12    1    1    2    0    0 -0.17547093802E+02  0.20213938503E+02 -0.34163128668E+02  0.43400727772E+02  0.00000000000E+00 0.  1.
         11    1    3    3    0    0  0.15801406039E+02 -0.13463841969E+02  0.19146217849E+02  0.28240699913E+02  0.51100000000E-03 0.  1.
        -11    1    3    3    0    0  0.21778128699E+01  0.23328743118E+01  0.23945522118E+01  0.39898686704E+01  0.51100000000E-03 0. -1.
         12    1    3    3    0    0 -0.43212510694E+00 -0.90829708455E+01  0.12622358608E+02  0.15556703645E+02  0.00000000000E+00 0. -1.
</event>
<event>
 7    1  0.2110035E-010  0.4778727E+02  0.7816164E-02  0.1312668E+00
        -11   -1    0    0    0    0  0.00000000000E+00  0.00000000000E+00  0.45593999997E+02  0.45594000000E+02  0.51100000000E-03 0. -1.
         11   -1    0    0    0    0 -0.00000000000E+00 -0.00000000000E+00 -0.45593999997E+02  0.45594000000E+02  0.51100000000E-03 0.  1.
    9900012    2    1    2    0    0 -0.13721891549E+02 -0.88930817674E+01  0.40202562308E+02  0.47787271583E+02  0.20000002454E+02 0.  0.
        -12    1    1    2    0    0  0.13721891549E+02  0.88930817674E+01 -0.40202562308E+02  0.43400728417E+02  0.00000000000E+00 0.  1.
         11    1    3    3    0    0 -0.11784013887E+02 -0.12495431482E+02  0.33966380266E+02  0.38061972884E+02  0.51100000000E-03 0. -1.
        -11    1    3    3    0    0 -0.13275269888E+01  0.19424500971E+01  0.72943171160E+01  0.76643657751E+01  0.51100000000E-03 0.  1.
         12    1    3    3    0    0 -0.61035067259E+00  0.16598996173E+01 -0.10581350732E+01  0.20609329237E+01  0.00000000000E+00 0. -1.
</event>
<event>
 7    1  0.2110035E-010  0.4778727E+02  0.7816164E-02  0.1312668E+00
        -11   -1    0    0    0    0  0.00000000000E+00  0.00000000000E+00  0.45593999997E+02  0.45594000000E+02  0.51100000000E-03 0. -1.
         11   -1    0    0    0    0 -0.00000000000E+00 -0.00000000000E+00 -0.45593999997E+02  0.45594000000E+02  0.51100000000E-03 0.  1.
    9900012    2    1    2    0    0 -0.29570035994E+02  0.29184827027E+02  0.12549188509E+02  0.47787270864E+02  0.19999999177E+02 0.  0.
        -12    1    1    2    0    0  0.29570035994E+02 -0.29184827027E+02 -0.12549188509E+02  0.43400729136E+02  0.00000000000E+00 0.  1.
         11    1    3    3    0    0 -0.13058347939E+02  0.11947966028E+02  0.10876022463E+02  0.20774075382E+02  0.51100000000E-03 0. -1.
        -11    1    3    3    0    0 -0.76028658005E+00  0.92131425373E+01  0.12701525426E+01  0.93313085277E+01  0.51100000000E-03 0.  1.
        -12    1    3    3    0    0 -0.15751401475E+02  0.80237184620E+01  0.40301350415E+00  0.17681886954E+02  0.00000000000E+00 0.  1.
</event>
<event>
 7    1  0.2110035E-010  0.4778730E+02  0.7816164E-02  0.1312668E+00
        -11   -1    0    0    0    0  0.00000000000E+00  0.00000000000E+00  0.45593999997E+02  0.45594000000E+02  0.51100000000E-03 0.  1.
         11   -1    0    0    0    0 -0.00000000000E+00 -0.00000000000E+00 -0.45593999997E+02  0.45594000000E+02  0.51100000000E-03 0. -1.
    9900012    2    1    2    0    0  0.11394381821E+02  0.31975271852E+02  0.27043862220E+02  0.47787303798E+02  0.20000149335E+02 0.  0.
        -12    1    1    2    0    0 -0.11394381821E+02 -0.31975271852E+02 -0.27043862220E+02  0.43400696202E+02  0.00000000000E+00 0.  1.
         11    1    3    3    0    0  0.98473693195E+01  0.21337468487E+02  0.13853466959E+02  0.27279603937E+02  0.51100000000E-03 0. -1.
        -11    1    3    3    0    0  0.52509309144E+01  0.14152608810E+01  0.67356983880E+01  0.86570706283E+01  0.51100000000E-03 0.  1.
         12    1    3    3    0    0 -0.37039184125E+01  0.92225424840E+01  0.64546968728E+01  0.11850629232E+02  0.00000000000E+00 0. -1.
</event>
<event>
 7    1  0.2110035E-010  0.4778726E+02  0.7816164E-02  0.1312668E+00
        -11   -1    0    0    0    0  0.00000000000E+00  0.00000000000E+00  0.45593999997E+02  0.45594000000E+02  0.51100000000E-03 0.  1.
         11   -1    0    0    0    0 -0.00000000000E+00 -0.00000000000E+00 -0.45593999997E+02  0.45594000000E+02  0.51100000000E-03 0. -1.
    9900012    2    1    2    0    0  0.40767620541E+02 -0.12103910958E+02  0.86672116416E+01  0.47787261496E+02  0.19999956464E+02 0.  0.
        -12    1    1    2    0    0 -0.40767620541E+02  0.12103910958E+02 -0.86672116416E+01  0.43400738504E+02  0.00000000000E+00 0.  1.
         11    1    3    3    0    0  0.25557707116E+02 -0.77486593004E+00  0.72985099926E+01  0.26590694963E+02  0.51100000000E-03 0. -1.
        -11    1    3    3    0    0  0.60076369688E+01 -0.26885572314E+01 -0.37501095680E+01  0.75751807879E+01  0.51100000000E-03 0.  1.
        -12    1    3    3    0    0  0.92022764566E+01 -0.86404877963E+01  0.51188112171E+01  0.13621385745E+02  0.00000000000E+00 0.  1.
</event>
<event>
 7    1  0.2110035E-010  0.4778727E+02  0.7816164E-02  0.1312668E+00
        -11   -1    0    0    0    0  0.00000000000E+00  0.00000000000E+00  0.45593999997E+02  0.45594000000E+02  0.51100000000E-03 0.  1.
         11   -1    0    0    0    0 -0.00000000000E+00 -0.00000000000E+00 -0.45593999997E+02  0.45594000000E+02  0.51100000000E-03 0. -1.
    9900012    2    1    2    0    0 -0.17352005468E+02  0.32467035863E+02 -0.22987441218E+02  0.47787274600E+02  0.20000016211E+02 0.  0.
        -12    1    1    2    0    0  0.17352005468E+02 -0.32467035863E+02  0.22987441218E+02  0.43400725400E+02  0.00000000000E+00 0.  1.
         11    1    3    3    0    0 -0.14585685379E+02  0.10511242312E+02 -0.16256246408E+02  0.24238275113E+02  0.51100000000E-03 0. -1.
        -11    1    3    3    0    0 -0.66196619104E+00  0.79641963102E+01 -0.46549236478E+01  0.92485099628E+01  0.51100000000E-03 0.  1.
        -12    1    3    3    0    0 -0.21043538983E+01  0.13991597241E+02 -0.20762711620E+01  0.14300489524E+02  0.00000000000E+00 0.  1.
</event>
<event>
 7    1  0.2110035E-010  0.4778727E+02  0.7816164E-02  0.1312668E+00
        -11   -1    0    0    0    0  0.00000000000E+00  0.00000000000E+00  0.45593999997E+02  0.45594000000E+02  0.51100000000E-03 0.  1.
         11   -1    0    0    0    0 -0.00000000000E+00 -0.00000000000E+00 -0.45593999997E+02  0.45594000000E+02  0.51100000000E-03 0. -1.
    9900012    2    1    2    0    0  0.10130375121E+02 -0.20580729083E+02 -0.36843346217E+02  0.47787273392E+02  0.20000010703E+02 0.  0.
        -12    1    1    2    0    0 -0.10130375121E+02  0.20580729083E+02  0.36843346217E+02  0.43400726608E+02  0.00000000000E+00 0.  1.
         11    1    3    3    0    0 -0.19694340893E+01 -0.79450959866E+01 -0.75071438574E+01  0.11106774060E+02  0.51100000000E-03 0. -1.
        -11    1    3    3    0    0  0.68297255030E+01 -0.28227004166E+01 -0.22331434756E+02  0.23522452393E+02  0.51100000000E-03 0.  1.
         12    1    3    3    0    0  0.52700837074E+01 -0.98129326795E+01 -0.70047676035E+01  0.13158046938E+02  0.00000000000E+00 0. -1.
</event>
<event>
 7    1  0.2110035E-010  0.4778729E+02  0.7816164E-02  0.1312668E+00
        -11   -1    0    0    0    0  0.00000000000E+00  0.00000000000E+00  0.45593999997E+02  0.45594000000E+02  0.51100000000E-03 0.  1.
         11   -1    0    0    0    0 -0.00000000000E+00 -0.00000000000E+00 -0.45593999997E+02  0.45594000000E+02  0.51100000000E-03 0. -1.
    9900012    2    1    2    0    0 -0.79837113094E+01 -0.41765385036E+02 -0.86910614597E+01  0.47787290527E+02  0.20000088828E+02 0.  0.
        -12    1    1    2    0    0  0.79837113094E+01  0.41765385036E+02  0.86910614597E+01  0.43400709473E+02  0.00000000000E+00 0.  1.
         11    1    3    3    0    0 -0.13136880719E+02 -0.25498815337E+02 -0.45963540079E+01  0.29049848347E+02  0.51100000000E-03 0. -1.
        -11    1    3    3    0    0  0.12398117061E+01 -0.77045521696E+01 -0.50188145017E+01  0.92782410221E+01  0.51100000000E-03 0.  1.
        -12    1    3    3    0    0  0.39133577033E+01 -0.85620175298E+01  0.92410704998E+00  0.94592011573E+01  0.00000000000E+00 0.  1.
</event>
<event>
 7    1  0.2110035E-010  0.4778727E+02  0.7816164E-02  0.1312668E+00
        -11   -1    0    0    0    0  0.00000000000E+00  0.00000000000E+00  0.45593999997E+02  0.45594000000E+02  0.51100000000E-03 0.  1.
         11   -1    0    0    0    0 -0.00000000000E+00 -0.00000000000E+00 -0.45593999997E+02  0.45594000000E+02  0.51100000000E-03 0. -1.
    9900012    2    1    2    0    0 -0.10658751423E+02  0.41881165989E+02 -0.39977740802E+01  0.47787271388E+02  0.20000001564E+02 0.  0.
        -12    1    1    2    0    0  0.10658751423E+02 -0.41881165989E+02  0.39977740802E+01  0.43400728612E+02  0.00000000000E+00 0.  1.
         11    1    3    3    0    0 -0.67536552558E+01  0.14025304065E+02 -0.64275304094E+00  0.15579927637E+02  0.51100000000E-03 0. -1.
        -11    1    3    3    0    0  0.19333374096E+01  0.24524879490E+02  0.20327395479E+00  0.24601805383E+02  0.51100000000E-03 0.  1.
        -12    1    3    3    0    0 -0.58384335766E+01  0.33309824344E+01 -0.35582949940E+01  0.76055383683E+01  0.00000000000E+00 0.  1.
</event>
<event>
 7    1  0.2110035E-010  0.4778727E+02  0.7816164E-02  0.1312668E+00
        -11   -1    0    0    0    0  0.00000000000E+00  0.00000000000E+00  0.45593999997E+02  0.45594000000E+02  0.51100000000E-03 0. -1.
         11   -1    0    0    0    0 -0.00000000000E+00 -0.00000000000E+00 -0.45593999997E+02  0.45594000000E+02  0.51100000000E-03 0.  1.
    9900012    2    1    2    0    0  0.20514819850E+01  0.21296726006E+02  0.37760616645E+02  0.47787270901E+02  0.19999999345E+02 0.  0.
        -12    1    1    2    0    0 -0.20514819850E+01 -0.21296726006E+02 -0.37760616645E+02  0.43400729099E+02  0.00000000000E+00 0.  1.
         11    1    3    3    0    0  0.22291825292E+01  0.98136194006E+01  0.55307963325E+01  0.11483296078E+02  0.51100000000E-03 0. -1.
        -11    1    3    3    0    0 -0.52702370695E+01  0.10159244620E+02  0.22401563843E+02  0.25155828607E+02  0.51100000000E-03 0.  1.
         12    1    3    3    0    0  0.50925365253E+01  0.13238619856E+01  0.98282564697E+01  0.11148146216E+02  0.00000000000E+00 0. -1.
</event>
<event>
 7    1  0.2110035E-010  0.4778727E+02  0.7816164E-02  0.1312668E+00
        -11   -1    0    0    0    0  0.00000000000E+00  0.00000000000E+00  0.45593999997E+02  0.45594000000E+02  0.51100000000E-03 0.  1.
         11   -1    0    0    0    0 -0.00000000000E+00 -0.00000000000E+00 -0.45593999997E+02  0.45594000000E+02  0.51100000000E-03 0. -1.
    9900012    2    1    2    0    0 -0.17231847488E+02  0.97659681720E+01 -0.38617513707E+02  0.47787273426E+02  0.20000010860E+02 0.  0.
        -12    1    1    2    0    0  0.17231847488E+02 -0.97659681720E+01  0.38617513707E+02  0.43400726574E+02  0.00000000000E+00 0.  1.
         11    1    3    3    0    0 -0.23071664565E+01 -0.11340759859E+01 -0.21110509102E+02  0.21266469857E+02  0.51100000000E-03 0. -1.
        -11    1    3    3    0    0 -0.23549187819E+01  0.24241698144E+01 -0.23630425148E-01  0.33797633669E+01  0.51100000000E-03 0.  1.
         12    1    3    3    0    0 -0.12569762250E+02  0.84758743435E+01 -0.17483374180E+02  0.23141040202E+02  0.00000000000E+00 0. -1.
</event>
<event>
 7    1  0.2110035E-010  0.4778727E+02  0.7816164E-02  0.1312668E+00
        -11   -1    0    0    0    0  0.00000000000E+00  0.00000000000E+00  0.45593999997E+02  0.45594000000E+02  0.51100000000E-03 0. -1.
         11   -1    0    0    0    0 -0.00000000000E+00 -0.00000000000E+00 -0.45593999997E+02  0.45594000000E+02  0.51100000000E-03 0.  1.
    9900012    2    1    2    0    0  0.80515046424E+01 -0.20787310681E+02  0.37238208155E+02  0.47787272368E+02  0.20000006036E+02 0.  0.
        -12    1    1    2    0    0 -0.80515046424E+01  0.20787310681E+02 -0.37238208155E+02  0.43400727632E+02  0.00000000000E+00 0.  1.
         11    1    3    3    0    0  0.36113419123E+01 -0.19060113461E+00  0.18063372185E+02  0.18421822227E+02  0.51100000000E-03 0. -1.
        -11    1    3    3    0    0  0.48053710059E+01 -0.12835661646E+02  0.15738733835E+02  0.20869919583E+02  0.51100000000E-03 0.  1.
        -12    1    3    3    0    0 -0.36520827577E+00 -0.77610478997E+01  0.34361021353E+01  0.84955305585E+01  0.00000000000E+00 0.  1.
</event>
<event>
 7    1  0.2110035E-010  0.4778727E+02  0.7816164E-02  0.1312668E+00
        -11   -1    0    0    0    0  0.00000000000E+00  0.00000000000E+00  0.45593999997E+02  0.45594000000E+02  0.51100000000E-03 0. -1.
         11   -1    0    0    0    0 -0.00000000000E+00 -0.00000000000E+00 -0.45593999997E+02  0.45594000000E+02  0.51100000000E-03 0.  1.
    9900012    2    1    2    0    0 -0.62295379289E+01  0.39384299152E+02 -0.17137477067E+02  0.47787270942E+02  0.19999999534E+02 0.  0.
        -12    1    1    2    0    0  0.62295379289E+01 -0.39384299152E+02  0.17137477067E+02  0.43400729058E+02  0.00000000000E+00 0.  1.
         11    1    3    3    0    0  0.25561839833E+01  0.15285906681E+02 -0.23187484043E+01  0.15670660932E+02  0.51100000000E-03 0. -1.
        -11    1    3    3    0    0 -0.14570778949E+01  0.19307955118E+02 -0.77204355706E+01  0.20845271226E+02  0.51100000000E-03 0.  1.
        -12    1    3    3    0    0 -0.73286440174E+01  0.47904373530E+01 -0.70982930921E+01  0.11271338784E+02  0.00000000000E+00 0.  1.
</event>
<event>
 7    1  0.2110035E-010  0.4778728E+02  0.7816164E-02  0.1312668E+00
        -11   -1    0    0    0    0  0.00000000000E+00  0.00000000000E+00  0.45593999997E+02  0.45594000000E+02  0.51100000000E-03 0.  1.
         11   -1    0    0    0    0 -0.00000000000E+00 -0.00000000000E+00 -0.45593999997E+02  0.45594000000E+02  0.51100000000E-03 0. -1.
    9900012    2    1    2    0    0 -0.71911931544E+01  0.21951995417E+01 -0.42744481800E+02  0.47787275532E+02  0.20000020460E+02 0.  0.
        -12    1    1    2    0    0  0.71911931544E+01 -0.21951995417E+01  0.42744481800E+02  0.43400724468E+02  0.00000000000E+00 0.  1.
         11    1    3    3    0    0 -0.47820714666E+01 -0.16596398017E+01 -0.49655778875E+01  0.70908092487E+01  0.51100000000E-03 0. -1.
        -11    1    3    3    0    0  0.60974202124E+01  0.12916760395E+01 -0.14712592615E+02  0.15978339775E+02  0.51100000000E-03 0.  1.
        -12    1    3    3    0    0 -0.85065419002E+01  0.25631633039E+01 -0.23066311297E+02  0.24718126508E+02  0.00000000000E+00 0.  1.
</event>
<event>
 7    1  0.3736945E-010  0.4778730E+02  0.7816164E-02  0.1312668E+00
        -11   -1    0    0    0    0  0.00000000000E+00  0.00000000000E+00  0.45593999997E+02  0.45594000000E+02  0.51100000000E-03 0.  1.
         11   -1    0    0    0    0 -0.00000000000E+00 -0.00000000000E+00 -0.45593999997E+02  0.45594000000E+02  0.51100000000E-03 0. -1.
    9900012    2    1    2    0    0 -0.24903180969E+01  0.26530270840E+02 -0.34257315422E+02  0.47787301676E+02  0.20000139661E+02 0.  0.
        -12    1    1    2    0    0  0.24903180969E+01 -0.26530270840E+02  0.34257315422E+02  0.43400698324E+02  0.00000000000E+00 0.  1.
         11    1    3    3    0    0 -0.50739912247E+01  0.20239323919E+02 -0.21341797902E+02  0.29847076199E+02  0.51100000000E-03 0. -1.
        -11    1    3    3    0    0  0.27610273160E+01  0.51566377478E+01 -0.14698482428E+02  0.15819594516E+02  0.51100000000E-03 0.  1.
        -12    1    3    3    0    0 -0.17735418813E+00  0.11343091732E+01  0.17829649083E+01  0.21206309610E+01  0.00000000000E+00 0.  1.
</event>
<event>
 7    1  0.2110035E-010  0.4778729E+02  0.7816164E-02  0.1312668E+00
        -11   -1    0    0    0    0  0.00000000000E+00  0.00000000000E+00  0.45593999997E+02  0.45594000000E+02  0.51100000000E-03 0.  1.
         11   -1    0    0    0    0 -0.00000000000E+00 -0.00000000000E+00 -0.45593999997E+02  0.45594000000E+02  0.51100000000E-03 0. -1.
    9900012    2    1    2    0    0 -0.71415102195E+01 -0.22279951382E+02 -0.36554395394E+02  0.47787294655E+02  0.20000107652E+02 0.  0.
        -12    1    1    2    0    0  0.71415102195E+01  0.22279951382E+02  0.36554395394E+02  0.43400705345E+02  0.00000000000E+00 0.  1.
         11    1    3    3    0    0 -0.44828001557E+01 -0.73352739341E+01 -0.11496949787E+02  0.14355542330E+02  0.51100000000E-03 0. -1.
        -11    1    3    3    0    0 -0.76768240049E+01 -0.13810378285E+02 -0.13505657548E+02  0.20786124248E+02  0.51100000000E-03 0.  1.
         12    1    3    3    0    0  0.50181139411E+01 -0.11342991624E+01 -0.11551788059E+02  0.12645628078E+02  0.00000000000E+00 0. -1.
</event>
<event>
 7    1  0.2110035E-010  0.4778727E+02  0.7816164E-02  0.1312668E+00
        -11   -1    0    0    0    0  0.00000000000E+00  0.00000000000E+00  0.45593999997E+02  0.45594000000E+02  0.51100000000E-03 0.  1.
         11   -1    0    0    0    0 -0.00000000000E+00 -0.00000000000E+00 -0.45593999997E+02  0.45594000000E+02  0.51100000000E-03 0. -1.
    9900012    2    1    2    0    0  0.35176522711E+02  0.17304619154E+01 -0.25362198013E+02  0.47787270323E+02  0.19999996709E+02 0.  0.
        -12    1    1    2    0    0 -0.35176522711E+02 -0.17304619154E+01  0.25362198013E+02  0.43400729677E+02  0.00000000000E+00 0.  1.
         11    1    3    3    0    0  0.73482945002E+01 -0.28113384529E+01 -0.22062044140E+01  0.81711929445E+01  0.51100000000E-03 0. -1.
        -11    1    3    3    0    0  0.46513859050E+01  0.11967989141E+01  0.20402943348E+01  0.52182870477E+01  0.51100000000E-03 0.  1.
         12    1    3    3    0    0  0.23176842306E+02  0.33450014543E+01 -0.25196287933E+02  0.34397790331E+02  0.00000000000E+00 0. -1.
</event>
<event>
 7    1  0.2110035E-010  0.4778727E+02  0.7816164E-02  0.1312668E+00
        -11   -1    0    0    0    0  0.00000000000E+00  0.00000000000E+00  0.45593999997E+02  0.45594000000E+02  0.51100000000E-03 0.  1.
         11   -1    0    0    0    0 -0.00000000000E+00 -0.00000000000E+00 -0.45593999997E+02  0.45594000000E+02  0.51100000000E-03 0. -1.
    9900012    2    1    2    0    0  0.42747794999E+02 -0.51547609951E+01 -0.54477188402E+01  0.47787272141E+02  0.20000004998E+02 0.  0.
        -12    1    1    2    0    0 -0.42747794999E+02  0.51547609951E+01  0.54477188402E+01  0.43400727859E+02  0.00000000000E+00 0.  1.
         11    1    3    3    0    0  0.13692296493E+01 -0.31681935361E+01 -0.36923167383E+01  0.50542500207E+01  0.51100000000E-03 0. -1.
        -11    1    3    3    0    0  0.13362850301E+02  0.23316504761E+01  0.32482356085E+01  0.13948239923E+02  0.51100000000E-03 0.  1.
         12    1    3    3    0    0  0.28015715048E+02 -0.43182179351E+01 -0.50036377104E+01  0.28784782197E+02  0.00000000000E+00 0. -1.
</event>
<event>
 7    1  0.2110035E-010  0.4778727E+02  0.7816164E-02  0.1312668E+00
        -11   -1    0    0    0    0  0.00000000000E+00  0.00000000000E+00  0.45593999997E+02  0.45594000000E+02  0.51100000000E-03 0.  1.
         11   -1    0    0    0    0 -0.00000000000E+00 -0.00000000000E+00 -0.45593999997E+02  0.45594000000E+02  0.51100000000E-03 0. -1.
    9900012    2    1    2    0    0  0.45384714948E+01  0.31307155163E+02 -0.29713424383E+02  0.47787271015E+02  0.19999999865E+02 0.  0.
        -12    1    1    2    0    0 -0.45384714948E+01 -0.31307155163E+02  0.29713424383E+02  0.43400728985E+02  0.00000000000E+00 0.  1.
         11    1    3    3    0    0  0.22521906794E+00  0.52839952242E+01 -0.10868458464E+02  0.12086964830E+02  0.51100000000E-03 0. -1.
        -11    1    3    3    0    0 -0.62304876488E+00  0.20692879502E+02 -0.19455864218E+02  0.28409753687E+02  0.51100000000E-03 0.  1.
        -12    1    3    3    0    0  0.49363011918E+01  0.53302804366E+01  0.61089829888E+00  0.72905524976E+01  0.00000000000E+00 0.  1.
</event>
<event>
 7    1  0.2110035E-010  0.4778727E+02  0.7816164E-02  0.1312668E+00
        -11   -1    0    0    0    0  0.00000000000E+00  0.00000000000E+00  0.45593999997E+02  0.45594000000E+02  0.51100000000E-03 0.  1.
         11   -1    0    0    0    0 -0.00000000000E+00 -0.00000000000E+00 -0.45593999997E+02  0.45594000000E+02  0.51100000000E-03 0. -1.
    9900012    2    1    2    0    0  0.20974043978E+02 -0.23323581402E+02 -0.29995385951E+02  0.47787272488E+02  0.20000006581E+02 0.  0.
        -12    1    1    2    0    0 -0.20974043978E+02  0.23323581402E+02  0.29995385951E+02  0.43400727512E+02  0.00000000000E+00 0.  1.
         11    1    3    3    0    0  0.19647995509E+02 -0.11237058095E+02 -0.13548431192E+02  0.26379446358E+02  0.51100000000E-03 0. -1.
        -11    1    3    3    0    0  0.90621752383E+00 -0.10031342911E+01 -0.60711412355E+01  0.62198283552E+01  0.51100000000E-03 0.  1.
        -12    1    3    3    0    0  0.41983094541E+00 -0.11083389016E+02 -0.10375813524E+02  0.15187997774E+02  0.00000000000E+00 0.  1.
</event>
<event>
 7    1  0.2110035E-010  0.4778728E+02  0.7816164E-02  0.1312668E+00
        -11   -1    0    0    0    0  0.00000000000E+00  0.00000000000E+00  0.45593999997E+02  0.45594000000E+02  0.51100000000E-03 0.  1.
         11   -1    0    0    0    0 -0.00000000000E+00 -0.00000000000E+00 -0.45593999997E+02  0.45594000000E+02  0.51100000000E-03 0. -1.
    9900012    2    1    2    0    0  0.13957169507E+02  0.24552398237E+02 -0.32954509522E+02  0.47787279526E+02  0.20000038672E+02 0.  0.
        -12    1    1    2    0    0 -0.13957169507E+02 -0.24552398237E+02  0.32954509522E+02  0.43400720474E+02  0.00000000000E+00 0.  1.
         11    1    3    3    0    0  0.12455254988E+02  0.15113190929E+02 -0.13705863199E+02  0.23903819845E+02  0.51100000000E-03 0. -1.
        -11    1    3    3    0    0 -0.87612982622E+00 -0.12056312585E+01  0.27891008573E+00  0.15162260059E+01  0.51100000000E-03 0.  1.
         12    1    3    3    0    0  0.23780443446E+01  0.10644838567E+02 -0.19527556408E+02  0.22367233676E+02  0.00000000000E+00 0. -1.
</event>
<event>
 7    1  0.2110035E-010  0.4778727E+02  0.7816164E-02  0.1312668E+00
        -11   -1    0    0    0    0  0.00000000000E+00  0.00000000000E+00  0.45593999997E+02  0.45594000000E+02  0.51100000000E-03 0.  1.
         11   -1    0    0    0    0 -0.00000000000E+00 -0.00000000000E+00 -0.45593999997E+02  0.45594000000E+02  0.51100000000E-03 0. -1.
    9900012    2    1    2    0    0  0.35397495876E+02  0.24714408546E+02 -0.44540791416E+01  0.47787268150E+02  0.19999986804E+02 0.  0.
        -12    1    1    2    0    0 -0.35397495876E+02 -0.24714408546E+02  0.44540791416E+01  0.43400731850E+02  0.00000000000E+00 0.  1.
         11    1    3    3    0    0  0.21880801176E+02  0.14033611403E+02 -0.48796319397E+00  0.25999034933E+02  0.51100000000E-03 0. -1.
        -11    1    3    3    0    0  0.83450677938E+01  0.45741650024E+01  0.41576660674E+01  0.10385053170E+02  0.51100000000E-03 0.  1.
        -12    1    3    3    0    0  0.51716269065E+01  0.61066321415E+01 -0.81237820150E+01  0.11403180048E+02  0.00000000000E+00 0.  1.
</event>
<event>
 7    1  0.2110035E-010  0.4778728E+02  0.7816164E-02  0.1312668E+00
        -11   -1    0    0    0    0  0.00000000000E+00  0.00000000000E+00  0.45593999997E+02  0.45594000000E+02  0.51100000000E-03 0.  1.
         11   -1    0    0    0    0 -0.00000000000E+00 -0.00000000000E+00 -0.45593999997E+02  0.45594000000E+02  0.51100000000E-03 0. -1.
    9900012    2    1    2    0    0  0.58099588716E+01  0.47064175674E+00 -0.43007506740E+02  0.47787276945E+02  0.20000026901E+02 0.  0.
        -12    1    1    2    0    0 -0.58099588716E+01 -0.47064175674E+00  0.43007506740E+02  0.43400723055E+02  0.00000000000E+00 0.  1.
         11    1    3    3    0    0  0.56320460141E+01  0.37582569392E+01 -0.18210194748E+02  0.19428217379E+02  0.51100000000E-03 0. -1.
        -11    1    3    3    0    0 -0.37328098980E+00  0.93866329216E-01  0.16481961042E+01  0.16925425383E+01  0.51100000000E-03 0.  1.
         12    1    3    3    0    0  0.55119384735E+00 -0.33814815116E+01 -0.26445508096E+02  0.26666517027E+02  0.00000000000E+00 0. -1.
</event>
<event>
 7    1  0.2110035E-010  0.4778726E+02  0.7816164E-02  0.1312668E+00
        -11   -1    0    0    0    0  0.00000000000E+00  0.00000000000E+00  0.45593999997E+02  0.45594000000E+02  0.51100000000E-03 0.  1.
         11   -1    0    0    0    0 -0.00000000000E+00 -0.00000000000E+00 -0.45593999997E+02  0.45594000000E+02  0.51100000000E-03 0. -1.
    9900012    2    1    2    0    0  0.14628823860E+02  0.18390944157E+02 -0.36488285122E+02  0.47787259619E+02  0.19999947905E+02 0.  0.
        -12    1    1    2    0    0 -0.14628823860E+02 -0.18390944157E+02  0.36488285122E+02  0.43400740381E+02  0.00000000000E+00 0.  1.
         11    1    3    3    0    0  0.61788797680E+01  0.36178173386E+01 -0.12337096153E+02  0.14264329610E+02  0.51100000000E-03 0. -1.
        -11    1    3    3    0    0  0.81750923566E+01  0.13829133442E+02 -0.26492965990E+02  0.30983129507E+02  0.51100000000E-03 0.  1.
        -12    1    3    3    0    0  0.27485173537E+00  0.94399337584E+00  0.23417770213E+01  0.25398005015E+01  0.00000000000E+00 0.  1.
</event>
<event>
 7    1  0.2110035E-010  0.4778727E+02  0.7816164E-02  0.1312668E+00
        -11   -1    0    0    0    0  0.00000000000E+00  0.00000000000E+00  0.45593999997E+02  0.45594000000E+02  0.51100000000E-03 0.  1.
         11   -1    0    0    0    0 -0.00000000000E+00 -0.00000000000E+00 -0.45593999997E+02  0.45594000000E+02  0.51100000000E-03 0. -1.
    9900012    2    1    2    0    0  0.43356310581E+02  0.15572964826E+01 -0.11952123823E+01  0.47787269912E+02  0.19999994839E+02 0.  0.
        -12    1    1    2    0    0 -0.43356310581E+02 -0.15572964826E+01  0.11952123823E+01  0.43400730088E+02  0.00000000000E+00 0.  1.
         11    1    3    3    0    0  0.29938036295E+02 -0.56784517276E+01 -0.54677899249E+01  0.30958481199E+02  0.51100000000E-03 0. -1.
        -11    1    3    3    0    0 -0.34044046369E+00  0.11609462984E+01  0.58167071229E+00  0.13423997526E+01  0.51100000000E-03 0.  1.
        -12    1    3    3    0    0  0.13758714750E+02  0.60748019117E+01  0.36909068304E+01  0.15486388961E+02  0.00000000000E+00 0.  1.
</event>
<event>
 7    1  0.2110035E-010  0.4778727E+02  0.7816164E-02  0.1312668E+00
        -11   -1    0    0    0    0  0.00000000000E+00  0.00000000000E+00  0.45593999997E+02  0.45594000000E+02  0.51100000000E-03 0.  1.
         11   -1    0    0    0    0 -0.00000000000E+00 -0.00000000000E+00 -0.45593999997E+02  0.45594000000E+02  0.51100000000E-03 0. -1.
    9900012    2    1    2    0    0  0.30405476604E+02  0.27253257461E+02 -0.14710197542E+02  0.47787274643E+02  0.20000016409E+02 0.  0.
        -12    1    1    2    0    0 -0.30405476604E+02 -0.27253257461E+02  0.14710197542E+02  0.43400725357E+02  0.00000000000E+00 0.  1.
         11    1    3    3    0    0 -0.99749454982E+00  0.51653157856E+01 -0.31773538211E+00  0.52703357176E+01  0.51100000000E-03 0. -1.
        -11    1    3    3    0    0  0.12557237965E+02  0.34565181620E+01 -0.17043547242E+01  0.13135317598E+02  0.51100000000E-03 0.  1.
         12    1    3    3    0    0  0.18845733189E+02  0.18631423513E+02 -0.12688107435E+02  0.29381621328E+02  0.00000000000E+00 0. -1.
</event>
<event>
 7    1  0.2110035E-010  0.4778727E+02  0.7816164E-02  0.1312668E+00
        -11   -1    0    0    0    0  0.00000000000E+00  0.00000000000E+00  0.45593999997E+02  0.45594000000E+02  0.51100000000E-03 0. -1.
         11   -1    0    0    0    0 -0.00000000000E+00 -0.00000000000E+00 -0.45593999997E+02  0.45594000000E+02  0.51100000000E-03 0.  1.
    9900012    2    1    2    0    0 -0.34495634383E+01 -0.32852856018E+02  0.28149842065E+02  0.47787271380E+02  0.20000001530E+02 0.  0.
        -12    1    1    2    0    0  0.34495634383E+01  0.32852856018E+02 -0.28149842065E+02  0.43400728620E+02  0.00000000000E+00 0.  1.
         11    1    3    3    0    0  0.24562151920E+01 -0.76829599852E+00  0.57717436549E+01  0.63195171405E+01  0.51100000000E-03 0. -1.
        -11    1    3    3    0    0 -0.17723900410E+01 -0.11227287213E+01 -0.11212561914E+01  0.23788867032E+01  0.51100000000E-03 0.  1.
        -12    1    3    3    0    0 -0.41333885893E+01 -0.30961831299E+02  0.23499354601E+02  0.39088867536E+02  0.00000000000E+00 0.  1.
</event>
<event>
 7    1  0.2110035E-010  0.4778727E+02  0.7816164E-02  0.1312668E+00
        -11   -1    0    0    0    0  0.00000000000E+00  0.00000000000E+00  0.45593999997E+02  0.45594000000E+02  0.51100000000E-03 0.  1.
         11   -1    0    0    0    0 -0.00000000000E+00 -0.00000000000E+00 -0.45593999997E+02  0.45594000000E+02  0.51100000000E-03 0. -1.
    9900012    2    1    2    0    0  0.19765409415E+02  0.37332380857E+02 -0.99621963045E+01  0.47787269304E+02  0.19999992063E+02 0.  0.
        -12    1    1    2    0    0 -0.19765409415E+02 -0.37332380857E+02  0.99621963045E+01  0.43400730696E+02  0.00000000000E+00 0.  1.
         11    1    3    3    0    0  0.95930864569E+01  0.15709196445E+02 -0.99367387937E+00  0.18433489869E+02  0.51100000000E-03 0. -1.
        -11    1    3    3    0    0  0.82124764142E+01  0.93405680200E+01 -0.11176417664E+02  0.16721342406E+02  0.51100000000E-03 0.  1.
        -12    1    3    3    0    0  0.19598465436E+01  0.12282616392E+02  0.22078952385E+01  0.12632437029E+02  0.00000000000E+00 0.  1.
</event>
<event>
 7    1  0.2110035E-010  0.4778727E+02  0.7816164E-02  0.1312668E+00
        -11   -1    0    0    0    0  0.00000000000E+00  0.00000000000E+00  0.45593999997E+02  0.45594000000E+02  0.51100000000E-03 0.  1.
         11   -1    0    0    0    0 -0.00000000000E+00 -0.00000000000E+00 -0.45593999997E+02  0.45594000000E+02  0.51100000000E-03 0. -1.
    9900012    2    1    2    0    0 -0.17038172636E+02 -0.26649702282E+02 -0.29717288842E+02  0.47787271727E+02  0.20000003110E+02 0.  0.
        -12    1    1    2    0    0  0.17038172636E+02  0.26649702282E+02  0.29717288842E+02  0.43400728273E+02  0.00000000000E+00 0.  1.
         11    1    3    3    0    0 -0.22557407629E+01  0.24747448757E+01 -0.13878916473E+01  0.36247720032E+01  0.51100000000E-03 0. -1.
        -11    1    3    3    0    0 -0.27922262213E+01 -0.12031060694E+02 -0.65057161540E+01  0.13959487513E+02  0.51100000000E-03 0.  1.
         12    1    3    3    0    0 -0.11990205652E+02 -0.17093386464E+02 -0.21823681041E+02  0.30203012210E+02  0.00000000000E+00 0. -1.
</event>
<event>
 7    1  0.2110035E-010  0.4778727E+02  0.7816164E-02  0.1312668E+00
        -11   -1    0    0    0    0  0.00000000000E+00  0.00000000000E+00  0.45593999997E+02  0.45594000000E+02  0.51100000000E-03 0.  1.
         11   -1    0    0    0    0 -0.00000000000E+00 -0.00000000000E+00 -0.45593999997E+02  0.45594000000E+02  0.51100000000E-03 0. -1.
    9900012    2    1    2    0    0 -0.30155698888E+01  0.53829038845E+00 -0.43292496422E+02  0.47787266541E+02  0.19999979467E+02 0.  0.
        -12    1    1    2    0    0  0.30155698888E+01 -0.53829038845E+00  0.43292496422E+02  0.43400733459E+02  0.00000000000E+00 0.  1.
         11    1    3    3    0    0 -0.22353770755E+01 -0.31664234779E+01 -0.18271077976E+02  0.18677672205E+02  0.51100000000E-03 0. -1.
        -11    1    3    3    0    0  0.65781252618E+01  0.35384813233E+01 -0.13751181421E+02  0.15648884074E+02  0.51100000000E-03 0.  1.
        -12    1    3    3    0    0 -0.73583180751E+01  0.16623254306E+00 -0.11270237025E+02  0.13460710262E+02  0.00000000000E+00 0.  1.
</event>
<event>
 7    1  0.2110035E-010  0.4778727E+02  0.7816164E-02  0.1312668E+00
        -11   -1    0    0    0    0  0.00000000000E+00  0.00000000000E+00  0.45593999997E+02  0.45594000000E+02  0.51100000000E-03 0.  1.
         11   -1    0    0    0    0 -0.00000000000E+00 -0.00000000000E+00 -0.45593999997E+02  0.45594000000E+02  0.51100000000E-03 0. -1.
    9900012    2    1    2    0    0 -0.87571488804E+01  0.18670027612E+02 -0.38188551528E+02  0.47787273562E+02  0.20000011478E+02 0.  0.
        -12    1    1    2    0    0  0.87571488804E+01 -0.18670027612E+02  0.38188551528E+02  0.43400726438E+02  0.00000000000E+00 0.  1.
         11    1    3    3    0    0  0.49860390371E+00  0.35213188112E+01 -0.23248768599E+01  0.42489227691E+01  0.51100000000E-03 0. -1.
        -11    1    3    3    0    0  0.40160873630E+01  0.47946292326E+01 -0.17707584316E+02  0.18779669053E+02  0.51100000000E-03 0.  1.
         12    1    3    3    0    0 -0.13271840147E+02  0.10354079568E+02 -0.18156090353E+02  0.24758681740E+02  0.00000000000E+00 0. -1.
</event>
<event>
 7    1  0.2110035E-010  0.4778727E+02  0.7816164E-02  0.1312668E+00
        -11   -1    0    0    0    0  0.00000000000E+00  0.00000000000E+00  0.45593999997E+02  0.45594000000E+02  0.51100000000E-03 0. -1.
         11   -1    0    0    0    0 -0.00000000000E+00 -0.00000000000E+00 -0.45593999997E+02  0.45594000000E+02  0.51100000000E-03 0.  1.
    9900012    2    1    2    0    0 -0.30872304914E+02 -0.13755565815E+02  0.27226978634E+02  0.47787272274E+02  0.20000005606E+02 0.  0.
        -12    1    1    2    0    0  0.30872304914E+02  0.13755565815E+02 -0.27226978634E+02  0.43400727726E+02  0.00000000000E+00 0.  1.
         11    1    3    3    0    0 -0.28818092814E+02 -0.10728137197E+02  0.15660764618E+02  0.34508476493E+02  0.51100000000E-03 0. -1.
        -11    1    3    3    0    0  0.39029737029E+00 -0.28074972803E+01  0.21768403481E+01  0.35739344116E+01  0.51100000000E-03 0.  1.
        -12    1    3    3    0    0 -0.24445094705E+01 -0.21993133838E+00  0.93893736671E+01  0.97048613697E+01  0.00000000000E+00 0.  1.
</event>
<event>
 7    1  0.2110035E-010  0.4778727E+02  0.7816164E-02  0.1312668E+00
        -11   -1    0    0    0    0  0.00000000000E+00  0.00000000000E+00  0.45593999997E+02  0.45594000000E+02  0.51100000000E-03 0.  1.
         11   -1    0    0    0    0 -0.00000000000E+00 -0.00000000000E+00 -0.45593999997E+02  0.45594000000E+02  0.51100000000E-03 0. -1.
    9900012    2    1    2    0    0  0.92722644826E+01 -0.38166818129E+02 -0.18464621139E+02  0.47787272719E+02  0.20000007635E+02 0.  0.
        -12    1    1    2    0    0 -0.92722644826E+01  0.38166818129E+02  0.18464621139E+02  0.43400727281E+02  0.00000000000E+00 0.  1.
         11    1    3    3    0    0  0.11427526126E+02 -0.19555770492E+02 -0.11445482895E+02  0.25377462282E+02  0.51100000000E-03 0. -1.
        -11    1    3    3    0    0  0.10535261047E+01 -0.12796819613E+02 -0.12965283023E+00  0.12840767873E+02  0.51100000000E-03 0.  1.
         12    1    3    3    0    0 -0.32087877478E+01 -0.58142280237E+01 -0.68894854138E+01  0.95690425639E+01  0.00000000000E+00 0. -1.
</event>
<event>
 7    1  0.2110035E-010  0.4778727E+02  0.7816164E-02  0.1312668E+00
        -11   -1    0    0    0    0  0.00000000000E+00  0.00000000000E+00  0.45593999997E+02  0.45594000000E+02  0.51100000000E-03 0.  1.
         11   -1    0    0    0    0 -0.00000000000E+00 -0.00000000000E+00 -0.45593999997E+02  0.45594000000E+02  0.51100000000E-03 0. -1.
    9900012    2    1    2    0    0  0.11565648050E+02  0.14134212103E+02 -0.39371098927E+02  0.47787267318E+02  0.19999983009E+02 0.  0.
        -12    1    1    2    0    0 -0.11565648050E+02 -0.14134212103E+02  0.39371098927E+02  0.43400732682E+02  0.00000000000E+00 0.  1.
         11    1    3    3    0    0  0.40616840879E+00 -0.39599504283E+01 -0.38384719323E+01  0.55299228934E+01  0.51100000000E-03 0.  1.
        -11    1    3    3    0    0  0.10298145147E+02  0.88556248598E+01 -0.20464067316E+02  0.24561187604E+02  0.51100000000E-03 0. -1.
        -12    1    3    3    0    0  0.86133449391E+00  0.92385376716E+01 -0.15068559679E+02  0.17696156821E+02  0.00000000000E+00 0.  1.
</event>
<event>
 7    1  0.2110035E-010  0.4778728E+02  0.7816164E-02  0.1312668E+00
        -11   -1    0    0    0    0  0.00000000000E+00  0.00000000000E+00  0.45593999997E+02  0.45594000000E+02  0.51100000000E-03 0. -1.
         11   -1    0    0    0    0 -0.00000000000E+00 -0.00000000000E+00 -0.45593999997E+02  0.45594000000E+02  0.51100000000E-03 0.  1.
    9900012    2    1    2    0    0  0.11853275222E+02  0.28182310808E+02  0.30803895935E+02  0.47787276726E+02  0.20000025904E+02 0.  0.
        -12    1    1    2    0    0 -0.11853275222E+02 -0.28182310808E+02 -0.30803895935E+02  0.43400723274E+02  0.00000000000E+00 0.  1.
         11    1    3    3    0    0  0.44801612410E+01 -0.90500616704E+00  0.42605638186E+00  0.45904689531E+01  0.51100000000E-03 0. -1.
        -11    1    3    3    0    0  0.49242529356E+01  0.13541677860E+02  0.10426901657E+02  0.17786106507E+02  0.51100000000E-03 0.  1.
         12    1    3    3    0    0  0.24488610458E+01  0.15545639114E+02  0.19950937896E+02  0.25410701266E+02  0.00000000000E+00 0. -1.
</event>
<event>
 7    1  0.2110035E-010  0.4778727E+02  0.7816164E-02  0.1312668E+00
        -11   -1    0    0    0    0  0.00000000000E+00  0.00000000000E+00  0.45593999997E+02  0.45594000000E+02  0.51100000000E-03 0.  1.
         11   -1    0    0    0    0 -0.00000000000E+00 -0.00000000000E+00 -0.45593999997E+02  0.45594000000E+02  0.51100000000E-03 0. -1.
    9900012    2    1    2    0    0 -0.77118575193E+01  0.26319539597E+02 -0.33636773043E+02  0.47787269456E+02  0.19999992758E+02 0.  0.
        -12    1    1    2    0    0  0.77118575193E+01 -0.26319539597E+02  0.33636773043E+02  0.43400730544E+02  0.00000000000E+00 0.  1.
         11    1    3    3    0    0 -0.34760317314E+01  0.12248254817E+01 -0.53476817748E+01  0.64946666338E+01  0.51100000000E-03 0. -1.
        -11    1    3    3    0    0  0.21997837073E+01  0.21448663079E+02 -0.15628119420E+02  0.26629350595E+02  0.51100000000E-03 0.  1.
        -12    1    3    3    0    0 -0.64356094951E+01  0.36460510360E+01 -0.12660971848E+02  0.14663252227E+02  0.00000000000E+00 0.  1.
</event>
<event>
 7    1  0.2110035E-010  0.4778727E+02  0.7816164E-02  0.1312668E+00
        -11   -1    0    0    0    0  0.00000000000E+00  0.00000000000E+00  0.45593999997E+02  0.45594000000E+02  0.51100000000E-03 0. -1.
         11   -1    0    0    0    0 -0.00000000000E+00 -0.00000000000E+00 -0.45593999997E+02  0.45594000000E+02  0.51100000000E-03 0.  1.
    9900012    2    1    2    0    0  0.28172995942E+02  0.27605367444E+02 -0.18106614497E+02  0.47787268432E+02  0.19999988088E+02 0.  0.
        -12    1    1    2    0    0 -0.28172995942E+02 -0.27605367444E+02  0.18106614497E+02  0.43400731568E+02  0.00000000000E+00 0.  1.
         11    1    3    3    0    0  0.20639747316E+01  0.47933730651E+01  0.22755649491E+01  0.56933832764E+01  0.51100000000E-03 0. -1.
        -11    1    3    3    0    0  0.82093840191E+01  0.19669121804E+01 -0.90413539376E+01  0.12369673027E+02  0.51100000000E-03 0.  1.
        -12    1    3    3    0    0  0.17899637192E+02  0.20845082199E+02 -0.11340825509E+02  0.29724212129E+02  0.00000000000E+00 0.  1.
</event>
<event>
 7    1  0.2110035E-010  0.4778727E+02  0.7816164E-02  0.1312668E+00
        -11   -1    0    0    0    0  0.00000000000E+00  0.00000000000E+00  0.45593999997E+02  0.45594000000E+02  0.51100000000E-03 0.  1.
         11   -1    0    0    0    0 -0.00000000000E+00 -0.00000000000E+00 -0.45593999997E+02  0.45594000000E+02  0.51100000000E-03 0. -1.
    9900012    2    1    2    0    0  0.13613935607E+02  0.75356204059E+01 -0.40515409373E+02  0.47787271731E+02  0.20000003131E+02 0.  0.
        -12    1    1    2    0    0 -0.13613935607E+02 -0.75356204059E+01  0.40515409373E+02  0.43400728269E+02  0.00000000000E+00 0.  1.
         11    1    3    3    0    0  0.21868853230E+01  0.13940499130E+00  0.20343536651E+00  0.22007470043E+01  0.51100000000E-03 0. -1.
        -11    1    3    3    0    0 -0.43833202391E+00  0.53721647510E+01 -0.33958026281E+01  0.63705388176E+01  0.51100000000E-03 0.  1.
         12    1    3    3    0    0  0.11865382308E+02  0.20240506635E+01 -0.37323042111E+02  0.39215985909E+02  0.00000000000E+00 0. -1.
</event>
<event>
 7    1  0.2110035E-010  0.4778727E+02  0.7816164E-02  0.1312668E+00
        -11   -1    0    0    0    0  0.00000000000E+00  0.00000000000E+00  0.45593999997E+02  0.45594000000E+02  0.51100000000E-03 0.  1.
         11   -1    0    0    0    0 -0.00000000000E+00 -0.00000000000E+00 -0.45593999997E+02  0.45594000000E+02  0.51100000000E-03 0. -1.
    9900012    2    1    2    0    0 -0.19443171813E+02  0.14071227665E+02 -0.36160569161E+02  0.47787272584E+02  0.20000007021E+02 0.  0.
        -12    1    1    2    0    0  0.19443171813E+02 -0.14071227665E+02  0.36160569161E+02  0.43400727416E+02  0.00000000000E+00 0.  1.
         11    1    3    3    0    0 -0.14547315468E+02  0.12392075471E+02 -0.18478851185E+02  0.26582999514E+02  0.51100000000E-03 0. -1.
        -11    1    3    3    0    0 -0.19113678353E+01 -0.87166277661E+00  0.84634155342E+00  0.22648216893E+01  0.51100000000E-03 0.  1.
         12    1    3    3    0    0 -0.29844885094E+01  0.25508149710E+01 -0.18528059529E+02  0.18939451381E+02  0.00000000000E+00 0. -1.
</event>
<event>
 7    1  0.2110035E-010  0.4778727E+02  0.7816164E-02  0.1312668E+00
        -11   -1    0    0    0    0  0.00000000000E+00  0.00000000000E+00  0.45593999997E+02  0.45594000000E+02  0.51100000000E-03 0.  1.
         11   -1    0    0    0    0 -0.00000000000E+00 -0.00000000000E+00 -0.45593999997E+02  0.45594000000E+02  0.51100000000E-03 0. -1.
    9900012    2    1    2    0    0 -0.33519192937E+02 -0.87434667008E+00 -0.27555808087E+02  0.47787270323E+02  0.19999996709E+02 0.  0.
        -12    1    1    2    0    0  0.33519192937E+02  0.87434667008E+00  0.27555808087E+02  0.43400729677E+02  0.00000000000E+00 0.  1.
         11    1    3    3    0    0 -0.58085556953E+01 -0.84302132864E+01 -0.63736794110E+01  0.12059502677E+02  0.51100000000E-03 0.  1.
        -11    1    3    3    0    0 -0.13056066356E+02  0.28422668819E+01 -0.10428577636E+02  0.16949766413E+02  0.51100000000E-03 0. -1.
        -12    1    3    3    0    0 -0.14654570886E+02  0.47135997344E+01 -0.10753551040E+02  0.18778001232E+02  0.00000000000E+00 0.  1.
</event>
<event>
 7    1  0.2110035E-010  0.4778727E+02  0.7816164E-02  0.1312668E+00
        -11   -1    0    0    0    0  0.00000000000E+00  0.00000000000E+00  0.45593999997E+02  0.45594000000E+02  0.51100000000E-03 0. -1.
         11   -1    0    0    0    0 -0.00000000000E+00 -0.00000000000E+00 -0.45593999997E+02  0.45594000000E+02  0.51100000000E-03 0.  1.
    9900012    2    1    2    0    0  0.35609026952E+02  0.92746645885E+01  0.23013065265E+02  0.47787269861E+02  0.19999994606E+02 0.  0.
        -12    1    1    2    0    0 -0.35609026952E+02 -0.92746645885E+01 -0.23013065265E+02  0.43400730139E+02  0.00000000000E+00 0.  1.
         11    1    3    3    0    0  0.91625224368E+01  0.68231906961E+01  0.12571878969E+01  0.11492966125E+02  0.51100000000E-03 0. -1.
        -11    1    3    3    0    0  0.88608591296E+01 -0.46388320337E+01  0.61900927111E+01  0.11762263183E+02  0.51100000000E-03 0.  1.
         12    1    3    3    0    0  0.17585645385E+02  0.70903059261E+01  0.15565784657E+02  0.24532040554E+02  0.00000000000E+00 0. -1.
</event>
<event>
 7    1  0.2110035E-010  0.4778727E+02  0.7816164E-02  0.1312668E+00
        -11   -1    0    0    0    0  0.00000000000E+00  0.00000000000E+00  0.45593999997E+02  0.45594000000E+02  0.51100000000E-03 0.  1.
         11   -1    0    0    0    0 -0.00000000000E+00 -0.00000000000E+00 -0.45593999997E+02  0.45594000000E+02  0.51100000000E-03 0. -1.
    9900012    2    1    2    0    0 -0.32215058311E+02 -0.76674413544E+01 -0.28053945642E+02  0.47787268381E+02  0.19999987858E+02 0.  0.
        -12    1    1    2    0    0  0.32215058311E+02  0.76674413544E+01  0.28053945642E+02  0.43400731619E+02  0.00000000000E+00 0.  1.
         11    1    3    3    0    0 -0.82514868208E+01  0.60342215533E+00 -0.12056863155E+02  0.14622554580E+02  0.51100000000E-03 0. -1.
        -11    1    3    3    0    0 -0.10086253057E+01  0.23338479190E+00  0.23531887587E+01  0.25708541506E+01  0.51100000000E-03 0.  1.
         12    1    3    3    0    0 -0.22954946185E+02 -0.85042483016E+01 -0.18350271246E+02  0.30593859651E+02  0.00000000000E+00 0. -1.
</event>
<event>
 7    1  0.2110035E-010  0.4778727E+02  0.7816164E-02  0.1312668E+00
        -11   -1    0    0    0    0  0.00000000000E+00  0.00000000000E+00  0.45593999997E+02  0.45594000000E+02  0.51100000000E-03 0.  1.
         11   -1    0    0    0    0 -0.00000000000E+00 -0.00000000000E+00 -0.45593999997E+02  0.45594000000E+02  0.51100000000E-03 0. -1.
    9900012    2    1    2    0    0 -0.43188042352E+02 -0.10201790690E-01 -0.42914156080E+01  0.47787270119E+02  0.19999995783E+02 0.  0.
        -12    1    1    2    0    0  0.43188042352E+02  0.10201790690E-01  0.42914156080E+01  0.43400729881E+02  0.00000000000E+00 0.  1.
         11    1    3    3    0    0 -0.53902288198E+01  0.47201752292E+01  0.39649468108E+01  0.81887376559E+01  0.51100000000E-03 0. -1.
        -11    1    3    3    0    0 -0.94730839094E+01 -0.19025921812E+01 -0.51910826118E+01  0.10968432646E+02  0.51100000000E-03 0.  1.
        -12    1    3    3    0    0 -0.28324729622E+02 -0.28277848387E+01 -0.30652798070E+01  0.28630099818E+02  0.00000000000E+00 0.  1.
</event>
<event>
 7    1  0.2110035E-010  0.4778727E+02  0.7816164E-02  0.1312668E+00
        -11   -1    0    0    0    0  0.00000000000E+00  0.00000000000E+00  0.45593999997E+02  0.45594000000E+02  0.51100000000E-03 0.  1.
         11   -1    0    0    0    0 -0.00000000000E+00 -0.00000000000E+00 -0.45593999997E+02  0.45594000000E+02  0.51100000000E-03 0. -1.
    9900012    2    1    2    0    0 -0.39685426880E+02 -0.14217367916E+02 -0.10322635814E+02  0.47787268817E+02  0.19999989842E+02 0.  0.
        -12    1    1    2    0    0  0.39685426880E+02  0.14217367916E+02  0.10322635814E+02  0.43400731183E+02  0.00000000000E+00 0.  1.
         11    1    3    3    0    0 -0.13792521161E+02 -0.10577002140E+02  0.17106929236E+01  0.17465196385E+02  0.51100000000E-03 0. -1.
        -11    1    3    3    0    0 -0.53641950381E+00  0.10835655701E+01 -0.25839959114E+01  0.28528749289E+01  0.51100000000E-03 0.  1.
         12    1    3    3    0    0 -0.25356486215E+02 -0.47239313462E+01 -0.94493328263E+01  0.27469197502E+02  0.00000000000E+00 0. -1.
</event>
<event>
 7    1  0.2110035E-010  0.4778727E+02  0.7816164E-02  0.1312668E+00
        -11   -1    0    0    0    0  0.00000000000E+00  0.00000000000E+00  0.45593999997E+02  0.45594000000E+02  0.51100000000E-03 0.  1.
         11   -1    0    0    0    0 -0.00000000000E+00 -0.00000000000E+00 -0.45593999997E+02  0.45594000000E+02  0.51100000000E-03 0. -1.
    9900012    2    1    2    0    0  0.10318843638E+02  0.32668553131E+02 -0.26644152458E+02  0.47787265469E+02  0.19999974578E+02 0.  0.
        -12    1    1    2    0    0 -0.10318843638E+02 -0.32668553131E+02  0.26644152458E+02  0.43400734531E+02  0.00000000000E+00 0.  1.
         11    1    3    3    0    0  0.19684366947E+01  0.12524888186E+02 -0.88894261831E+00  0.12709751624E+02  0.51100000000E-03 0. -1.
        -11    1    3    3    0    0 -0.23713287772E+00  0.45084859566E+01 -0.11015824723E+01  0.46471670754E+01  0.51100000000E-03 0.  1.
        -12    1    3    3    0    0  0.85875398211E+01  0.15635178988E+02 -0.24653627367E+02  0.30430346769E+02  0.00000000000E+00 0.  1.
</event>
<event>
 7    1  0.2110035E-010  0.4778727E+02  0.7816164E-02  0.1312668E+00
        -11   -1    0    0    0    0  0.00000000000E+00  0.00000000000E+00  0.45593999997E+02  0.45594000000E+02  0.51100000000E-03 0.  1.
         11   -1    0    0    0    0 -0.00000000000E+00 -0.00000000000E+00 -0.45593999997E+02  0.45594000000E+02  0.51100000000E-03 0. -1.
    9900012    2    1    2    0    0  0.10122425458E+02 -0.24986608811E+02 -0.34012193915E+02  0.47787268994E+02  0.19999990649E+02 0.  0.
        -12    1    1    2    0    0 -0.10122425458E+02  0.24986608811E+02  0.34012193915E+02  0.43400731006E+02  0.00000000000E+00 0.  1.
         11    1    3    3    0    0  0.90613195243E+01 -0.37436585591E+01 -0.70779724701E+01  0.12092153881E+02  0.51100000000E-03 0. -1.
        -11    1    3    3    0    0  0.25614073461E+01 -0.15892098048E+02 -0.12991478771E+02  0.20685698172E+02  0.51100000000E-03 0.  1.
         12    1    3    3    0    0 -0.15003014125E+01 -0.53508522041E+01 -0.13942742674E+02  0.15009416941E+02  0.00000000000E+00 0. -1.
</event>
<event>
 7    1  0.2110035E-010  0.4778727E+02  0.7816164E-02  0.1312668E+00
        -11   -1    0    0    0    0  0.00000000000E+00  0.00000000000E+00  0.45593999997E+02  0.45594000000E+02  0.51100000000E-03 0. -1.
         11   -1    0    0    0    0 -0.00000000000E+00 -0.00000000000E+00 -0.45593999997E+02  0.45594000000E+02  0.51100000000E-03 0.  1.
    9900012    2    1    2    0    0  0.53448054339E+01  0.26414033391E+02  0.34019921739E+02  0.47787272123E+02  0.20000004918E+02 0.  0.
        -12    1    1    2    0    0 -0.53448054339E+01 -0.26414033391E+02 -0.34019921739E+02  0.43400727877E+02  0.00000000000E+00 0.  1.
         11    1    3    3    0    0  0.33689240696E+01 -0.17218385951E+00  0.31004452746E+01  0.45817090512E+01  0.51100000000E-03 0. -1.
        -11    1    3    3    0    0  0.37561841705E+01  0.78669098127E+01  0.23946380201E+01  0.90405465008E+01  0.51100000000E-03 0.  1.
         12    1    3    3    0    0 -0.17803028062E+01  0.18719307438E+02  0.28524838444E+02  0.34165016571E+02  0.00000000000E+00 0. -1.
</event>
<event>
 7    1  0.2110035E-010  0.4778727E+02  0.7816164E-02  0.1312668E+00
        -11   -1    0    0    0    0  0.00000000000E+00  0.00000000000E+00  0.45593999997E+02  0.45594000000E+02  0.51100000000E-03 0.  1.
         11   -1    0    0    0    0 -0.00000000000E+00 -0.00000000000E+00 -0.45593999997E+02  0.45594000000E+02  0.51100000000E-03 0. -1.
    9900012    2    1    2    0    0 -0.37910574360E+02 -0.20984067142E+02  0.24658662478E+01  0.47787271682E+02  0.20000002909E+02 0.  0.
        -12    1    1    2    0    0  0.37910574360E+02  0.20984067142E+02 -0.24658662478E+01  0.43400728318E+02  0.00000000000E+00 0.  1.
         11    1    3    3    0    0 -0.11022758178E+02 -0.50857422018E+01  0.23798433553E+01  0.12370514389E+02  0.51100000000E-03 0. -1.
        -11    1    3    3    0    0 -0.56556301413E+01 -0.12522809901E+02 -0.16921937049E+01  0.13844509378E+02  0.51100000000E-03 0.  1.
        -12    1    3    3    0    0 -0.21232186041E+02 -0.33755150391E+01  0.17782165973E+01  0.21572247915E+02  0.00000000000E+00 0.  1.
</event>
<event>
 7    1  0.2110035E-010  0.4778726E+02  0.7816164E-02  0.1312668E+00
        -11   -1    0    0    0    0  0.00000000000E+00  0.00000000000E+00  0.45593999997E+02  0.45594000000E+02  0.51100000000E-03 0.  1.
         11   -1    0    0    0    0 -0.00000000000E+00 -0.00000000000E+00 -0.45593999997E+02  0.45594000000E+02  0.51100000000E-03 0. -1.
    9900012    2    1    2    0    0 -0.65163396273E+01 -0.32520348208E+02 -0.27992653319E+02  0.47787258422E+02  0.19999942448E+02 0.  0.
        -12    1    1    2    0    0  0.65163396273E+01  0.32520348208E+02  0.27992653319E+02  0.43400741578E+02  0.00000000000E+00 0.  1.
         11    1    3    3    0    0 -0.90271786111E+01 -0.10334320308E+02 -0.11270034267E+02  0.17756739637E+02  0.51100000000E-03 0. -1.
        -11    1    3    3    0    0  0.42771666625E+01 -0.20758891343E+02 -0.11011919625E+02  0.23884892685E+02  0.51100000000E-03 0.  1.
         12    1    3    3    0    0 -0.17663276787E+01 -0.14271365571E+01 -0.57106994264E+01  0.61456260999E+01  0.00000000000E+00 0. -1.
</event>
<event>
 7    1  0.2110035E-010  0.4778727E+02  0.7816164E-02  0.1312668E+00
        -11   -1    0    0    0    0  0.00000000000E+00  0.00000000000E+00  0.45593999997E+02  0.45594000000E+02  0.51100000000E-03 0.  1.
         11   -1    0    0    0    0 -0.00000000000E+00 -0.00000000000E+00 -0.45593999997E+02  0.45594000000E+02  0.51100000000E-03 0. -1.
    9900012    2    1    2    0    0 -0.19991519615E+02  0.37382748222E+02  0.93001415474E+01  0.47787270122E+02  0.19999995796E+02 0.  0.
        -12    1    1    2    0    0  0.19991519615E+02 -0.37382748222E+02 -0.93001415474E+01  0.43400729878E+02  0.00000000000E+00 0.  1.
         11    1    3    3    0    0  0.16983591983E+01  0.61212379621E+01  0.11063573787E+01  0.64481008883E+01  0.51100000000E-03 0.  1.
        -11    1    3    3    0    0 -0.15410282966E+02  0.29897530158E+02  0.45217037584E+01  0.33937957154E+02  0.51100000000E-03 0. -1.
         12    1    3    3    0    0 -0.62795958467E+01  0.13639801019E+01  0.36720804103E+01  0.74012120802E+01  0.00000000000E+00 0. -1.
</event>
<event>
 7    1  0.2110035E-010  0.4778729E+02  0.7816164E-02  0.1312668E+00
        -11   -1    0    0    0    0  0.00000000000E+00  0.00000000000E+00  0.45593999997E+02  0.45594000000E+02  0.51100000000E-03 0.  1.
         11   -1    0    0    0    0 -0.00000000000E+00 -0.00000000000E+00 -0.45593999997E+02  0.45594000000E+02  0.51100000000E-03 0. -1.
    9900012    2    1    2    0    0  0.19910861074E+02 -0.48390755099E+01 -0.38259153118E+02  0.47787287589E+02  0.20000075433E+02 0.  0.
        -12    1    1    2    0    0 -0.19910861074E+02  0.48390755099E+01  0.38259153118E+02  0.43400712411E+02  0.00000000000E+00 0.  1.
         11    1    3    3    0    0  0.47437476846E+01  0.22749309706E+01 -0.14048530735E+02  0.15001322245E+02  0.51100000000E-03 0. -1.
        -11    1    3    3    0    0 -0.36839035900E+00 -0.36850848050E+01  0.13166740585E+00  0.37057924988E+01  0.51100000000E-03 0.  1.
         12    1    3    3    0    0  0.15535503748E+02 -0.34289216754E+01 -0.24342289789E+02  0.29080172845E+02  0.00000000000E+00 0. -1.
</event>
<event>
 7    1  0.2110035E-010  0.4778727E+02  0.7816164E-02  0.1312668E+00
        -11   -1    0    0    0    0  0.00000000000E+00  0.00000000000E+00  0.45593999997E+02  0.45594000000E+02  0.51100000000E-03 0.  1.
         11   -1    0    0    0    0 -0.00000000000E+00 -0.00000000000E+00 -0.45593999997E+02  0.45594000000E+02  0.51100000000E-03 0. -1.
    9900012    2    1    2    0    0  0.31771413108E+02 -0.25416875343E+02 -0.15105745359E+02  0.47787265145E+02  0.19999973104E+02 0.  0.
        -12    1    1    2    0    0 -0.31771413108E+02  0.25416875343E+02  0.15105745359E+02  0.43400734855E+02  0.00000000000E+00 0.  1.
         11    1    3    3    0    0  0.22691214829E+02 -0.17264799310E+02 -0.10463468232E+02  0.30371840466E+02  0.51100000000E-03 0. -1.
        -11    1    3    3    0    0  0.48908873286E+01 -0.59312424612E+01  0.31385678138E+01  0.83036753415E+01  0.51100000000E-03 0.  1.
         12    1    3    3    0    0  0.41893109502E+01 -0.22208335725E+01 -0.77808449409E+01  0.91117493374E+01  0.00000000000E+00 0. -1.
</event>
<event>
 7    1  0.2110035E-010  0.4778727E+02  0.7816164E-02  0.1312668E+00
        -11   -1    0    0    0    0  0.00000000000E+00  0.00000000000E+00  0.45593999997E+02  0.45594000000E+02  0.51100000000E-03 0.  1.
         11   -1    0    0    0    0 -0.00000000000E+00 -0.00000000000E+00 -0.45593999997E+02  0.45594000000E+02  0.51100000000E-03 0. -1.
    9900012    2    1    2    0    0 -0.30516379749E+01  0.39155833477E+02 -0.18469751189E+02  0.47787268456E+02  0.19999988198E+02 0.  0.
        -12    1    1    2    0    0  0.30516379749E+01 -0.39155833477E+02  0.18469751189E+02  0.43400731544E+02  0.00000000000E+00 0.  1.
         11    1    3    3    0    0 -0.83887532168E+00  0.39608752694E+02 -0.18374153187E+02  0.43671117542E+02  0.51100000000E-03 0. -1.
        -11    1    3    3    0    0 -0.21389044444E+01  0.11820763441E+01  0.20392721585E+00  0.24523057061E+01  0.51100000000E-03 0.  1.
         12    1    3    3    0    0 -0.73858208755E-01 -0.16349955611E+01 -0.29952521785E+00  0.16638452079E+01  0.00000000000E+00 0. -1.
</event>
<event>
 7    1  0.2110035E-010  0.4778724E+02  0.7816164E-02  0.1312668E+00
        -11   -1    0    0    0    0  0.00000000000E+00  0.00000000000E+00  0.45593999997E+02  0.45594000000E+02  0.51100000000E-03 0. -1.
         11   -1    0    0    0    0 -0.00000000000E+00 -0.00000000000E+00 -0.45593999997E+02  0.45594000000E+02  0.51100000000E-03 0.  1.
    9900012    2    1    2    0    0  0.34932891211E+02 -0.96002537227E+01  0.23898838745E+02  0.47787236720E+02  0.19999843500E+02 0.  0.
        -12    1    1    2    0    0 -0.34932891211E+02  0.96002537227E+01 -0.23898838745E+02  0.43400763280E+02  0.00000000000E+00 0.  1.
         11    1    3    3    0    0  0.78600968546E+01 -0.61566352849E+00  0.12568447078E+01  0.79837223789E+01  0.51100000000E-03 0. -1.
        -11    1    3    3    0    0  0.12419224763E+02 -0.10236007820E+01  0.19019388672E+02  0.22738118831E+02  0.51100000000E-03 0.  1.
        -12    1    3    3    0    0  0.14653569594E+02 -0.79609894121E+01  0.36226053658E+01  0.17065395510E+02  0.00000000000E+00 0.  1.
</event>
<event>
 7    1  0.2110035E-010  0.4778727E+02  0.7816164E-02  0.1312668E+00
        -11   -1    0    0    0    0  0.00000000000E+00  0.00000000000E+00  0.45593999997E+02  0.45594000000E+02  0.51100000000E-03 0.  1.
         11   -1    0    0    0    0 -0.00000000000E+00 -0.00000000000E+00 -0.45593999997E+02  0.45594000000E+02  0.51100000000E-03 0. -1.
    9900012    2    1    2    0    0  0.12521522110E+01  0.45671451838E+01 -0.43141589806E+02  0.47787268770E+02  0.19999989629E+02 0.  0.
        -12    1    1    2    0    0 -0.12521522110E+01 -0.45671451838E+01  0.43141589806E+02  0.43400731230E+02  0.00000000000E+00 0.  1.
         11    1    3    3    0    0 -0.28353329519E+01  0.34038446527E+01 -0.13325305166E+02  0.14042401126E+02  0.51100000000E-03 0. -1.
        -11    1    3    3    0    0  0.62282624675E+01 -0.53023736046E+01 -0.21450733954E+02  0.22957360619E+02  0.51100000000E-03 0.  1.
        -12    1    3    3    0    0 -0.21407773047E+01  0.64656741356E+01 -0.83655506869E+01  0.10787507024E+02  0.00000000000E+00 0.  1.
</event>
<event>
 7    1  0.2110035E-010  0.4778726E+02  0.7816164E-02  0.1312668E+00
        -11   -1    0    0    0    0  0.00000000000E+00  0.00000000000E+00  0.45593999997E+02  0.45594000000E+02  0.51100000000E-03 0.  1.
         11   -1    0    0    0    0 -0.00000000000E+00 -0.00000000000E+00 -0.45593999997E+02  0.45594000000E+02  0.51100000000E-03 0. -1.
    9900012    2    1    2    0    0  0.22407366446E+02 -0.14775983114E+02 -0.34105779058E+02  0.47787263679E+02  0.19999966419E+02 0.  0.
        -12    1    1    2    0    0 -0.22407366446E+02  0.14775983114E+02  0.34105779058E+02  0.43400736321E+02  0.00000000000E+00 0.  1.
         11    1    3    3    0    0  0.13549223737E+00 -0.61973323082E+01 -0.35119943664E+01  0.71245624831E+01  0.51100000000E-03 0. -1.
        -11    1    3    3    0    0  0.53295966718E+01 -0.47313312958E+01 -0.23518467275E+01  0.75047504826E+01  0.51100000000E-03 0.  1.
        -12    1    3    3    0    0  0.16942277537E+02 -0.38473195103E+01 -0.28241937964E+02  0.33157950713E+02  0.00000000000E+00 0.  1.
</event>
<event>
 7    1  0.2110035E-010  0.4778727E+02  0.7816164E-02  0.1312668E+00
        -11   -1    0    0    0    0  0.00000000000E+00  0.00000000000E+00  0.45593999997E+02  0.45594000000E+02  0.51100000000E-03 0. -1.
         11   -1    0    0    0    0 -0.00000000000E+00 -0.00000000000E+00 -0.45593999997E+02  0.45594000000E+02  0.51100000000E-03 0.  1.
    9900012    2    1    2    0    0  0.29343632348E+02  0.26713424705E+00  0.31976604221E+02  0.47787270310E+02  0.19999996652E+02 0.  0.
        -12    1    1    2    0    0 -0.29343632348E+02 -0.26713424705E+00 -0.31976604221E+02  0.43400729690E+02  0.00000000000E+00 0.  1.
         11    1    3    3    0    0  0.40513026229E+01 -0.53207328080E+01  0.22971367075E+01  0.70710740253E+01  0.51100000000E-03 0.  1.
        -11    1    3    3    0    0  0.91773185176E+01  0.55118435692E+01  0.66306939888E+01  0.12592446059E+02  0.51100000000E-03 0. -1.
         12    1    3    3    0    0  0.16115011208E+02  0.76023485819E-01  0.23048773525E+02  0.28123750226E+02  0.00000000000E+00 0. -1.
</event>
<event>
 7    1  0.2110035E-010  0.4778729E+02  0.7816164E-02  0.1312668E+00
        -11   -1    0    0    0    0  0.00000000000E+00  0.00000000000E+00  0.45593999997E+02  0.45594000000E+02  0.51100000000E-03 0. -1.
         11   -1    0    0    0    0 -0.00000000000E+00 -0.00000000000E+00 -0.45593999997E+02  0.45594000000E+02  0.51100000000E-03 0.  1.
    9900012    2    1    2    0    0 -0.30233368104E+02  0.14533678724E+02  0.27537930095E+02  0.47787286203E+02  0.20000069116E+02 0.  0.
        -12    1    1    2    0    0  0.30233368104E+02 -0.14533678724E+02 -0.27537930095E+02  0.43400713797E+02  0.00000000000E+00 0.  1.
         11    1    3    3    0    0 -0.81068976983E+01  0.35910607281E+01  0.30369063919E+01  0.93723160498E+01  0.51100000000E-03 0. -1.
        -11    1    3    3    0    0 -0.16043175685E+01  0.67910077115E+01  0.12408549329E+02  0.14236000748E+02  0.51100000000E-03 0.  1.
        -12    1    3    3    0    0 -0.20522152837E+02  0.41516102843E+01  0.12092474374E+02  0.24178969405E+02  0.00000000000E+00 0.  1.
</event>
<event>
 7    1  0.2110035E-010  0.4778728E+02  0.7816164E-02  0.1312668E+00
        -11   -1    0    0    0    0  0.00000000000E+00  0.00000000000E+00  0.45593999997E+02  0.45594000000E+02  0.51100000000E-03 0. -1.
         11   -1    0    0    0    0 -0.00000000000E+00 -0.00000000000E+00 -0.45593999997E+02  0.45594000000E+02  0.51100000000E-03 0.  1.
    9900012    2    1    2    0    0  0.28742463003E+02  0.17744685537E+02  0.27251050880E+02  0.47787276293E+02  0.20000023930E+02 0.  0.
        -12    1    1    2    0    0 -0.28742463003E+02 -0.17744685537E+02 -0.27251050880E+02  0.43400723707E+02  0.00000000000E+00 0.  1.
         11    1    3    3    0    0  0.19772363065E+01  0.27981837904E+01  0.48205589092E+01  0.59141427439E+01  0.51100000000E-03 0. -1.
        -11    1    3    3    0    0  0.66232622018E+01  0.42228445427E+01 -0.23381320081E+01  0.81955402369E+01  0.51100000000E-03 0.  1.
         12    1    3    3    0    0  0.20141964494E+02  0.10723657203E+02  0.24768623978E+02  0.33677593312E+02  0.00000000000E+00 0. -1.
</event>
<event>
 7    1  0.2110035E-010  0.4778727E+02  0.7816164E-02  0.1312668E+00
        -11   -1    0    0    0    0  0.00000000000E+00  0.00000000000E+00  0.45593999997E+02  0.45594000000E+02  0.51100000000E-03 0.  1.
         11   -1    0    0    0    0 -0.00000000000E+00 -0.00000000000E+00 -0.45593999997E+02  0.45594000000E+02  0.51100000000E-03 0. -1.
    9900012    2    1    2    0    0  0.12788679612E+02  0.14287773755E+02 -0.38934979969E+02  0.47787268782E+02  0.19999989683E+02 0.  0.
        -12    1    1    2    0    0 -0.12788679612E+02 -0.14287773755E+02  0.38934979969E+02  0.43400731218E+02  0.00000000000E+00 0.  1.
         11    1    3    3    0    0 -0.12253099580E+01  0.30023493973E+01 -0.16207983137E+02  0.16529192480E+02  0.51100000000E-03 0. -1.
        -11    1    3    3    0    0  0.28538790521E+01  0.45345565577E+00  0.85127987943E+00  0.30124616794E+01  0.51100000000E-03 0.  1.
         12    1    3    3    0    0  0.11160110518E+02  0.10831968702E+02 -0.23578276711E+02  0.28245614622E+02  0.00000000000E+00 0. -1.
</event>
<event>
 7    1  0.2110035E-010  0.4778727E+02  0.7816164E-02  0.1312668E+00
        -11   -1    0    0    0    0  0.00000000000E+00  0.00000000000E+00  0.45593999997E+02  0.45594000000E+02  0.51100000000E-03 0.  1.
         11   -1    0    0    0    0 -0.00000000000E+00 -0.00000000000E+00 -0.45593999997E+02  0.45594000000E+02  0.51100000000E-03 0. -1.
    9900012    2    1    2    0    0 -0.97726454195E+01  0.87944385460E+01 -0.41361530609E+02  0.47787274636E+02  0.20000016373E+02 0.  0.
        -12    1    1    2    0    0  0.97726454195E+01 -0.87944385460E+01  0.41361530609E+02  0.43400725364E+02  0.00000000000E+00 0.  1.
         11    1    3    3    0    0 -0.30746557062E+01  0.44341140885E+01 -0.20113446530E+02  0.20824639422E+02  0.51100000000E-03 0. -1.
        -11    1    3    3    0    0 -0.56741398236E+01 -0.47618022967E+01 -0.99872942032E+01  0.12434495149E+02  0.51100000000E-03 0.  1.
        -12    1    3    3    0    0 -0.10238498897E+01  0.91221267542E+01 -0.11260789875E+02  0.14528140064E+02  0.00000000000E+00 0.  1.
</event>
<event>
 7    1  0.3443998E-010  0.4778727E+02  0.7816164E-02  0.1312668E+00
        -11   -1    0    0    0    0  0.00000000000E+00  0.00000000000E+00  0.45593999997E+02  0.45594000000E+02  0.51100000000E-03 0. -1.
         11   -1    0    0    0    0 -0.00000000000E+00 -0.00000000000E+00 -0.45593999997E+02  0.45594000000E+02  0.51100000000E-03 0.  1.
    9900012    2    1    2    0    0 -0.42934893567E+01 -0.31891477548E+02  0.29122553093E+02  0.47787268558E+02  0.19999988664E+02 0.  0.
        -12    1    1    2    0    0  0.42934893567E+01  0.31891477548E+02 -0.29122553093E+02  0.43400731442E+02  0.00000000000E+00 0.  1.
         11    1    3    3    0    0 -0.14562464584E+01 -0.94696946112E+01  0.11227455828E+02  0.14759794524E+02  0.51100000000E-03 0. -1.
        -11    1    3    3    0    0 -0.20220206974E+01 -0.11188857012E+02 -0.58585750659E+00  0.11385179762E+02  0.51100000000E-03 0.  1.
        -12    1    3    3    0    0 -0.81522220098E+00 -0.11232925925E+02  0.18480954772E+02  0.21642294272E+02  0.00000000000E+00 0.  1.
</event>
<event>
 7    1  0.2110035E-010  0.4778727E+02  0.7816164E-02  0.1312668E+00
        -11   -1    0    0    0    0  0.00000000000E+00  0.00000000000E+00  0.45593999997E+02  0.45594000000E+02  0.51100000000E-03 0.  1.
         11   -1    0    0    0    0 -0.00000000000E+00 -0.00000000000E+00 -0.45593999997E+02  0.45594000000E+02  0.51100000000E-03 0. -1.
    9900012    2    1    2    0    0 -0.25409883851E+01  0.71981558314E+00 -0.43320300401E+02  0.47787272088E+02  0.20000004760E+02 0.  0.
        -12    1    1    2    0    0  0.25409883851E+01 -0.71981558314E+00  0.43320300401E+02  0.43400727912E+02  0.00000000000E+00 0.  1.
         11    1    3    3    0    0 -0.26920250235E+01 -0.48015294894E+01 -0.14540107454E+02  0.15547231560E+02  0.51100000000E-03 0. -1.
        -11    1    3    3    0    0  0.50285007454E+01 -0.18240167492E+01 -0.14521546062E+02  0.15475404911E+02  0.51100000000E-03 0.  1.
         12    1    3    3    0    0 -0.48774641069E+01  0.73453618217E+01 -0.14258646885E+02  0.16764635618E+02  0.00000000000E+00 0. -1.
</event>
<event>
 7    1  0.2110035E-010  0.4778727E+02  0.7816164E-02  0.1312668E+00
        -11   -1    0    0    0    0  0.00000000000E+00  0.00000000000E+00  0.45593999997E+02  0.45594000000E+02  0.51100000000E-03 0.  1.
         11   -1    0    0    0    0 -0.00000000000E+00 -0.00000000000E+00 -0.45593999997E+02  0.45594000000E+02  0.51100000000E-03 0. -1.
    9900012    2    1    2    0    0  0.33057248510E+01  0.20102669988E+02 -0.38322035224E+02  0.47787267965E+02  0.19999985961E+02 0.  0.
        -12    1    1    2    0    0 -0.33057248510E+01 -0.20102669988E+02  0.38322035224E+02  0.43400732035E+02  0.00000000000E+00 0.  1.
         11    1    3    3    0    0 -0.11881855681E+01  0.12956928118E+02 -0.15314189332E+02  0.20095227452E+02  0.51100000000E-03 0. -1.
        -11    1    3    3    0    0  0.35920064517E+01  0.23434744752E+00  0.53883989875E-01  0.36000462248E+01  0.51100000000E-03 0.  1.
         12    1    3    3    0    0  0.90190396740E+00  0.69113944225E+01 -0.23061729882E+02  0.24091994288E+02  0.00000000000E+00 0. -1.
</event>
<event>
 7    1  0.2110035E-010  0.4778727E+02  0.7816164E-02  0.1312668E+00
        -11   -1    0    0    0    0  0.00000000000E+00  0.00000000000E+00  0.45593999997E+02  0.45594000000E+02  0.51100000000E-03 0.  1.
         11   -1    0    0    0    0 -0.00000000000E+00 -0.00000000000E+00 -0.45593999997E+02  0.45594000000E+02  0.51100000000E-03 0. -1.
    9900012    2    1    2    0    0  0.40562998472E+01 -0.19828562901E+02 -0.38392681373E+02  0.47787268921E+02  0.19999990318E+02 0.  0.
        -12    1    1    2    0    0 -0.40562998472E+01  0.19828562901E+02  0.38392681373E+02  0.43400731079E+02  0.00000000000E+00 0.  1.
         11    1    3    3    0    0 -0.59901706120E-01 -0.50845274998E+00 -0.12068674391E+02  0.12079528726E+02  0.51100000000E-03 0. -1.
        -11    1    3    3    0    0  0.73387057389E+01 -0.16437130954E+02 -0.25643083641E+02  0.31330554013E+02  0.51100000000E-03 0.  1.
        -12    1    3    3    0    0 -0.32225041856E+01 -0.28829791969E+01 -0.68092334171E+00  0.43771861822E+01  0.00000000000E+00 0.  1.
</event>
<event>
 7    1  0.2110035E-010  0.4778727E+02  0.7816164E-02  0.1312668E+00
        -11   -1    0    0    0    0  0.00000000000E+00  0.00000000000E+00  0.45593999997E+02  0.45594000000E+02  0.51100000000E-03 0. -1.
         11   -1    0    0    0    0 -0.00000000000E+00 -0.00000000000E+00 -0.45593999997E+02  0.45594000000E+02  0.51100000000E-03 0.  1.
    9900012    2    1    2    0    0  0.40328041331E+02  0.13673471626E+02  0.83850235169E+01  0.47787270014E+02  0.19999995303E+02 0.  0.
        -12    1    1    2    0    0 -0.40328041331E+02 -0.13673471626E+02 -0.83850235169E+01  0.43400729986E+02  0.00000000000E+00 0.  1.
         11    1    3    3    0    0  0.18603473200E+02  0.64699547404E+01  0.65587128620E+01  0.20759726495E+02  0.51100000000E-03 0. -1.
        -11    1    3    3    0    0 -0.12341784053E+00  0.41619589557E+01  0.26810784638E+01  0.49523041407E+01  0.51100000000E-03 0.  1.
         12    1    3    3    0    0  0.21847985971E+02  0.30415579301E+01 -0.85476780890E+00  0.22075239379E+02  0.00000000000E+00 0. -1.
</event>
<event>
 7    1  0.2110035E-010  0.4778727E+02  0.7816164E-02  0.1312668E+00
        -11   -1    0    0    0    0  0.00000000000E+00  0.00000000000E+00  0.45593999997E+02  0.45594000000E+02  0.51100000000E-03 0.  1.
         11   -1    0    0    0    0 -0.00000000000E+00 -0.00000000000E+00 -0.45593999997E+02  0.45594000000E+02  0.51100000000E-03 0. -1.
    9900012    2    1    2    0    0 -0.31437164809E+02  0.29888241591E+02  0.14217705438E+01  0.47787265581E+02  0.19999975092E+02 0.  0.
        -12    1    1    2    0    0  0.31437164809E+02 -0.29888241591E+02 -0.14217705438E+01  0.43400734419E+02  0.00000000000E+00 0.  1.
         11    1    3    3    0    0 -0.32068092445E+02  0.22682212243E+02 -0.16250768260E+01  0.39312672006E+02  0.51100000000E-03 0. -1.
        -11    1    3    3    0    0  0.88588802711E+00  0.22042541904E+01 -0.38046279036E+00  0.24058857679E+01  0.51100000000E-03 0.  1.
         12    1    3    3    0    0 -0.25496039139E+00  0.50017751573E+01  0.34273101601E+01  0.60687078080E+01  0.00000000000E+00 0. -1.
</event>
<event>
 7    1  0.2110035E-010  0.4778727E+02  0.7816164E-02  0.1312668E+00
        -11   -1    0    0    0    0  0.00000000000E+00  0.00000000000E+00  0.45593999997E+02  0.45594000000E+02  0.51100000000E-03 0. -1.
         11   -1    0    0    0    0 -0.00000000000E+00 -0.00000000000E+00 -0.45593999997E+02  0.45594000000E+02  0.51100000000E-03 0.  1.
    9900012    2    1    2    0    0 -0.22890392466E+02 -0.34983945598E+02 -0.11652323198E+02  0.47787272439E+02  0.20000006360E+02 0.  0.
        -12    1    1    2    0    0  0.22890392466E+02  0.34983945598E+02  0.11652323198E+02  0.43400727561E+02  0.00000000000E+00 0.  1.
         11    1    3    3    0    0 -0.10652450251E+02 -0.13261112038E+02 -0.64543745159E+01  0.18193150895E+02  0.51100000000E-03 0. -1.
        -11    1    3    3    0    0 -0.80590767927E+01 -0.54173240609E+01 -0.79352647866E+01  0.12540516187E+02  0.51100000000E-03 0.  1.
         12    1    3    3    0    0 -0.41788654227E+01 -0.16305509499E+02  0.27373161041E+01  0.17053605358E+02  0.00000000000E+00 0. -1.
</event>
<event>
 7    1  0.2110035E-010  0.4778727E+02  0.7816164E-02  0.1312668E+00
        -11   -1    0    0    0    0  0.00000000000E+00  0.00000000000E+00  0.45593999997E+02  0.45594000000E+02  0.51100000000E-03 0.  1.
         11   -1    0    0    0    0 -0.00000000000E+00 -0.00000000000E+00 -0.45593999997E+02  0.45594000000E+02  0.51100000000E-03 0. -1.
    9900012    2    1    2    0    0 -0.23285902606E+02  0.36098556268E+02  0.61874314973E+01  0.47787270360E+02  0.19999996879E+02 0.  0.
        -12    1    1    2    0    0  0.23285902606E+02 -0.36098556268E+02 -0.61874314973E+01  0.43400729640E+02  0.00000000000E+00 0.  1.
         11    1    3    3    0    0  0.80179675380E+00  0.91015805658E-01 -0.14486156668E+01  0.16582067189E+01  0.51100000000E-03 0.  1.
        -11    1    3    3    0    0 -0.19891988775E+02  0.33009052057E+02  0.21495383795E+01  0.38599342619E+02  0.51100000000E-03 0. -1.
        -12    1    3    3    0    0 -0.41957105842E+01  0.29984884048E+01  0.54865087847E+01  0.75297210217E+01  0.00000000000E+00 0.  1.
</event>
<event>
 7    1  0.2110035E-010  0.4778727E+02  0.7816164E-02  0.1312668E+00
        -11   -1    0    0    0    0  0.00000000000E+00  0.00000000000E+00  0.45593999997E+02  0.45594000000E+02  0.51100000000E-03 0.  1.
         11   -1    0    0    0    0 -0.00000000000E+00 -0.00000000000E+00 -0.45593999997E+02  0.45594000000E+02  0.51100000000E-03 0. -1.
    9900012    2    1    2    0    0  0.22293560678E+02  0.33694831130E+02  0.15851770771E+02  0.47787272711E+02  0.20000007599E+02 0.  0.
        -12    1    1    2    0    0 -0.22293560678E+02 -0.33694831130E+02 -0.15851770771E+02  0.43400727289E+02  0.00000000000E+00 0.  1.
         11    1    3    3    0    0  0.10205636672E+02  0.28893008421E+02  0.13341936702E+02  0.33421074649E+02  0.51100000000E-03 0.  1.
        -11    1    3    3    0    0  0.67666755273E+01  0.54866410424E+01  0.86397195609E+00  0.87542889730E+01  0.51100000000E-03 0. -1.
        -12    1    3    3    0    0  0.53212484795E+01 -0.68481833295E+00  0.16458621135E+01  0.56119090893E+01  0.00000000000E+00 0.  1.
</event>
<event>
 7    1  0.2110035E-010  0.4778728E+02  0.7816164E-02  0.1312668E+00
        -11   -1    0    0    0    0  0.00000000000E+00  0.00000000000E+00  0.45593999997E+02  0.45594000000E+02  0.51100000000E-03 0. -1.
         11   -1    0    0    0    0 -0.00000000000E+00 -0.00000000000E+00 -0.45593999997E+02  0.45594000000E+02  0.51100000000E-03 0.  1.
    9900012    2    1    2    0    0 -0.25512130922E+01  0.16172857697E+02  0.40193936479E+02  0.47787279453E+02  0.20000038337E+02 0.  0.
        -12    1    1    2    0    0  0.25512130922E+01 -0.16172857697E+02 -0.40193936479E+02  0.43400720547E+02  0.00000000000E+00 0.  1.
         11    1    3    3    0    0  0.12776315766E+00  0.50066314227E+01  0.31596533121E+02  0.31990992281E+02  0.51100000000E-03 0. -1.
        -11    1    3    3    0    0  0.18162043322E+01  0.22101081350E+01  0.48105484681E+00  0.29007913009E+01  0.51100000000E-03 0.  1.
         12    1    3    3    0    0 -0.44951805821E+01  0.89561181388E+01  0.81163485117E+01  0.12895495870E+02  0.00000000000E+00 0. -1.
</event>
<event>
 7    1  0.2110035E-010  0.4778727E+02  0.7816164E-02  0.1312668E+00
        -11   -1    0    0    0    0  0.00000000000E+00  0.00000000000E+00  0.45593999997E+02  0.45594000000E+02  0.51100000000E-03 0.  1.
         11   -1    0    0    0    0 -0.00000000000E+00 -0.00000000000E+00 -0.45593999997E+02  0.45594000000E+02  0.51100000000E-03 0. -1.
    9900012    2    1    2    0    0  0.58895882985E+01 -0.14086372621E+01 -0.42976181386E+02  0.47787266414E+02  0.19999978890E+02 0.  0.
        -12    1    1    2    0    0 -0.58895882985E+01  0.14086372621E+01  0.42976181386E+02  0.43400733586E+02  0.00000000000E+00 0.  1.
         11    1    3    3    0    0 -0.17567856715E+01 -0.30869531544E+01 -0.82828903320E+01  0.90123164718E+01  0.51100000000E-03 0. -1.
        -11    1    3    3    0    0 -0.15774029985E+01 -0.49758348783E+01 -0.16623412999E+02  0.17423690566E+02  0.51100000000E-03 0.  1.
        -12    1    3    3    0    0  0.92237769685E+01  0.66541507706E+01 -0.18069878055E+02  0.21351259377E+02  0.00000000000E+00 0.  1.
</event>
<event>
 7    1  0.2110035E-010  0.4778726E+02  0.7816164E-02  0.1312668E+00
        -11   -1    0    0    0    0  0.00000000000E+00  0.00000000000E+00  0.45593999997E+02  0.45594000000E+02  0.51100000000E-03 0.  1.
         11   -1    0    0    0    0 -0.00000000000E+00 -0.00000000000E+00 -0.45593999997E+02  0.45594000000E+02  0.51100000000E-03 0. -1.
    9900012    2    1    2    0    0  0.39608748278E+02  0.16589466725E+02  0.62897406953E+01  0.47787260554E+02  0.19999952172E+02 0.  0.
        -12    1    1    2    0    0 -0.39608748278E+02 -0.16589466725E+02 -0.62897406953E+01  0.43400739446E+02  0.00000000000E+00 0.  1.
         11    1    3    3    0    0  0.38430551647E+01  0.67019306899E+01  0.22736016150E+01  0.80532113182E+01  0.51100000000E-03 0. -1.
        -11    1    3    3    0    0  0.31629291131E+01  0.28109248747E+01 -0.35517523080E+01  0.55245238658E+01  0.51100000000E-03 0.  1.
         12    1    3    3    0    0  0.32602764001E+02  0.70766111607E+01  0.75678913882E+01  0.34209525370E+02  0.00000000000E+00 0. -1.
</event>
<event>
 7    1  0.2110035E-010  0.4778727E+02  0.7816164E-02  0.1312668E+00
        -11   -1    0    0    0    0  0.00000000000E+00  0.00000000000E+00  0.45593999997E+02  0.45594000000E+02  0.51100000000E-03 0.  1.
         11   -1    0    0    0    0 -0.00000000000E+00 -0.00000000000E+00 -0.45593999997E+02  0.45594000000E+02  0.51100000000E-03 0. -1.
    9900012    2    1    2    0    0  0.79785436594E+01  0.81988283566E+01 -0.41865800483E+02  0.47787271948E+02  0.20000004120E+02 0.  0.
        -12    1    1    2    0    0 -0.79785436594E+01 -0.81988283566E+01  0.41865800483E+02  0.43400728052E+02  0.00000000000E+00 0.  1.
         11    1    3    3    0    0  0.56769192032E+01  0.85525282811E+01 -0.78577174254E+01  0.12927369223E+02  0.51100000000E-03 0. -1.
        -11    1    3    3    0    0 -0.15433753459E+01 -0.24750363639E+01 -0.87619629033E+01  0.92347066354E+01  0.51100000000E-03 0.  1.
         12    1    3    3    0    0  0.38449998021E+01  0.21213364393E+01 -0.25246120154E+02  0.25625196089E+02  0.00000000000E+00 0. -1.
</event>
<event>
 7    1  0.2110035E-010  0.4778726E+02  0.7816164E-02  0.1312668E+00
        -11   -1    0    0    0    0  0.00000000000E+00  0.00000000000E+00  0.45593999997E+02  0.45594000000E+02  0.51100000000E-03 0. -1.
         11   -1    0    0    0    0 -0.00000000000E+00 -0.00000000000E+00 -0.45593999997E+02  0.45594000000E+02  0.51100000000E-03 0.  1.
    9900012    2    1    2    0    0 -0.36739840644E+02 -0.22991332617E+02  0.22817852487E+01  0.47787264868E+02  0.19999971840E+02 0.  0.
        -12    1    1    2    0    0  0.36739840644E+02  0.22991332617E+02 -0.22817852487E+01  0.43400735132E+02  0.00000000000E+00 0.  1.
         11    1    3    3    0    0  0.59124181405E+00  0.83062302033E+00 -0.96289525027E-02  0.10196050522E+01  0.51100000000E-03 0. -1.
        -11    1    3    3    0    0 -0.23460657828E+02 -0.62203637195E+01  0.20324893387E+01  0.24356239523E+02  0.51100000000E-03 0.  1.
        -12    1    3    3    0    0 -0.13870424631E+02 -0.17601591918E+02  0.25892486248E+00  0.22411420293E+02  0.00000000000E+00 0.  1.
</event>
<event>
 7    1  0.2110035E-010  0.4778729E+02  0.7816164E-02  0.1312668E+00
        -11   -1    0    0    0    0  0.00000000000E+00  0.00000000000E+00  0.45593999997E+02  0.45594000000E+02  0.51100000000E-03 0. -1.
         11   -1    0    0    0    0 -0.00000000000E+00 -0.00000000000E+00 -0.45593999997E+02  0.45594000000E+02  0.51100000000E-03 0.  1.
    9900012    2    1    2    0    0 -0.29131719860E+02 -0.19483289112E+02  0.25600112137E+02  0.47787292655E+02  0.20000098532E+02 0.  0.
        -12    1    1    2    0    0  0.29131719860E+02  0.19483289112E+02 -0.25600112137E+02  0.43400707345E+02  0.00000000000E+00 0.  1.
         11    1    3    3    0    0  0.54210217831E+00 -0.28647798915E+00 -0.20058217388E+00  0.64511850043E+00  0.51100000000E-03 0. -1.
        -11    1    3    3    0    0 -0.11660579793E+01 -0.90980987159E+01  0.51317517154E+01  0.10510469418E+02  0.51100000000E-03 0.  1.
         12    1    3    3    0    0 -0.28507764059E+02 -0.10098712407E+02  0.20668942595E+02  0.36631704737E+02  0.00000000000E+00 0. -1.
</event>
<event>
 7    1  0.2110035E-010  0.4778727E+02  0.7816164E-02  0.1312668E+00
        -11   -1    0    0    0    0  0.00000000000E+00  0.00000000000E+00  0.45593999997E+02  0.45594000000E+02  0.51100000000E-03 0.  1.
         11   -1    0    0    0    0 -0.00000000000E+00 -0.00000000000E+00 -0.45593999997E+02  0.45594000000E+02  0.51100000000E-03 0. -1.
    9900012    2    1    2    0    0  0.14956837545E+02 -0.15391010981E+02 -0.37723112010E+02  0.47787269729E+02  0.19999994002E+02 0.  0.
        -12    1    1    2    0    0 -0.14956837545E+02  0.15391010981E+02  0.37723112010E+02  0.43400730271E+02  0.00000000000E+00 0.  1.
         11    1    3    3    0    0  0.42184447500E+01 -0.10030258844E+02 -0.26590605728E+02  0.28730848957E+02  0.51100000000E-03 0. -1.
        -11    1    3    3    0    0  0.60706919980E+01 -0.66690543584E+01 -0.10976811143E+02  0.14206335576E+02  0.51100000000E-03 0.  1.
        -12    1    3    3    0    0  0.46677007969E+01  0.13083022208E+01 -0.15569513961E+00  0.48500851958E+01  0.00000000000E+00 0.  1.
</event>
<event>
 7    1  0.2110035E-010  0.4778727E+02  0.7816164E-02  0.1312668E+00
        -11   -1    0    0    0    0  0.00000000000E+00  0.00000000000E+00  0.45593999997E+02  0.45594000000E+02  0.51100000000E-03 0.  1.
         11   -1    0    0    0    0 -0.00000000000E+00 -0.00000000000E+00 -0.45593999997E+02  0.45594000000E+02  0.51100000000E-03 0. -1.
    9900012    2    1    2    0    0  0.26077251779E+02 -0.25788141533E+02 -0.23207154688E+02  0.47787270366E+02  0.19999996906E+02 0.  0.
        -12    1    1    2    0    0 -0.26077251779E+02  0.25788141533E+02  0.23207154688E+02  0.43400729634E+02  0.00000000000E+00 0.  1.
         11    1    3    3    0    0  0.57193296012E+01 -0.14543685926E+02 -0.84955608415E+01  0.17787751001E+02  0.51100000000E-03 0. -1.
        -11    1    3    3    0    0  0.60214726106E+01 -0.96138160055E+01 -0.39970089619E+01  0.12027454905E+02  0.51100000000E-03 0.  1.
        -12    1    3    3    0    0  0.14336449567E+02 -0.16306396017E+01 -0.10714584885E+02  0.17972064460E+02  0.00000000000E+00 0.  1.
</event>
<event>
 7    1  0.2110035E-010  0.4778727E+02  0.7816164E-02  0.1312668E+00
        -11   -1    0    0    0    0  0.00000000000E+00  0.00000000000E+00  0.45593999997E+02  0.45594000000E+02  0.51100000000E-03 0.  1.
         11   -1    0    0    0    0 -0.00000000000E+00 -0.00000000000E+00 -0.45593999997E+02  0.45594000000E+02  0.51100000000E-03 0. -1.
    9900012    2    1    2    0    0 -0.21510440466E+02  0.16363676350E+02 -0.33958128217E+02  0.47787269306E+02  0.19999992075E+02 0.  0.
        -12    1    1    2    0    0  0.21510440466E+02 -0.16363676350E+02  0.33958128217E+02  0.43400730694E+02  0.00000000000E+00 0.  1.
         11    1    3    3    0    0 -0.38180367886E+01  0.56060916592E+01 -0.58163691930E+01  0.89350892252E+01  0.51100000000E-03 0.  1.
        -11    1    3    3    0    0 -0.95871643385E+01 -0.32888283168E+01 -0.75360563749E+01  0.12630212100E+02  0.51100000000E-03 0. -1.
         12    1    3    3    0    0 -0.81052393391E+01  0.14046413008E+02 -0.20605702649E+02  0.26221967981E+02  0.00000000000E+00 0. -1.
</event>
<event>
 7    1  0.2110035E-010  0.4778726E+02  0.7816164E-02  0.1312668E+00
        -11   -1    0    0    0    0  0.00000000000E+00  0.00000000000E+00  0.45593999997E+02  0.45594000000E+02  0.51100000000E-03 0.  1.
         11   -1    0    0    0    0 -0.00000000000E+00 -0.00000000000E+00 -0.45593999997E+02  0.45594000000E+02  0.51100000000E-03 0. -1.
    9900012    2    1    2    0    0 -0.22567126389E+02  0.36992593719E+02 -0.24282980826E+01  0.47787264809E+02  0.19999971572E+02 0.  0.
        -12    1    1    2    0    0  0.22567126389E+02 -0.36992593719E+02  0.24282980826E+01  0.43400735191E+02  0.00000000000E+00 0.  1.
         11    1    3    3    0    0 -0.21242099526E+02  0.29322808261E+02 -0.40271964832E+01  0.36431746985E+02  0.51100000000E-03 0. -1.
        -11    1    3    3    0    0  0.13501687944E+01  0.24676835937E+01 -0.28514590746E+01  0.40054010045E+01  0.51100000000E-03 0.  1.
        -12    1    3    3    0    0 -0.26751956574E+01  0.52021018640E+01  0.44503574752E+01  0.73501168199E+01  0.00000000000E+00 0.  1.
</event>
<event>
 7    1  0.2110035E-010  0.4778727E+02  0.7816164E-02  0.1312668E+00
        -11   -1    0    0    0    0  0.00000000000E+00  0.00000000000E+00  0.45593999997E+02  0.45594000000E+02  0.51100000000E-03 0. -1.
         11   -1    0    0    0    0 -0.00000000000E+00 -0.00000000000E+00 -0.45593999997E+02  0.45594000000E+02  0.51100000000E-03 0.  1.
    9900012    2    1    2    0    0  0.63363880621E+01 -0.19061531224E+01  0.42893358942E+02  0.47787268731E+02  0.19999989452E+02 0.  0.
        -12    1    1    2    0    0 -0.63363880621E+01  0.19061531224E+01 -0.42893358942E+02  0.43400731269E+02  0.00000000000E+00 0.  1.
         11    1    3    3    0    0 -0.36170319385E+01  0.23894394307E+01  0.12498796443E+02  0.13229219691E+02  0.51100000000E-03 0. -1.
        -11    1    3    3    0    0  0.40904302138E+01 -0.66489891146E+01  0.25192398659E+02  0.26374184841E+02  0.51100000000E-03 0.  1.
        -12    1    3    3    0    0  0.58629897868E+01  0.23533965616E+01  0.52021638396E+01  0.81838641991E+01  0.00000000000E+00 0.  1.
</event>
<event>
 7    1  0.2110035E-010  0.4778727E+02  0.7816164E-02  0.1312668E+00
        -11   -1    0    0    0    0  0.00000000000E+00  0.00000000000E+00  0.45593999997E+02  0.45594000000E+02  0.51100000000E-03 0.  1.
         11   -1    0    0    0    0 -0.00000000000E+00 -0.00000000000E+00 -0.45593999997E+02  0.45594000000E+02  0.51100000000E-03 0. -1.
    9900012    2    1    2    0    0  0.39812437609E+02 -0.13761123434E+01 -0.17224962580E+02  0.47787271787E+02  0.20000003386E+02 0.  0.
        -12    1    1    2    0    0 -0.39812437609E+02  0.13761123434E+01  0.17224962580E+02  0.43400728213E+02  0.00000000000E+00 0.  1.
         11    1    3    3    0    0  0.20166782443E+02 -0.63345348409E+01 -0.47907441792E+01  0.21674332188E+02  0.51100000000E-03 0. -1.
        -11    1    3    3    0    0  0.18136167385E+01  0.35366076598E+01  0.54503272413E+00  0.40117153868E+01  0.51100000000E-03 0.  1.
         12    1    3    3    0    0  0.17832038427E+02  0.14218148377E+01 -0.12979251125E+02  0.22101224212E+02  0.00000000000E+00 0. -1.
</event>
<event>
 7    1  0.2110035E-010  0.4778727E+02  0.7816164E-02  0.1312668E+00
        -11   -1    0    0    0    0  0.00000000000E+00  0.00000000000E+00  0.45593999997E+02  0.45594000000E+02  0.51100000000E-03 0.  1.
         11   -1    0    0    0    0 -0.00000000000E+00 -0.00000000000E+00 -0.45593999997E+02  0.45594000000E+02  0.51100000000E-03 0. -1.
    9900012    2    1    2    0    0 -0.17771551308E+02  0.19928144251E+02 -0.34214975751E+02  0.47787268039E+02  0.19999986295E+02 0.  0.
        -12    1    1    2    0    0  0.17771551308E+02 -0.19928144251E+02  0.34214975751E+02  0.43400731961E+02  0.00000000000E+00 0.  1.
         11    1    3    3    0    0 -0.70519832507E+01  0.45237472712E+01 -0.11868614060E+02  0.14527861409E+02  0.51100000000E-03 0. -1.
        -11    1    3    3    0    0 -0.65295924615E+00  0.14186494558E+02 -0.15512976923E+02  0.21031772082E+02  0.51100000000E-03 0.  1.
        -12    1    3    3    0    0 -0.10066608811E+02  0.12179024215E+01 -0.68333847669E+01  0.12227634548E+02  0.00000000000E+00 0.  1.
</event>
<event>
 7    1  0.2110035E-010  0.4778727E+02  0.7816164E-02  0.1312668E+00
        -11   -1    0    0    0    0  0.00000000000E+00  0.00000000000E+00  0.45593999997E+02  0.45594000000E+02  0.51100000000E-03 0.  1.
         11   -1    0    0    0    0 -0.00000000000E+00 -0.00000000000E+00 -0.45593999997E+02  0.45594000000E+02  0.51100000000E-03 0. -1.
    9900012    2    1    2    0    0  0.13896204292E+02 -0.22545503261E+02 -0.34383418035E+02  0.47787266748E+02  0.19999980410E+02 0.  0.
        -12    1    1    2    0    0 -0.13896204292E+02  0.22545503261E+02  0.34383418035E+02  0.43400733252E+02  0.00000000000E+00 0.  1.
         11    1    3    3    0    0  0.17141637524E+02 -0.18656406919E+02 -0.27512767780E+02  0.37401198474E+02  0.51100000000E-03 0. -1.
        -11    1    3    3    0    0 -0.25491184773E+01 -0.23931060076E+01 -0.18665311511E+00  0.35013998660E+01  0.51100000000E-03 0.  1.
         12    1    3    3    0    0 -0.69631475433E+00 -0.14959903350E+01 -0.66839971397E+01  0.68846684076E+01  0.00000000000E+00 0. -1.
</event>
<event>
 7    1  0.2110035E-010  0.4778727E+02  0.7816164E-02  0.1312668E+00
        -11   -1    0    0    0    0  0.00000000000E+00  0.00000000000E+00  0.45593999997E+02  0.45594000000E+02  0.51100000000E-03 0.  1.
         11   -1    0    0    0    0 -0.00000000000E+00 -0.00000000000E+00 -0.45593999997E+02  0.45594000000E+02  0.51100000000E-03 0. -1.
    9900012    2    1    2    0    0 -0.10330314433E+02  0.97198847568E+01 -0.41017455159E+02  0.47787272083E+02  0.20000004736E+02 0.  0.
        -12    1    1    2    0    0  0.10330314433E+02 -0.97198847568E+01  0.41017455159E+02  0.43400727917E+02  0.00000000000E+00 0.  1.
         11    1    3    3    0    0 -0.79833401113E+01  0.86757071484E+01 -0.30998856876E+02  0.33165203779E+02  0.51100000000E-03 0. -1.
        -11    1    3    3    0    0  0.38611695437E+01  0.10623855470E+01 -0.60448680346E+01  0.72510497938E+01  0.51100000000E-03 0.  1.
         12    1    3    3    0    0 -0.62081438655E+01 -0.18207938577E-01 -0.39737302490E+01  0.73710185100E+01  0.00000000000E+00 0. -1.
</event>
<event>
 7    1  0.2110035E-010  0.4778727E+02  0.7816164E-02  0.1312668E+00
        -11   -1    0    0    0    0  0.00000000000E+00  0.00000000000E+00  0.45593999997E+02  0.45594000000E+02  0.51100000000E-03 0.  1.
         11   -1    0    0    0    0 -0.00000000000E+00 -0.00000000000E+00 -0.45593999997E+02  0.45594000000E+02  0.51100000000E-03 0. -1.
    9900012    2    1    2    0    0 -0.29648162731E+02  0.49929285654E+01 -0.31299848527E+02  0.47787269513E+02  0.19999993016E+02 0.  0.
        -12    1    1    2    0    0  0.29648162731E+02 -0.49929285654E+01  0.31299848527E+02  0.43400730487E+02  0.00000000000E+00 0.  1.
         11    1    3    3    0    0 -0.15161611246E+02  0.95977195721E+01 -0.84823427662E+01  0.19847942352E+02  0.51100000000E-03 0. -1.
        -11    1    3    3    0    0 -0.25921250018E+01 -0.43279752346E-01 -0.79424159206E+01  0.83548163402E+01  0.51100000000E-03 0.  1.
         12    1    3    3    0    0 -0.11894426484E+02 -0.45615112544E+01 -0.14875089840E+02  0.19584510820E+02  0.00000000000E+00 0. -1.
</event>
<event>
 7    1  0.2110035E-010  0.4778727E+02  0.7816164E-02  0.1312668E+00
        -11   -1    0    0    0    0  0.00000000000E+00  0.00000000000E+00  0.45593999997E+02  0.45594000000E+02  0.51100000000E-03 0.  1.
         11   -1    0    0    0    0 -0.00000000000E+00 -0.00000000000E+00 -0.45593999997E+02  0.45594000000E+02  0.51100000000E-03 0. -1.
    9900012    2    1    2    0    0  0.53789360858E+01  0.34901207720E+02  0.25230850252E+02  0.47787273530E+02  0.20000011332E+02 0.  0.
        -12    1    1    2    0    0 -0.53789360858E+01 -0.34901207720E+02 -0.25230850252E+02  0.43400726470E+02  0.00000000000E+00 0.  1.
         11    1    3    3    0    0 -0.12547964229E+00  0.22825393290E+02  0.19717730080E+02  0.30162944215E+02  0.51100000000E-03 0. -1.
        -11    1    3    3    0    0 -0.23571629309E+01  0.34803935534E-01  0.87689206376E+00  0.25152272958E+01  0.51100000000E-03 0.  1.
         12    1    3    3    0    0  0.78615786590E+01  0.12041010494E+02  0.46362281081E+01  0.15109102019E+02  0.00000000000E+00 0. -1.
</event>
<event>
 7    1  0.3386872E-010  0.4778727E+02  0.7816164E-02  0.1312668E+00
        -11   -1    0    0    0    0  0.00000000000E+00  0.00000000000E+00  0.45593999997E+02  0.45594000000E+02  0.51100000000E-03 0.  1.
         11   -1    0    0    0    0 -0.00000000000E+00 -0.00000000000E+00 -0.45593999997E+02  0.45594000000E+02  0.51100000000E-03 0. -1.
    9900012    2    1    2    0    0  0.25615761197E+02  0.57297479649E+01 -0.34563363826E+02  0.47787270140E+02  0.19999995875E+02 0.  0.
        -12    1    1    2    0    0 -0.25615761197E+02 -0.57297479649E+01  0.34563363826E+02  0.43400729860E+02  0.00000000000E+00 0.  1.
         11    1    3    3    0    0  0.12023928922E+02  0.77340836008E+00 -0.15979614975E+02  0.20013023815E+02  0.51100000000E-03 0. -1.
        -11    1    3    3    0    0  0.86642628123E+01  0.93993641233E+01 -0.74009508384E+01  0.14771309000E+02  0.51100000000E-03 0.  1.
        -12    1    3    3    0    0  0.49275694628E+01 -0.44430245185E+01 -0.11182798012E+02  0.13002937325E+02  0.00000000000E+00 0.  1.
</event>
<event>
 7    1  0.2110035E-010  0.4778727E+02  0.7816164E-02  0.1312668E+00
        -11   -1    0    0    0    0  0.00000000000E+00  0.00000000000E+00  0.45593999997E+02  0.45594000000E+02  0.51100000000E-03 0.  1.
         11   -1    0    0    0    0 -0.00000000000E+00 -0.00000000000E+00 -0.45593999997E+02  0.45594000000E+02  0.51100000000E-03 0. -1.
    9900012    2    1    2    0    0 -0.19576911475E+02 -0.22019270358E+02 -0.31867212256E+02  0.47787274811E+02  0.20000017172E+02 0.  0.
        -12    1    1    2    0    0  0.19576911475E+02  0.22019270358E+02  0.31867212256E+02  0.43400725189E+02  0.00000000000E+00 0.  1.
         11    1    3    3    0    0 -0.14334972075E+02 -0.15199226977E+02 -0.30941490178E+02  0.37334752440E+02  0.51100000000E-03 0. -1.
        -11    1    3    3    0    0 -0.53085935219E+01 -0.24282466095E+01 -0.14883146672E+01  0.60243362777E+01  0.51100000000E-03 0.  1.
         12    1    3    3    0    0  0.66654122434E-01 -0.43917967713E+01  0.56259258868E+00  0.44281860929E+01  0.00000000000E+00 0. -1.
</event>
<event>
 7    1  0.2110035E-010  0.4778727E+02  0.7816164E-02  0.1312668E+00
        -11   -1    0    0    0    0  0.00000000000E+00  0.00000000000E+00  0.45593999997E+02  0.45594000000E+02  0.51100000000E-03 0.  1.
         11   -1    0    0    0    0 -0.00000000000E+00 -0.00000000000E+00 -0.45593999997E+02  0.45594000000E+02  0.51100000000E-03 0. -1.
    9900012    2    1    2    0    0  0.33354487960E+02  0.71911468292E+01 -0.26821424223E+02  0.47787271237E+02  0.20000000878E+02 0.  0.
        -12    1    1    2    0    0 -0.33354487960E+02 -0.71911468292E+01  0.26821424223E+02  0.43400728763E+02  0.00000000000E+00 0.  1.
         11    1    3    3    0    0 -0.16125317526E+00 -0.85685286723E+00 -0.50160885669E+01  0.50913008352E+01  0.51100000000E-03 0. -1.
        -11    1    3    3    0    0  0.69367489514E+01  0.72912035798E+01 -0.49643594677E+01  0.11221630935E+02  0.51100000000E-03 0.  1.
        -12    1    3    3    0    0  0.26578992184E+02  0.75679611661E+00 -0.16840976189E+02  0.31474339467E+02  0.00000000000E+00 0.  1.
</event>
<event>
 7    1  0.2110035E-010  0.4778727E+02  0.7816164E-02  0.1312668E+00
        -11   -1    0    0    0    0  0.00000000000E+00  0.00000000000E+00  0.45593999997E+02  0.45594000000E+02  0.51100000000E-03 0. -1.
         11   -1    0    0    0    0 -0.00000000000E+00 -0.00000000000E+00 -0.45593999997E+02  0.45594000000E+02  0.51100000000E-03 0.  1.
    9900012    2    1    2    0    0 -0.40565975307E+02  0.13049403148E+02  0.82303032923E+01  0.47787272271E+02  0.20000005591E+02 0.  0.
        -12    1    1    2    0    0  0.40565975307E+02 -0.13049403148E+02 -0.82303032923E+01  0.43400727729E+02  0.00000000000E+00 0.  1.
         11    1    3    3    0    0 -0.62384717086E+01 -0.14431066807E+01 -0.14036801200E+01  0.65552577593E+01  0.51100000000E-03 0. -1.
        -11    1    3    3    0    0 -0.15876521953E+02  0.63288335529E+01  0.12049041710E+02  0.20911659185E+02  0.51100000000E-03 0.  1.
         12    1    3    3    0    0 -0.18450981646E+02  0.81636762755E+01 -0.24150582977E+01  0.20320355327E+02  0.00000000000E+00 0. -1.
</event>
<event>
 7    1  0.2110035E-010  0.4778727E+02  0.7816164E-02  0.1312668E+00
        -11   -1    0    0    0    0  0.00000000000E+00  0.00000000000E+00  0.45593999997E+02  0.45594000000E+02  0.51100000000E-03 0. -1.
         11   -1    0    0    0    0 -0.00000000000E+00 -0.00000000000E+00 -0.45593999997E+02  0.45594000000E+02  0.51100000000E-03 0.  1.
    9900012    2    1    2    0    0 -0.75891241909E+01  0.41309753319E+02  0.10933096479E+02  0.47787272773E+02  0.20000007880E+02 0.  0.
        -12    1    1    2    0    0  0.75891241909E+01 -0.41309753319E+02 -0.10933096479E+02  0.43400727227E+02  0.00000000000E+00 0.  1.
         11    1    3    3    0    0 -0.22908460815E+00  0.16826323660E+02  0.81808790781E+01  0.18711077746E+02  0.51100000000E-03 0. -1.
        -11    1    3    3    0    0 -0.10435664245E+02  0.14860216021E+02  0.47686706401E+01  0.18774166516E+02  0.51100000000E-03 0.  1.
         12    1    3    3    0    0  0.30756246620E+01  0.96232136378E+01 -0.20164532391E+01  0.10302028511E+02  0.00000000000E+00 0. -1.
</event>
<event>
 7    1  0.2110035E-010  0.4778727E+02  0.7816164E-02  0.1312668E+00
        -11   -1    0    0    0    0  0.00000000000E+00  0.00000000000E+00  0.45593999997E+02  0.45594000000E+02  0.51100000000E-03 0.  1.
         11   -1    0    0    0    0 -0.00000000000E+00 -0.00000000000E+00 -0.45593999997E+02  0.45594000000E+02  0.51100000000E-03 0. -1.
    9900012    2    1    2    0    0 -0.67813152352E+00 -0.33814840867E+02 -0.27197792234E+02  0.47787271577E+02  0.20000002429E+02 0.  0.
        -12    1    1    2    0    0  0.67813152352E+00  0.33814840867E+02  0.27197792234E+02  0.43400728423E+02  0.00000000000E+00 0.  1.
         11    1    3    3    0    0  0.22874980109E+01 -0.82595585226E+00 -0.33890211060E+00  0.24555457889E+01  0.51100000000E-03 0. -1.
        -11    1    3    3    0    0 -0.22354345510E+01 -0.25348440224E+02 -0.27695602977E+02  0.37610995918E+02  0.51100000000E-03 0.  1.
        -12    1    3    3    0    0 -0.73019498342E+00 -0.76404447915E+01  0.83671285448E+00  0.77207298701E+01  0.00000000000E+00 0.  1.
</event>
<event>
 7    1  0.2110035E-010  0.4778727E+02  0.7816164E-02  0.1312668E+00
        -11   -1    0    0    0    0  0.00000000000E+00  0.00000000000E+00  0.45593999997E+02  0.45594000000E+02  0.51100000000E-03 0.  1.
         11   -1    0    0    0    0 -0.00000000000E+00 -0.00000000000E+00 -0.45593999997E+02  0.45594000000E+02  0.51100000000E-03 0. -1.
    9900012    2    1    2    0    0 -0.18791086163E+02  0.32498284262E+02  0.21780273638E+02  0.47787265917E+02  0.19999976623E+02 0.  0.
        -12    1    1    2    0    0  0.18791086163E+02 -0.32498284262E+02 -0.21780273638E+02  0.43400734083E+02  0.00000000000E+00 0.  1.
         11    1    3    3    0    0 -0.68570304076E+01  0.20325177049E+02  0.19219198911E+02  0.28801203015E+02  0.51100000000E-03 0. -1.
        -11    1    3    3    0    0 -0.11206986478E+01 -0.72909999238E+00  0.16546716403E+01  0.21273200879E+01  0.51100000000E-03 0.  1.
         12    1    3    3    0    0 -0.10813357108E+02  0.12902207205E+02  0.90640308695E+00  0.16858742814E+02  0.00000000000E+00 0. -1.
</event>
<event>
 7    1  0.2110035E-010  0.4778727E+02  0.7816164E-02  0.1312668E+00
        -11   -1    0    0    0    0  0.00000000000E+00  0.00000000000E+00  0.45593999997E+02  0.45594000000E+02  0.51100000000E-03 0.  1.
         11   -1    0    0    0    0 -0.00000000000E+00 -0.00000000000E+00 -0.45593999997E+02  0.45594000000E+02  0.51100000000E-03 0. -1.
    9900012    2    1    2    0    0 -0.28071715228E+02 -0.14282689648E+02 -0.29859783809E+02  0.47787272949E+02  0.20000008682E+02 0.  0.
        -12    1    1    2    0    0  0.28071715228E+02  0.14282689648E+02  0.29859783809E+02  0.43400727051E+02  0.00000000000E+00 0.  1.
         11    1    3    3    0    0 -0.10522688717E+02 -0.91651671462E+01 -0.12839672804E+02  0.18962712481E+02  0.51100000000E-03 0. -1.
        -11    1    3    3    0    0 -0.67813961381E+01 -0.48346721962E+01 -0.15958565038E+02  0.18001032947E+02  0.51100000000E-03 0.  1.
        -12    1    3    3    0    0 -0.10767630373E+02 -0.28285030578E+00 -0.10615459670E+01  0.10823527521E+02  0.00000000000E+00 0.  1.
</event>
<event>
 7    1  0.2110035E-010  0.4778727E+02  0.7816164E-02  0.1312668E+00
        -11   -1    0    0    0    0  0.00000000000E+00  0.00000000000E+00  0.45593999997E+02  0.45594000000E+02  0.51100000000E-03 0. -1.
         11   -1    0    0    0    0 -0.00000000000E+00 -0.00000000000E+00 -0.45593999997E+02  0.45594000000E+02  0.51100000000E-03 0.  1.
    9900012    2    1    2    0    0  0.31521214839E+02  0.20486368216E+02 -0.21687441374E+02  0.47787269811E+02  0.19999994375E+02 0.  0.
        -12    1    1    2    0    0 -0.31521214839E+02 -0.20486368216E+02  0.21687441374E+02  0.43400730189E+02  0.00000000000E+00 0.  1.
         11    1    3    3    0    0  0.95023455769E+01  0.25848092725E+01 -0.16799040250E+01  0.99898893003E+01  0.51100000000E-03 0. -1.
        -11    1    3    3    0    0  0.69289702607E+01  0.12845951036E+02 -0.15426455393E+02  0.21236869193E+02  0.51100000000E-03 0.  1.
        -12    1    3    3    0    0  0.15089899001E+02  0.50556079082E+01 -0.45810819561E+01  0.16560511317E+02  0.00000000000E+00 0.  1.
</event>
<event>
 7    1  0.2110035E-010  0.4778727E+02  0.7816164E-02  0.1312668E+00
        -11   -1    0    0    0    0  0.00000000000E+00  0.00000000000E+00  0.45593999997E+02  0.45594000000E+02  0.51100000000E-03 0.  1.
         11   -1    0    0    0    0 -0.00000000000E+00 -0.00000000000E+00 -0.45593999997E+02  0.45594000000E+02  0.51100000000E-03 0. -1.
    9900012    2    1    2    0    0 -0.25872835740E+01 -0.80166496635E+01 -0.42575374747E+02  0.47787271400E+02  0.20000001621E+02 0.  0.
        -12    1    1    2    0    0  0.25872835740E+01  0.80166496635E+01  0.42575374747E+02  0.43400728600E+02  0.00000000000E+00 0.  1.
         11    1    3    3    0    0  0.85100267904E+00 -0.15391158683E+01 -0.54364132953E+00  0.18408230149E+01  0.51100000000E-03 0. -1.
        -11    1    3    3    0    0 -0.53922349741E+01 -0.70601725547E+01 -0.83147814263E+01  0.12167901419E+02  0.51100000000E-03 0.  1.
         12    1    3    3    0    0  0.19539487211E+01  0.58263875948E+00 -0.33716951992E+02  0.33778546966E+02  0.00000000000E+00 0. -1.
</event>
<event>
 7    1  0.2110035E-010  0.4778733E+02  0.7816164E-02  0.1312667E+00
        -11   -1    0    0    0    0  0.00000000000E+00  0.00000000000E+00  0.45593999997E+02  0.45594000000E+02  0.51100000000E-03 0.  1.
         11   -1    0    0    0    0 -0.00000000000E+00 -0.00000000000E+00 -0.45593999997E+02  0.45594000000E+02  0.51100000000E-03 0. -1.
    9900012    2    1    2    0    0 -0.16628894141E+02  0.33872401830E+01 -0.39945265921E+02  0.47787334269E+02  0.20000288264E+02 0.  0.
        -12    1    1    2    0    0  0.16628894141E+02 -0.33872401830E+01  0.39945265921E+02  0.43400665731E+02  0.00000000000E+00 0.  1.
         11    1    3    3    0    0 -0.11523638951E+02 -0.26882555773E+00 -0.23784868908E+02  0.26430787183E+02  0.51100000000E-03 0. -1.
        -11    1    3    3    0    0 -0.57672984540E+01  0.78174388607E+01 -0.10572615636E+02  0.14358073807E+02  0.51100000000E-03 0.  1.
        -12    1    3    3    0    0  0.66204326422E+00 -0.41613731200E+01 -0.55877813766E+01  0.69984732792E+01  0.00000000000E+00 0.  1.
</event>
<event>
 7    1  0.2110035E-010  0.4778727E+02  0.7816164E-02  0.1312668E+00
        -11   -1    0    0    0    0  0.00000000000E+00  0.00000000000E+00  0.45593999997E+02  0.45594000000E+02  0.51100000000E-03 0.  1.
         11   -1    0    0    0    0 -0.00000000000E+00 -0.00000000000E+00 -0.45593999997E+02  0.45594000000E+02  0.51100000000E-03 0. -1.
    9900012    2    1    2    0    0 -0.39358152023E+02  0.15379155858E+02 -0.99015468617E+01  0.47787271944E+02  0.20000004102E+02 0.  0.
        -12    1    1    2    0    0  0.39358152023E+02 -0.15379155858E+02  0.99015468617E+01  0.43400728056E+02  0.00000000000E+00 0.  1.
         11    1    3    3    0    0 -0.18223265924E+02  0.56417857185E+01 -0.91275139291E+01  0.21147781865E+02  0.51100000000E-03 0. -1.
        -11    1    3    3    0    0 -0.17920782936E+02  0.12769883259E+02  0.59575400334E+00  0.22013162030E+02  0.51100000000E-03 0.  1.
         12    1    3    3    0    0 -0.32141031630E+01 -0.30325131198E+01 -0.13697869359E+01  0.46263280487E+01  0.00000000000E+00 0. -1.
</event>
<event>
 7    1  0.2110035E-010  0.4778727E+02  0.7816164E-02  0.1312668E+00
        -11   -1    0    0    0    0  0.00000000000E+00  0.00000000000E+00  0.45593999997E+02  0.45594000000E+02  0.51100000000E-03 0.  1.
         11   -1    0    0    0    0 -0.00000000000E+00 -0.00000000000E+00 -0.45593999997E+02  0.45594000000E+02  0.51100000000E-03 0. -1.
    9900012    2    1    2    0    0 -0.26578790103E+02  0.10425899248E+02 -0.32687794922E+02  0.47787269645E+02  0.19999993620E+02 0.  0.
        -12    1    1    2    0    0  0.26578790103E+02 -0.10425899248E+02  0.32687794922E+02  0.43400730355E+02  0.00000000000E+00 0.  1.
         11    1    3    3    0    0  0.25093549883E+00  0.30219479448E+01 -0.56898421715E+01  0.64474368708E+01  0.51100000000E-03 0.  1.
        -11    1    3    3    0    0 -0.83943861917E+01  0.76399612044E+01 -0.16787068622E+02  0.20264264110E+02  0.51100000000E-03 0. -1.
         12    1    3    3    0    0 -0.18435339410E+02 -0.23600990119E+00 -0.10210884128E+02  0.21075568665E+02  0.00000000000E+00 0. -1.
</event>
<event>
 7    1  0.2110035E-010  0.4778728E+02  0.7816164E-02  0.1312668E+00
        -11   -1    0    0    0    0  0.00000000000E+00  0.00000000000E+00  0.45593999997E+02  0.45594000000E+02  0.51100000000E-03 0.  1.
         11   -1    0    0    0    0 -0.00000000000E+00 -0.00000000000E+00 -0.45593999997E+02  0.45594000000E+02  0.51100000000E-03 0. -1.
    9900012    2    1    2    0    0  0.38901352565E+02  0.16762656562E+02  0.94509791042E+01  0.47787275439E+02  0.20000020039E+02 0.  0.
        -12    1    1    2    0    0 -0.38901352565E+02 -0.16762656562E+02 -0.94509791042E+01  0.43400724561E+02  0.00000000000E+00 0.  1.
         11    1    3    3    0    0  0.13068173953E+02  0.12032817294E+02  0.58603783762E+01  0.18705878687E+02  0.51100000000E-03 0. -1.
        -11    1    3    3    0    0  0.35758240332E+01  0.51249002783E+01 -0.10642558536E+01  0.63390662689E+01  0.51100000000E-03 0.  1.
        -12    1    3    3    0    0  0.22257354578E+02 -0.39506101017E+00  0.46548565817E+01  0.22742330483E+02  0.00000000000E+00 0.  1.
</event>
<event>
 7    1  0.2110035E-010  0.4778728E+02  0.7816164E-02  0.1312668E+00
        -11   -1    0    0    0    0  0.00000000000E+00  0.00000000000E+00  0.45593999997E+02  0.45594000000E+02  0.51100000000E-03 0.  1.
         11   -1    0    0    0    0 -0.00000000000E+00 -0.00000000000E+00 -0.45593999997E+02  0.45594000000E+02  0.51100000000E-03 0. -1.
    9900012    2    1    2    0    0 -0.94695606380E+01  0.27817928647E+02 -0.31939207726E+02  0.47787277391E+02  0.20000028934E+02 0.  0.
        -12    1    1    2    0    0  0.94695606380E+01 -0.27817928647E+02  0.31939207726E+02  0.43400722609E+02  0.00000000000E+00 0.  1.
         11    1    3    3    0    0 -0.54550343396E+01  0.15048835462E+02 -0.84618045812E+01  0.18105993081E+02  0.51100000000E-03 0. -1.
        -11    1    3    3    0    0  0.71784116992E+00  0.41542224660E+01  0.14700754178E-01  0.42158126874E+01  0.51100000000E-03 0.  1.
         12    1    3    3    0    0 -0.47323674683E+01  0.86148707188E+01 -0.23492103899E+02  0.25465471622E+02  0.00000000000E+00 0. -1.
</event>
<event>
 7    1  0.2110035E-010  0.4778727E+02  0.7816164E-02  0.1312668E+00
        -11   -1    0    0    0    0  0.00000000000E+00  0.00000000000E+00  0.45593999997E+02  0.45594000000E+02  0.51100000000E-03 0.  1.
         11   -1    0    0    0    0 -0.00000000000E+00 -0.00000000000E+00 -0.45593999997E+02  0.45594000000E+02  0.51100000000E-03 0. -1.
    9900012    2    1    2    0    0  0.35505368214E+02 -0.77943679127E+01 -0.23711596106E+02  0.47787272667E+02  0.20000007397E+02 0.  0.
        -12    1    1    2    0    0 -0.35505368214E+02  0.77943679127E+01  0.23711596106E+02  0.43400727333E+02  0.00000000000E+00 0.  1.
         11    1    3    3    0    0  0.76360009466E+01 -0.67737958782E+01 -0.53195424042E+01  0.11510445374E+02  0.51100000000E-03 0. -1.
        -11    1    3    3    0    0  0.83805285687E+01 -0.66283277290E+01 -0.39991218271E+01  0.11408810772E+02  0.51100000000E-03 0.  1.
         12    1    3    3    0    0  0.19488838699E+02  0.56077556945E+01 -0.14392931874E+02  0.24868016521E+02  0.00000000000E+00 0. -1.
</event>
<event>
 7    1  0.2110035E-010  0.4778727E+02  0.7816164E-02  0.1312668E+00
        -11   -1    0    0    0    0  0.00000000000E+00  0.00000000000E+00  0.45593999997E+02  0.45594000000E+02  0.51100000000E-03 0.  1.
         11   -1    0    0    0    0 -0.00000000000E+00 -0.00000000000E+00 -0.45593999997E+02  0.45594000000E+02  0.51100000000E-03 0. -1.
    9900012    2    1    2    0    0  0.69719446616E+01  0.20575999563E+02 -0.37571848498E+02  0.47787267634E+02  0.19999984448E+02 0.  0.
        -12    1    1    2    0    0 -0.69719446616E+01 -0.20575999563E+02  0.37571848498E+02  0.43400732366E+02  0.00000000000E+00 0.  1.
         11    1    3    3    0    0  0.47224407282E+01  0.21759892458E+01 -0.23250063546E+02  0.23824395706E+02  0.51100000000E-03 0. -1.
        -11    1    3    3    0    0  0.17905987253E+01  0.76969880072E+01 -0.32148102389E+01  0.85314051194E+01  0.51100000000E-03 0.  1.
        -12    1    3    3    0    0  0.45890520816E+00  0.10703022310E+02 -0.11106974714E+02  0.15431466808E+02  0.00000000000E+00 0.  1.
</event>
<event>
 7    1  0.2110035E-010  0.4778727E+02  0.7816164E-02  0.1312668E+00
        -11   -1    0    0    0    0  0.00000000000E+00  0.00000000000E+00  0.45593999997E+02  0.45594000000E+02  0.51100000000E-03 0. -1.
         11   -1    0    0    0    0 -0.00000000000E+00 -0.00000000000E+00 -0.45593999997E+02  0.45594000000E+02  0.51100000000E-03 0.  1.
    9900012    2    1    2    0    0 -0.16936317613E+02  0.39598571762E+02 -0.53607724158E+01  0.47787267048E+02  0.19999981777E+02 0.  0.
        -12    1    1    2    0    0  0.16936317613E+02 -0.39598571762E+02  0.53607724158E+01  0.43400732952E+02  0.00000000000E+00 0.  1.
         11    1    3    3    0    0  0.10165116891E+01  0.27464220551E+01  0.46094984093E+01  0.54610993367E+01  0.51100000000E-03 0.  1.
        -11    1    3    3    0    0 -0.94306177370E+01  0.16692592245E+02 -0.33747371469E+01  0.19467101423E+02  0.51100000000E-03 0. -1.
        -12    1    3    3    0    0 -0.85222115651E+01  0.20159557462E+02 -0.65955336782E+01  0.22859066288E+02  0.00000000000E+00 0.  1.
</event>
<event>
 7    1  0.2110035E-010  0.4778727E+02  0.7816164E-02  0.1312668E+00
        -11   -1    0    0    0    0  0.00000000000E+00  0.00000000000E+00  0.45593999997E+02  0.45594000000E+02  0.51100000000E-03 0.  1.
         11   -1    0    0    0    0 -0.00000000000E+00 -0.00000000000E+00 -0.45593999997E+02  0.45594000000E+02  0.51100000000E-03 0. -1.
    9900012    2    1    2    0    0 -0.23785204460E+02  0.35666878532E+02 -0.67647267319E+01  0.47787266098E+02  0.19999977449E+02 0.  0.
        -12    1    1    2    0    0  0.23785204460E+02 -0.35666878532E+02  0.67647267319E+01  0.43400733902E+02  0.00000000000E+00 0.  1.
         11    1    3    3    0    0 -0.56651094348E+01  0.16327453441E+02 -0.29539747921E+01  0.17532973739E+02  0.51100000000E-03 0. -1.
        -11    1    3    3    0    0  0.42300715300E+00 -0.15996701039E+01 -0.14242003039E+01  0.21831688573E+01  0.51100000000E-03 0.  1.
         12    1    3    3    0    0 -0.18543102178E+02  0.20939095195E+02 -0.23865516359E+01  0.28071123502E+02  0.00000000000E+00 0. -1.
</event>
<event>
 7    1  0.2110035E-010  0.4778727E+02  0.7816164E-02  0.1312668E+00
        -11   -1    0    0    0    0  0.00000000000E+00  0.00000000000E+00  0.45593999997E+02  0.45594000000E+02  0.51100000000E-03 0.  1.
         11   -1    0    0    0    0 -0.00000000000E+00 -0.00000000000E+00 -0.45593999997E+02  0.45594000000E+02  0.51100000000E-03 0. -1.
    9900012    2    1    2    0    0  0.31102539019E+02  0.31108443202E+01 -0.30109430317E+02  0.47787273280E+02  0.20000010192E+02 0.  0.
        -12    1    1    2    0    0 -0.31102539019E+02 -0.31108443202E+01  0.30109430317E+02  0.43400726720E+02  0.00000000000E+00 0.  1.
         11    1    3    3    0    0  0.12092556375E+02  0.58618683637E+01 -0.15797719254E+02  0.20740283371E+02  0.51100000000E-03 0. -1.
        -11    1    3    3    0    0  0.51486893388E+00 -0.40323407303E+01 -0.45255537822E+01  0.60832145352E+01  0.51100000000E-03 0.  1.
         12    1    3    3    0    0  0.18495113710E+02  0.12813166868E+01 -0.97861572806E+01  0.20963775374E+02  0.00000000000E+00 0. -1.
</event>
<event>
 7    1  0.2110035E-010  0.4778727E+02  0.7816164E-02  0.1312668E+00
        -11   -1    0    0    0    0  0.00000000000E+00  0.00000000000E+00  0.45593999997E+02  0.45594000000E+02  0.51100000000E-03 0.  1.
         11   -1    0    0    0    0 -0.00000000000E+00 -0.00000000000E+00 -0.45593999997E+02  0.45594000000E+02  0.51100000000E-03 0. -1.
    9900012    2    1    2    0    0 -0.28618076411E+02  0.24297284005E+02 -0.21777774202E+02  0.47787265482E+02  0.19999974639E+02 0.  0.
        -12    1    1    2    0    0  0.28618076411E+02 -0.24297284005E+02  0.21777774202E+02  0.43400734518E+02  0.00000000000E+00 0.  1.
         11    1    3    3    0    0 -0.91853340540E-01  0.70776261224E+01 -0.62089456727E+01  0.94155315937E+01  0.51100000000E-03 0.  1.
        -11    1    3    3    0    0 -0.21915520347E+02  0.16875007459E+02 -0.15592761663E+02  0.31752009785E+02  0.51100000000E-03 0. -1.
        -12    1    3    3    0    0 -0.66107027235E+01  0.34465042414E+00  0.23933133897E-01  0.66197241036E+01  0.00000000000E+00 0.  1.
</event>
<event>
 7    1  0.2110035E-010  0.4778726E+02  0.7816164E-02  0.1312668E+00
        -11   -1    0    0    0    0  0.00000000000E+00  0.00000000000E+00  0.45593999997E+02  0.45594000000E+02  0.51100000000E-03 0.  1.
         11   -1    0    0    0    0 -0.00000000000E+00 -0.00000000000E+00 -0.45593999997E+02  0.45594000000E+02  0.51100000000E-03 0. -1.
    9900012    2    1    2    0    0 -0.43295832837E+02 -0.28730316231E+01  0.91678091068E+00  0.47787263382E+02  0.19999965064E+02 0.  0.
        -12    1    1    2    0    0  0.43295832837E+02  0.28730316231E+01 -0.91678091068E+00  0.43400736618E+02  0.00000000000E+00 0.  1.
         11    1    3    3    0    0 -0.16646445760E+02 -0.64688362391E+01 -0.23939325430E+01  0.18018904296E+02  0.51100000000E-03 0. -1.
        -11    1    3    3    0    0 -0.53520138405E+00  0.53509229131E-04  0.33654327921E+01  0.34077233842E+01  0.51100000000E-03 0.  1.
        -12    1    3    3    0    0 -0.26114185692E+02  0.35957511067E+01 -0.54719338375E-01  0.26360635702E+02  0.00000000000E+00 0.  1.
</event>
<event>
 7    1  0.2110035E-010  0.4778727E+02  0.7816164E-02  0.1312668E+00
        -11   -1    0    0    0    0  0.00000000000E+00  0.00000000000E+00  0.45593999997E+02  0.45594000000E+02  0.51100000000E-03 0. -1.
         11   -1    0    0    0    0 -0.00000000000E+00 -0.00000000000E+00 -0.45593999997E+02  0.45594000000E+02  0.51100000000E-03 0.  1.
    9900012    2    1    2    0    0  0.84873049807E+01  0.11122672335E+02  0.41083756852E+02  0.47787271172E+02  0.20000000581E+02 0.  0.
        -12    1    1    2    0    0 -0.84873049807E+01 -0.11122672335E+02 -0.41083756852E+02  0.43400728828E+02  0.00000000000E+00 0.  1.
         11    1    3    3    0    0  0.45261295606E+01  0.90739462624E+01  0.28214091223E+02  0.29980948841E+02  0.51100000000E-03 0. -1.
        -11    1    3    3    0    0 -0.28941210959E+01  0.33204176333E+01  0.18746543671E+01  0.47870073568E+01  0.51100000000E-03 0.  1.
         12    1    3    3    0    0  0.68552965160E+01 -0.12716915609E+01  0.10995011262E+02  0.13019314974E+02  0.00000000000E+00 0. -1.
</event>
<event>
 7    1  0.2110035E-010  0.4778727E+02  0.7816164E-02  0.1312668E+00
        -11   -1    0    0    0    0  0.00000000000E+00  0.00000000000E+00  0.45593999997E+02  0.45594000000E+02  0.51100000000E-03 0.  1.
         11   -1    0    0    0    0 -0.00000000000E+00 -0.00000000000E+00 -0.45593999997E+02  0.45594000000E+02  0.51100000000E-03 0. -1.
    9900012    2    1    2    0    0  0.15818281986E+02  0.13551348769E+02 -0.38075792903E+02  0.47787273006E+02  0.20000008941E+02 0.  0.
        -12    1    1    2    0    0 -0.15818281986E+02 -0.13551348769E+02  0.38075792903E+02  0.43400726994E+02  0.00000000000E+00 0.  1.
         11    1    3    3    0    0  0.67585008556E+00  0.50863290515E+01 -0.68009474945E+01  0.85194133391E+01  0.51100000000E-03 0. -1.
        -11    1    3    3    0    0  0.12183738562E+02 -0.20989687804E+01 -0.12904304922E+02  0.17870932854E+02  0.51100000000E-03 0.  1.
        -12    1    3    3    0    0  0.29586933387E+01  0.10563988498E+02 -0.18370540486E+02  0.21396926813E+02  0.00000000000E+00 0.  1.
</event>
<event>
 7    1  0.2110035E-010  0.4778727E+02  0.7816164E-02  0.1312668E+00
        -11   -1    0    0    0    0  0.00000000000E+00  0.00000000000E+00  0.45593999997E+02  0.45594000000E+02  0.51100000000E-03 0.  1.
         11   -1    0    0    0    0 -0.00000000000E+00 -0.00000000000E+00 -0.45593999997E+02  0.45594000000E+02  0.51100000000E-03 0. -1.
    9900012    2    1    2    0    0 -0.35782593292E+02  0.13838598954E+02  0.20290949554E+02  0.47787269159E+02  0.19999991406E+02 0.  0.
        -12    1    1    2    0    0  0.35782593292E+02 -0.13838598954E+02 -0.20290949554E+02  0.43400730841E+02  0.00000000000E+00 0.  1.
         11    1    3    3    0    0 -0.23294217009E+02  0.68687877362E+01  0.49716851638E+01  0.24789482541E+02  0.51100000000E-03 0. -1.
        -11    1    3    3    0    0 -0.63627081813E+01 -0.14045397800E+01  0.79104289351E+01  0.10248496162E+02  0.51100000000E-03 0.  1.
        -12    1    3    3    0    0 -0.61256681013E+01  0.83743509979E+01  0.74088354552E+01  0.12749290456E+02  0.00000000000E+00 0.  1.
</event>
<event>
 7    1  0.2110035E-010  0.4778727E+02  0.7816164E-02  0.1312668E+00
        -11   -1    0    0    0    0  0.00000000000E+00  0.00000000000E+00  0.45593999997E+02  0.45594000000E+02  0.51100000000E-03 0.  1.
         11   -1    0    0    0    0 -0.00000000000E+00 -0.00000000000E+00 -0.45593999997E+02  0.45594000000E+02  0.51100000000E-03 0. -1.
    9900012    2    1    2    0    0  0.38173090410E+02 -0.15151069777E+02 -0.14031511237E+02  0.47787273572E+02  0.20000011526E+02 0.  0.
        -12    1    1    2    0    0 -0.38173090410E+02  0.15151069777E+02  0.14031511237E+02  0.43400726428E+02  0.00000000000E+00 0.  1.
         11    1    3    3    0    0  0.11853319449E+02 -0.81560398381E+01 -0.14202900313E+01  0.14458194626E+02  0.51100000000E-03 0. -1.
        -11    1    3    3    0    0  0.17632940978E+02 -0.62232692014E+01 -0.89095739523E+00  0.18720136015E+02  0.51100000000E-03 0.  1.
        -12    1    3    3    0    0  0.86868299835E+01 -0.77176073794E+00 -0.11720263810E+02  0.14608942932E+02  0.00000000000E+00 0.  1.
</event>
<event>
 7    1  0.2110035E-010  0.4778727E+02  0.7816164E-02  0.1312668E+00
        -11   -1    0    0    0    0  0.00000000000E+00  0.00000000000E+00  0.45593999997E+02  0.45594000000E+02  0.51100000000E-03 0. -1.
         11   -1    0    0    0    0 -0.00000000000E+00 -0.00000000000E+00 -0.45593999997E+02  0.45594000000E+02  0.51100000000E-03 0.  1.
    9900012    2    1    2    0    0 -0.20819593869E+02  0.23037847869E+02  0.30322029991E+02  0.47787269291E+02  0.19999992006E+02 0.  0.
        -12    1    1    2    0    0  0.20819593869E+02 -0.23037847869E+02 -0.30322029991E+02  0.43400730709E+02  0.00000000000E+00 0.  1.
         11    1    3    3    0    0 -0.15115317714E+02  0.13327914029E+02  0.11585825995E+02  0.23245160490E+02  0.51100000000E-03 0. -1.
        -11    1    3    3    0    0 -0.44949455700E+01  0.87196387172E+00  0.99654272345E+00  0.46859315330E+01  0.51100000000E-03 0.  1.
        -12    1    3    3    0    0 -0.12093305843E+01  0.88379699680E+01  0.17739661273E+02  0.19856177268E+02  0.00000000000E+00 0.  1.
</event>
<event>
 7    1  0.2110035E-010  0.4778727E+02  0.7816164E-02  0.1312668E+00
        -11   -1    0    0    0    0  0.00000000000E+00  0.00000000000E+00  0.45593999997E+02  0.45594000000E+02  0.51100000000E-03 0.  1.
         11   -1    0    0    0    0 -0.00000000000E+00 -0.00000000000E+00 -0.45593999997E+02  0.45594000000E+02  0.51100000000E-03 0. -1.
    9900012    2    1    2    0    0 -0.27689173407E+02 -0.22303266450E+02 -0.24889698395E+02  0.47787272995E+02  0.20000008895E+02 0.  0.
        -12    1    1    2    0    0  0.27689173407E+02  0.22303266450E+02  0.24889698395E+02  0.43400727005E+02  0.00000000000E+00 0.  1.
         11    1    3    3    0    0 -0.14832705833E+01 -0.15327319815E+01 -0.58855949019E+01  0.62601586690E+01  0.51100000000E-03 0. -1.
        -11    1    3    3    0    0 -0.11829663478E+01 -0.55992453200E+01 -0.88762367374E+01  0.10561180635E+02  0.51100000000E-03 0.  1.
         12    1    3    3    0    0 -0.25022936476E+02 -0.15171289148E+02 -0.10127866756E+02  0.30965933691E+02  0.00000000000E+00 0. -1.
</event>
<event>
 7    1  0.2110035E-010  0.4778727E+02  0.7816164E-02  0.1312668E+00
        -11   -1    0    0    0    0  0.00000000000E+00  0.00000000000E+00  0.45593999997E+02  0.45594000000E+02  0.51100000000E-03 0.  1.
         11   -1    0    0    0    0 -0.00000000000E+00 -0.00000000000E+00 -0.45593999997E+02  0.45594000000E+02  0.51100000000E-03 0. -1.
    9900012    2    1    2    0    0 -0.29929191424E+02  0.29296257472E+02  0.11384028410E+02  0.47787270697E+02  0.19999998416E+02 0.  0.
        -12    1    1    2    0    0  0.29929191424E+02 -0.29296257472E+02 -0.11384028410E+02  0.43400729303E+02  0.00000000000E+00 0.  1.
         11    1    3    3    0    0 -0.14893251920E+02  0.15163000362E+02 -0.12147882612E+00  0.21254182885E+02  0.51100000000E-03 0. -1.
        -11    1    3    3    0    0 -0.10067508288E+02  0.15729599378E+02  0.93723829162E+01  0.20895372251E+02  0.51100000000E-03 0.  1.
        -12    1    3    3    0    0 -0.49684312163E+01 -0.15963422675E+01  0.21331243204E+01  0.56377155615E+01  0.00000000000E+00 0.  1.
</event>
<event>
 7    1  0.2110035E-010  0.4778727E+02  0.7816164E-02  0.1312668E+00
        -11   -1    0    0    0    0  0.00000000000E+00  0.00000000000E+00  0.45593999997E+02  0.45594000000E+02  0.51100000000E-03 0.  1.
         11   -1    0    0    0    0 -0.00000000000E+00 -0.00000000000E+00 -0.45593999997E+02  0.45594000000E+02  0.51100000000E-03 0. -1.
    9900012    2    1    2    0    0 -0.33105067430E+02  0.25656361936E+02 -0.11376694690E+02  0.47787267525E+02  0.19999983953E+02 0.  0.
        -12    1    1    2    0    0  0.33105067430E+02 -0.25656361936E+02  0.11376694690E+02  0.43400732475E+02  0.00000000000E+00 0.  1.
         11    1    3    3    0    0 -0.15950099136E+02  0.15889475286E+02 -0.48154149272E+01  0.23023234101E+02  0.51100000000E-03 0. -1.
        -11    1    3    3    0    0 -0.60332991372E+00  0.29464072432E+01 -0.61630920242E+01  0.68577712259E+01  0.51100000000E-03 0.  1.
        -12    1    3    3    0    0 -0.16551638380E+02  0.68204794066E+01 -0.39818773854E+00  0.17906262198E+02  0.00000000000E+00 0.  1.
</event>
<event>
 7    1  0.2110035E-010  0.4778727E+02  0.7816164E-02  0.1312668E+00
        -11   -1    0    0    0    0  0.00000000000E+00  0.00000000000E+00  0.45593999997E+02  0.45594000000E+02  0.51100000000E-03 0. -1.
         11   -1    0    0    0    0 -0.00000000000E+00 -0.00000000000E+00 -0.45593999997E+02  0.45594000000E+02  0.51100000000E-03 0.  1.
    9900012    2    1    2    0    0 -0.59025167882E+01 -0.15873070039E+01  0.42968175774E+02  0.47787269853E+02  0.19999994569E+02 0.  0.
        -12    1    1    2    0    0  0.59025167882E+01  0.15873070039E+01 -0.42968175774E+02  0.43400730147E+02  0.00000000000E+00 0.  1.
         11    1    3    3    0    0 -0.54279675306E+01 -0.52246842929E+00  0.17075714414E+02  0.17925284595E+02  0.51100000000E-03 0. -1.
        -11    1    3    3    0    0 -0.13762941878E+01  0.33761300596E+01  0.71696929102E-01  0.36465847833E+01  0.51100000000E-03 0.  1.
         12    1    3    3    0    0  0.90174493018E+00 -0.44409686342E+01  0.25820764430E+02  0.26215400475E+02  0.00000000000E+00 0. -1.
</event>
<event>
 7    1  0.2110035E-010  0.4778727E+02  0.7816164E-02  0.1312668E+00
        -11   -1    0    0    0    0  0.00000000000E+00  0.00000000000E+00  0.45593999997E+02  0.45594000000E+02  0.51100000000E-03 0.  1.
         11   -1    0    0    0    0 -0.00000000000E+00 -0.00000000000E+00 -0.45593999997E+02  0.45594000000E+02  0.51100000000E-03 0. -1.
    9900012    2    1    2    0    0 -0.23923989879E+02 -0.31823343474E+02 -0.17278336493E+02  0.47787269666E+02  0.19999993715E+02 0.  0.
        -12    1    1    2    0    0  0.23923989879E+02  0.31823343474E+02  0.17278336493E+02  0.43400730334E+02  0.00000000000E+00 0.  1.
         11    1    3    3    0    0 -0.22659406316E+02 -0.34397593112E+02 -0.16113835940E+02  0.44230066872E+02  0.51100000000E-03 0. -1.
        -11    1    3    3    0    0  0.30110543191E+00  0.60989904673E+00 -0.74784962791E+00  0.10109009128E+01  0.51100000000E-03 0.  1.
         12    1    3    3    0    0 -0.15656889947E+01  0.19643505921E+01 -0.41665092489E+00  0.25463018812E+01  0.00000000000E+00 0. -1.
</event>
<event>
 7    1  0.2110035E-010  0.4778728E+02  0.7816164E-02  0.1312668E+00
        -11   -1    0    0    0    0  0.00000000000E+00  0.00000000000E+00  0.45593999997E+02  0.45594000000E+02  0.51100000000E-03 0.  1.
         11   -1    0    0    0    0 -0.00000000000E+00 -0.00000000000E+00 -0.45593999997E+02  0.45594000000E+02  0.51100000000E-03 0. -1.
    9900012    2    1    2    0    0  0.28850309481E+02 -0.32423409001E+02  0.67512260939E-01  0.47787281500E+02  0.20000047671E+02 0.  0.
        -12    1    1    2    0    0 -0.28850309481E+02  0.32423409001E+02 -0.67512260939E-01  0.43400718500E+02  0.00000000000E+00 0.  1.
         11    1    3    3    0    0  0.72639905336E+01 -0.34480381045E+01  0.13991220281E+01  0.81616216497E+01  0.51100000000E-03 0.  1.
        -11    1    3    3    0    0  0.16154200140E+01 -0.15308178257E+02 -0.76612671894E-01  0.15393367830E+02  0.51100000000E-03 0. -1.
         12    1    3    3    0    0  0.19970898934E+02 -0.13667192639E+02 -0.12549970953E+01  0.24232292020E+02  0.00000000000E+00 0. -1.
</event>
<event>
 7    1  0.2110035E-010  0.4778727E+02  0.7816164E-02  0.1312668E+00
        -11   -1    0    0    0    0  0.00000000000E+00  0.00000000000E+00  0.45593999997E+02  0.45594000000E+02  0.51100000000E-03 0.  1.
         11   -1    0    0    0    0 -0.00000000000E+00 -0.00000000000E+00 -0.45593999997E+02  0.45594000000E+02  0.51100000000E-03 0. -1.
    9900012    2    1    2    0    0  0.29079484948E+02  0.32128099202E+02 -0.24066791620E+01  0.47787270653E+02  0.19999998217E+02 0.  0.
        -12    1    1    2    0    0 -0.29079484948E+02 -0.32128099202E+02  0.24066791620E+01  0.43400729347E+02  0.00000000000E+00 0.  1.
         11    1    3    3    0    0  0.78646338972E+01  0.94476265693E+00 -0.67439606824E+00  0.79498335286E+01  0.51100000000E-03 0. -1.
        -11    1    3    3    0    0  0.10504517245E+02  0.53156285987E+01 -0.12141881810E+01  0.11835330293E+02  0.51100000000E-03 0.  1.
         12    1    3    3    0    0  0.10710333806E+02  0.25867707947E+02 -0.51809491274E+00  0.28002106831E+02  0.00000000000E+00 0. -1.
</event>
<event>
 7    1  0.2110035E-010  0.4778727E+02  0.7816164E-02  0.1312668E+00
        -11   -1    0    0    0    0  0.00000000000E+00  0.00000000000E+00  0.45593999997E+02  0.45594000000E+02  0.51100000000E-03 0. -1.
         11   -1    0    0    0    0 -0.00000000000E+00 -0.00000000000E+00 -0.45593999997E+02  0.45594000000E+02  0.51100000000E-03 0.  1.
    9900012    2    1    2    0    0  0.18867653329E+02 -0.39028607062E+02 -0.20983468760E+01  0.47787267622E+02  0.19999984394E+02 0.  0.
        -12    1    1    2    0    0 -0.18867653329E+02  0.39028607062E+02  0.20983468760E+01  0.43400732378E+02  0.00000000000E+00 0.  1.
         11    1    3    3    0    0  0.28389681225E+01 -0.31966622675E+01 -0.32881109879E+01  0.53935205369E+01  0.51100000000E-03 0. -1.
        -11    1    3    3    0    0  0.50193180809E+01 -0.14338427761E+02 -0.72229620347E+01  0.16821273598E+02  0.51100000000E-03 0.  1.
         12    1    3    3    0    0  0.11009367125E+02 -0.21493517034E+02  0.84127261466E+01  0.25572473486E+02  0.00000000000E+00 0. -1.
</event>
<event>
 7    1  0.2110035E-010  0.4778727E+02  0.7816164E-02  0.1312668E+00
        -11   -1    0    0    0    0  0.00000000000E+00  0.00000000000E+00  0.45593999997E+02  0.45594000000E+02  0.51100000000E-03 0. -1.
         11   -1    0    0    0    0 -0.00000000000E+00 -0.00000000000E+00 -0.45593999997E+02  0.45594000000E+02  0.51100000000E-03 0.  1.
    9900012    2    1    2    0    0 -0.38851046643E+02  0.16471728619E+02 -0.10144044329E+02  0.47787270694E+02  0.19999998400E+02 0.  0.
        -12    1    1    2    0    0  0.38851046643E+02 -0.16471728619E+02  0.10144044329E+02  0.43400729306E+02  0.00000000000E+00 0.  1.
         11    1    3    3    0    0 -0.26515001185E+02  0.17967529339E+02 -0.50909836182E+01  0.32431397022E+02  0.51100000000E-03 0. -1.
        -11    1    3    3    0    0  0.10152424001E+01  0.89046003417E-01 -0.86297262495E-01  0.10227872703E+01  0.51100000000E-03 0.  1.
        -12    1    3    3    0    0 -0.13351287859E+02 -0.15848467230E+01 -0.49667634485E+01  0.14333086401E+02  0.00000000000E+00 0.  1.
</event>
<event>
 7    1  0.2110035E-010  0.4778727E+02  0.7816164E-02  0.1312668E+00
        -11   -1    0    0    0    0  0.00000000000E+00  0.00000000000E+00  0.45593999997E+02  0.45594000000E+02  0.51100000000E-03 0. -1.
         11   -1    0    0    0    0 -0.00000000000E+00 -0.00000000000E+00 -0.45593999997E+02  0.45594000000E+02  0.51100000000E-03 0.  1.
    9900012    2    1    2    0    0 -0.35383975578E+02 -0.13309546576E+02  0.21317914942E+02  0.47787271259E+02  0.20000000980E+02 0.  0.
        -12    1    1    2    0    0  0.35383975578E+02  0.13309546576E+02 -0.21317914942E+02  0.43400728741E+02  0.00000000000E+00 0.  1.
         11    1    3    3    0    0 -0.15409438698E+01  0.10010619063E+01  0.56891034738E+01  0.59785057955E+01  0.51100000000E-03 0. -1.
        -11    1    3    3    0    0  0.81666404113E+00 -0.16685377844E+01  0.10917164470E+01  0.21547165836E+01  0.51100000000E-03 0.  1.
         12    1    3    3    0    0 -0.34659695749E+02 -0.12642070698E+02  0.14537095021E+02  0.39654048880E+02  0.00000000000E+00 0. -1.
</event>
<event>
 7    1  0.2110035E-010  0.4778727E+02  0.7816164E-02  0.1312668E+00
        -11   -1    0    0    0    0  0.00000000000E+00  0.00000000000E+00  0.45593999997E+02  0.45594000000E+02  0.51100000000E-03 0. -1.
         11   -1    0    0    0    0 -0.00000000000E+00 -0.00000000000E+00 -0.45593999997E+02  0.45594000000E+02  0.51100000000E-03 0.  1.
    9900012    2    1    2    0    0 -0.16955216881E+02  0.33517754513E+02  0.21741762374E+02  0.47787268691E+02  0.19999989269E+02 0.  0.
        -12    1    1    2    0    0  0.16955216881E+02 -0.33517754513E+02 -0.21741762374E+02  0.43400731309E+02  0.00000000000E+00 0.  1.
         11    1    3    3    0    0 -0.76998946557E+01  0.24524225837E+02  0.22505419181E+02  0.34164600443E+02  0.51100000000E-03 0. -1.
        -11    1    3    3    0    0 -0.47073189134E+01  0.17637951488E+01  0.17510457162E+00  0.50299589016E+01  0.51100000000E-03 0.  1.
         12    1    3    3    0    0 -0.45480033118E+01  0.72297335265E+01 -0.93876137871E+00  0.85927093465E+01  0.00000000000E+00 0. -1.
</event>
<event>
 7    1  0.2110035E-010  0.4778727E+02  0.7816164E-02  0.1312668E+00
        -11   -1    0    0    0    0  0.00000000000E+00  0.00000000000E+00  0.45593999997E+02  0.45594000000E+02  0.51100000000E-03 0.  1.
         11   -1    0    0    0    0 -0.00000000000E+00 -0.00000000000E+00 -0.45593999997E+02  0.45594000000E+02  0.51100000000E-03 0. -1.
    9900012    2    1    2    0    0  0.26114101598E+02 -0.16262632839E+02 -0.30613779626E+02  0.47787273829E+02  0.20000012698E+02 0.  0.
        -12    1    1    2    0    0 -0.26114101598E+02  0.16262632839E+02  0.30613779626E+02  0.43400726171E+02  0.00000000000E+00 0.  1.
         11    1    3    3    0    0  0.42284190835E+00  0.38835117171E+01 -0.35875477417E+01  0.53038625167E+01  0.51100000000E-03 0. -1.
        -11    1    3    3    0    0  0.18132911145E+02 -0.15182773936E+02 -0.20897045131E+02  0.31559556183E+02  0.51100000000E-03 0.  1.
         12    1    3    3    0    0  0.75583485451E+01 -0.49633706199E+01 -0.61291867530E+01  0.10923855130E+02  0.00000000000E+00 0. -1.
</event>
<event>
 7    1  0.2110035E-010  0.4778730E+02  0.7816164E-02  0.1312668E+00
        -11   -1    0    0    0    0  0.00000000000E+00  0.00000000000E+00  0.45593999997E+02  0.45594000000E+02  0.51100000000E-03 0.  1.
         11   -1    0    0    0    0 -0.00000000000E+00 -0.00000000000E+00 -0.45593999997E+02  0.45594000000E+02  0.51100000000E-03 0. -1.
    9900012    2    1    2    0    0  0.31930940028E+02 -0.29167094049E+02 -0.36492190769E+01  0.47787296017E+02  0.20000113858E+02 0.  0.
        -12    1    1    2    0    0 -0.31930940028E+02  0.29167094049E+02  0.36492190769E+01  0.43400703983E+02  0.00000000000E+00 0.  1.
         11    1    3    3    0    0  0.84448840939E+01 -0.16191633147E+02 -0.40853974956E+01  0.18712977430E+02  0.51100000000E-03 0. -1.
        -11    1    3    3    0    0  0.52799938648E+01 -0.39641556980E+01  0.49655799769E+01  0.82613467654E+01  0.51100000000E-03 0.  1.
        -12    1    3    3    0    0  0.18206062070E+02 -0.90113052043E+01 -0.45294015582E+01  0.20812971822E+02  0.00000000000E+00 0.  1.
</event>
<event>
 7    1  0.2110035E-010  0.4778727E+02  0.7816164E-02  0.1312668E+00
        -11   -1    0    0    0    0  0.00000000000E+00  0.00000000000E+00  0.45593999997E+02  0.45594000000E+02  0.51100000000E-03 0. -1.
         11   -1    0    0    0    0 -0.00000000000E+00 -0.00000000000E+00 -0.45593999997E+02  0.45594000000E+02  0.51100000000E-03 0.  1.
    9900012    2    1    2    0    0 -0.41982772636E+02  0.28314143331E+00  0.10999562168E+02  0.47787265730E+02  0.19999975770E+02 0.  0.
        -12    1    1    2    0    0  0.41982772636E+02 -0.28314143331E+00 -0.10999562168E+02  0.43400734270E+02  0.00000000000E+00 0.  1.
         11    1    3    3    0    0 -0.83244675308E+01 -0.62577181965E+01  0.67157928798E+01  0.12391838885E+02  0.51100000000E-03 0. -1.
        -11    1    3    3    0    0 -0.15478677211E+01  0.48045925942E+00  0.20896605190E+01  0.26445069347E+01  0.51100000000E-03 0.  1.
        -12    1    3    3    0    0 -0.32110437384E+02  0.60604003704E+01  0.21941087687E+01  0.32750919910E+02  0.00000000000E+00 0.  1.
</event>
<event>
 7    1  0.2110035E-010  0.4778727E+02  0.7816164E-02  0.1312668E+00
        -11   -1    0    0    0    0  0.00000000000E+00  0.00000000000E+00  0.45593999997E+02  0.45594000000E+02  0.51100000000E-03 0.  1.
         11   -1    0    0    0    0 -0.00000000000E+00 -0.00000000000E+00 -0.45593999997E+02  0.45594000000E+02  0.51100000000E-03 0. -1.
    9900012    2    1    2    0    0  0.20152764682E+02  0.30871924985E+02 -0.22900077199E+02  0.47787271753E+02  0.20000003231E+02 0.  0.
        -12    1    1    2    0    0 -0.20152764682E+02 -0.30871924985E+02  0.22900077199E+02  0.43400728247E+02  0.00000000000E+00 0.  1.
         11    1    3    3    0    0  0.29869960856E+01  0.16086043440E+01 -0.36340097026E+01  0.49714967898E+01  0.51100000000E-03 0. -1.
        -11    1    3    3    0    0  0.10205604516E+02  0.29382458604E+02 -0.14121753269E+02  0.34160022729E+02  0.51100000000E-03 0.  1.
        -12    1    3    3    0    0  0.69601640798E+01 -0.11913796298E+00 -0.51443142275E+01  0.86557522344E+01  0.00000000000E+00 0.  1.
</event>
<event>
 7    1  0.2110035E-010  0.4778727E+02  0.7816164E-02  0.1312668E+00
        -11   -1    0    0    0    0  0.00000000000E+00  0.00000000000E+00  0.45593999997E+02  0.45594000000E+02  0.51100000000E-03 0.  1.
         11   -1    0    0    0    0 -0.00000000000E+00 -0.00000000000E+00 -0.45593999997E+02  0.45594000000E+02  0.51100000000E-03 0. -1.
    9900012    2    1    2    0    0 -0.24746389638E+02 -0.33762809175E+02 -0.11459155687E+02  0.47787270369E+02  0.19999996919E+02 0.  0.
        -12    1    1    2    0    0  0.24746389638E+02  0.33762809175E+02  0.11459155687E+02  0.43400729631E+02  0.00000000000E+00 0.  1.
         11    1    3    3    0    0 -0.97976066512E+01 -0.12740484669E+02 -0.16948016445E+01  0.16161231344E+02  0.51100000000E-03 0. -1.
        -11    1    3    3    0    0  0.25062535092E+01 -0.76070640372E+01 -0.17526385060E+01  0.81988091765E+01  0.51100000000E-03 0.  1.
         12    1    3    3    0    0 -0.17455036496E+02 -0.13415260468E+02 -0.80117155364E+01  0.23427229848E+02  0.00000000000E+00 0. -1.
</event>
<event>
 7    1  0.2110035E-010  0.4778727E+02  0.7816164E-02  0.1312668E+00
        -11   -1    0    0    0    0  0.00000000000E+00  0.00000000000E+00  0.45593999997E+02  0.45594000000E+02  0.51100000000E-03 0. -1.
         11   -1    0    0    0    0 -0.00000000000E+00 -0.00000000000E+00 -0.45593999997E+02  0.45594000000E+02  0.51100000000E-03 0.  1.
    9900012    2    1    2    0    0  0.16431372478E+02 -0.23670847639E+02  0.32454957773E+02  0.47787270588E+02  0.19999997920E+02 0.  0.
        -12    1    1    2    0    0 -0.16431372478E+02  0.23670847639E+02 -0.32454957773E+02  0.43400729412E+02  0.00000000000E+00 0.  1.
         11    1    3    3    0    0  0.71197311076E+01 -0.54457990645E+01  0.65642738766E+01  0.11110220083E+02  0.51100000000E-03 0. -1.
        -11    1    3    3    0    0 -0.12289549079E+01 -0.80871309365E+01  0.18635245200E+02  0.20351520358E+02  0.51100000000E-03 0.  1.
        -12    1    3    3    0    0  0.10540596278E+02 -0.10137917638E+02  0.72554386957E+01  0.16325530148E+02  0.00000000000E+00 0.  1.
</event>
<event>
 7    1  0.2110035E-010  0.4778729E+02  0.7816164E-02  0.1312668E+00
        -11   -1    0    0    0    0  0.00000000000E+00  0.00000000000E+00  0.45593999997E+02  0.45594000000E+02  0.51100000000E-03 0.  1.
         11   -1    0    0    0    0 -0.00000000000E+00 -0.00000000000E+00 -0.45593999997E+02  0.45594000000E+02  0.51100000000E-03 0. -1.
    9900012    2    1    2    0    0  0.15956433550E+02 -0.34895481759E+02 -0.20281010367E+02  0.47787288020E+02  0.20000077398E+02 0.  0.
        -12    1    1    2    0    0 -0.15956433550E+02  0.34895481759E+02  0.20281010367E+02  0.43400711980E+02  0.00000000000E+00 0.  1.
         11    1    3    3    0    0  0.67501695146E+01 -0.99268888342E+01 -0.32363353392E+01  0.12433092017E+02  0.51100000000E-03 0. -1.
        -11    1    3    3    0    0  0.32011919701E+01 -0.14782552460E+02 -0.17976542080E+02  0.23493138416E+02  0.51100000000E-03 0.  1.
        -12    1    3    3    0    0  0.60050720657E+01 -0.10186040465E+02  0.93186705161E+00  0.11861057587E+02  0.00000000000E+00 0.  1.
</event>
<event>
 7    1  0.2110035E-010  0.4778727E+02  0.7816164E-02  0.1312668E+00
        -11   -1    0    0    0    0  0.00000000000E+00  0.00000000000E+00  0.45593999997E+02  0.45594000000E+02  0.51100000000E-03 0. -1.
         11   -1    0    0    0    0 -0.00000000000E+00 -0.00000000000E+00 -0.45593999997E+02  0.45594000000E+02  0.51100000000E-03 0.  1.
    9900012    2    1    2    0    0 -0.67049916157E+01 -0.17892163228E+02  0.38968410966E+02  0.47787268776E+02  0.19999989660E+02 0.  0.
        -12    1    1    2    0    0  0.67049916157E+01  0.17892163228E+02 -0.38968410966E+02  0.43400731224E+02  0.00000000000E+00 0.  1.
         11    1    3    3    0    0  0.29277431313E+01 -0.30234296132E+01  0.51096605275E+01  0.66197762377E+01  0.51100000000E-03 0. -1.
        -11    1    3    3    0    0 -0.81424768292E+01 -0.34402872363E+01  0.25334959572E+02  0.26832735267E+02  0.51100000000E-03 0.  1.
        -12    1    3    3    0    0 -0.14902579179E+01 -0.11428446379E+02  0.85237908665E+01  0.14334757271E+02  0.00000000000E+00 0.  1.
</event>
<event>
 7    1  0.2110035E-010  0.4778728E+02  0.7816164E-02  0.1312668E+00
        -11   -1    0    0    0    0  0.00000000000E+00  0.00000000000E+00  0.45593999997E+02  0.45594000000E+02  0.51100000000E-03 0. -1.
         11   -1    0    0    0    0 -0.00000000000E+00 -0.00000000000E+00 -0.45593999997E+02  0.45594000000E+02  0.51100000000E-03 0.  1.
    9900012    2    1    2    0    0 -0.35085263905E+02  0.23671661428E+02 -0.96072458018E+01  0.47787280306E+02  0.20000042229E+02 0.  0.
        -12    1    1    2    0    0  0.35085263905E+02 -0.23671661428E+02  0.96072458018E+01  0.43400719694E+02  0.00000000000E+00 0.  1.
         11    1    3    3    0    0 -0.15102690926E+02  0.21674388870E+02 -0.40305602726E+01  0.26722945617E+02  0.51100000000E-03 0. -1.
        -11    1    3    3    0    0 -0.55389462413E+01  0.66870845601E+00 -0.29934498535E+01  0.63314957751E+01  0.51100000000E-03 0.  1.
         12    1    3    3    0    0 -0.14443626738E+02  0.13285641018E+01 -0.25832356757E+01  0.14732838914E+02  0.00000000000E+00 0. -1.
</event>
<event>
 7    1  0.2110035E-010  0.4778727E+02  0.7816164E-02  0.1312668E+00
        -11   -1    0    0    0    0  0.00000000000E+00  0.00000000000E+00  0.45593999997E+02  0.45594000000E+02  0.51100000000E-03 0.  1.
         11   -1    0    0    0    0 -0.00000000000E+00 -0.00000000000E+00 -0.45593999997E+02  0.45594000000E+02  0.51100000000E-03 0. -1.
    9900012    2    1    2    0    0 -0.24672010402E+02 -0.11951215448E+02 -0.33646449539E+02  0.47787271728E+02  0.20000003116E+02 0.  0.
        -12    1    1    2    0    0  0.24672010402E+02  0.11951215448E+02  0.33646449539E+02  0.43400728272E+02  0.00000000000E+00 0.  1.
         11    1    3    3    0    0 -0.84366509666E+01 -0.33199397751E+01 -0.20374511003E+02  0.22300667670E+02  0.51100000000E-03 0. -1.
        -11    1    3    3    0    0 -0.10631426410E+02  0.62055847299E+00 -0.45047355002E+01  0.11563086202E+02  0.51100000000E-03 0.  1.
        -12    1    3    3    0    0 -0.56039330254E+01 -0.92518341459E+01 -0.87672030356E+01  0.13923517856E+02  0.00000000000E+00 0.  1.
</event>
<event>
 7    1  0.2150673E-010  0.4778727E+02  0.7816164E-02  0.1312668E+00
        -11   -1    0    0    0    0  0.00000000000E+00  0.00000000000E+00  0.45593999997E+02  0.45594000000E+02  0.51100000000E-03 0. -1.
         11   -1    0    0    0    0 -0.00000000000E+00 -0.00000000000E+00 -0.45593999997E+02  0.45594000000E+02  0.51100000000E-03 0.  1.
    9900012    2    1    2    0    0  0.26351797311E+02 -0.34349014296E+02  0.30579585669E+01  0.47787272872E+02  0.20000008331E+02 0.  0.
        -12    1    1    2    0    0 -0.26351797311E+02  0.34349014296E+02 -0.30579585669E+01  0.43400727128E+02  0.00000000000E+00 0.  1.
         11    1    3    3    0    0  0.12109896454E+02 -0.10983316713E+02 -0.87249648266E+00  0.16372052056E+02  0.51100000000E-03 0. -1.
        -11    1    3    3    0    0 -0.91631046307E+00  0.94462524661E+00  0.23857348319E+01  0.27246417509E+01  0.51100000000E-03 0.  1.
        -12    1    3    3    0    0  0.15158211320E+02 -0.24310322830E+02  0.15447202176E+01  0.28690579065E+02  0.00000000000E+00 0.  1.
</event>
<event>
 7    1  0.2110035E-010  0.4778726E+02  0.7816164E-02  0.1312668E+00
        -11   -1    0    0    0    0  0.00000000000E+00  0.00000000000E+00  0.45593999997E+02  0.45594000000E+02  0.51100000000E-03 0. -1.
         11   -1    0    0    0    0 -0.00000000000E+00 -0.00000000000E+00 -0.45593999997E+02  0.45594000000E+02  0.51100000000E-03 0.  1.
    9900012    2    1    2    0    0  0.41290627435E+02 -0.52840897700E+01 -0.12279526867E+02  0.47787259237E+02  0.19999946166E+02 0.  0.
        -12    1    1    2    0    0 -0.41290627435E+02  0.52840897700E+01  0.12279526867E+02  0.43400740763E+02  0.00000000000E+00 0.  1.
         11    1    3    3    0    0  0.16090333499E+02 -0.54734184893E+01 -0.15113728071E+01  0.17062865823E+02  0.51100000000E-03 0. -1.
        -11    1    3    3    0    0  0.21307288750E+02  0.56220711035E+01 -0.74445413467E+01  0.23260039413E+02  0.51100000000E-03 0.  1.
         12    1    3    3    0    0  0.38930051867E+01 -0.54327423842E+01 -0.33236127134E+01  0.74643540019E+01  0.00000000000E+00 0. -1.
</event>
<event>
 7    1  0.2110035E-010  0.4778726E+02  0.7816164E-02  0.1312668E+00
        -11   -1    0    0    0    0  0.00000000000E+00  0.00000000000E+00  0.45593999997E+02  0.45594000000E+02  0.51100000000E-03 0. -1.
         11   -1    0    0    0    0 -0.00000000000E+00 -0.00000000000E+00 -0.45593999997E+02  0.45594000000E+02  0.51100000000E-03 0.  1.
    9900012    2    1    2    0    0  0.42774607133E+02 -0.24316514869E+01  0.69313781556E+01  0.47787263284E+02  0.19999964617E+02 0.  0.
        -12    1    1    2    0    0 -0.42774607133E+02  0.24316514869E+01 -0.69313781556E+01  0.43400736716E+02  0.00000000000E+00 0.  1.
         11    1    3    3    0    0  0.16297543454E+02  0.80041875739E+01  0.59348721929E+01  0.19102346703E+02  0.51100000000E-03 0. -1.
        -11    1    3    3    0    0  0.46870555694E+01 -0.25698247497E+01 -0.98004172802E+00  0.54344246434E+01  0.51100000000E-03 0.  1.
         12    1    3    3    0    0  0.21790008110E+02 -0.78660143110E+01  0.19765476907E+01  0.23250491938E+02  0.00000000000E+00 0. -1.
</event>
<event>
 7    1  0.2110035E-010  0.4778727E+02  0.7816164E-02  0.1312668E+00
        -11   -1    0    0    0    0  0.00000000000E+00  0.00000000000E+00  0.45593999997E+02  0.45594000000E+02  0.51100000000E-03 0.  1.
         11   -1    0    0    0    0 -0.00000000000E+00 -0.00000000000E+00 -0.45593999997E+02  0.45594000000E+02  0.51100000000E-03 0. -1.
    9900012    2    1    2    0    0 -0.42153742762E+02  0.80556503191E+01  0.64646389071E+01  0.47787273196E+02  0.20000009811E+02 0.  0.
        -12    1    1    2    0    0  0.42153742762E+02 -0.80556503191E+01 -0.64646389071E+01  0.43400726804E+02  0.00000000000E+00 0.  1.
         11    1    3    3    0    0 -0.45849056277E+01  0.79846826784E+00 -0.44211173321E+01  0.64191268811E+01  0.51100000000E-03 0. -1.
        -11    1    3    3    0    0 -0.90697340627E+01  0.61798001802E+01  0.57497830553E+01  0.12389915725E+02  0.51100000000E-03 0.  1.
        -12    1    3    3    0    0 -0.28499103071E+02  0.10773818710E+01  0.51359731839E+01  0.28978230590E+02  0.00000000000E+00 0.  1.
</event>
<event>
 7    1  0.2110035E-010  0.4778728E+02  0.7816164E-02  0.1312668E+00
        -11   -1    0    0    0    0  0.00000000000E+00  0.00000000000E+00  0.45593999997E+02  0.45594000000E+02  0.51100000000E-03 0.  1.
         11   -1    0    0    0    0 -0.00000000000E+00 -0.00000000000E+00 -0.45593999997E+02  0.45594000000E+02  0.51100000000E-03 0. -1.
    9900012    2    1    2    0    0 -0.45822860528E+00  0.19934427291E+02 -0.38549077644E+02  0.47787277056E+02  0.20000027408E+02 0.  0.
        -12    1    1    2    0    0  0.45822860528E+00 -0.19934427291E+02  0.38549077644E+02  0.43400722944E+02  0.00000000000E+00 0.  1.
         11    1    3    3    0    0  0.60512431094E+01  0.39587069344E+01 -0.66496463851E+01  0.98237824218E+01  0.51100000000E-03 0. -1.
        -11    1    3    3    0    0  0.24124807881E+01  0.72526891403E+01 -0.84013734226E+01  0.11358020909E+02  0.51100000000E-03 0.  1.
        -12    1    3    3    0    0 -0.89219525028E+01  0.87230312161E+01 -0.23498057836E+02  0.26605473725E+02  0.00000000000E+00 0.  1.
</event>
<event>
 7    1  0.2110035E-010  0.4778723E+02  0.7816164E-02  0.1312668E+00
        -11   -1    0    0    0    0  0.00000000000E+00  0.00000000000E+00  0.45593999997E+02  0.45594000000E+02  0.51100000000E-03 0. -1.
         11   -1    0    0    0    0 -0.00000000000E+00 -0.00000000000E+00 -0.45593999997E+02  0.45594000000E+02  0.51100000000E-03 0.  1.
    9900012    2    1    2    0    0 -0.36879987884E+02 -0.19812995193E+02  0.11442820207E+02  0.47787234809E+02  0.19999834787E+02 0.  0.
        -12    1    1    2    0    0  0.36879987884E+02  0.19812995193E+02 -0.11442820207E+02  0.43400765191E+02  0.00000000000E+00 0.  1.
         11    1    3    3    0    0 -0.17055261923E+02 -0.97827458715E+01 -0.38089949602E+01  0.20027294348E+02  0.51100000000E-03 0. -1.
        -11    1    3    3    0    0 -0.25126091761E+01  0.58524210477E+00  0.33268054474E+01  0.42099106807E+01  0.51100000000E-03 0.  1.
        -12    1    3    3    0    0 -0.17312116786E+02 -0.10615491426E+02  0.11925009720E+02  0.23550029780E+02  0.00000000000E+00 0.  1.
</event>
<event>
 7    1  0.2475786E-010  0.4778728E+02  0.7816164E-02  0.1312668E+00
        -11   -1    0    0    0    0  0.00000000000E+00  0.00000000000E+00  0.45593999997E+02  0.45594000000E+02  0.51100000000E-03 0. -1.
         11   -1    0    0    0    0 -0.00000000000E+00 -0.00000000000E+00 -0.45593999997E+02  0.45594000000E+02  0.51100000000E-03 0.  1.
    9900012    2    1    2    0    0  0.19523949556E+02  0.10190081793E+02  0.37397858317E+02  0.47787283647E+02  0.20000057462E+02 0.  0.
        -12    1    1    2    0    0 -0.19523949556E+02 -0.10190081793E+02 -0.37397858317E+02  0.43400716353E+02  0.00000000000E+00 0.  1.
         11    1    3    3    0    0  0.13044504638E+02  0.52323285183E+00  0.16982594009E+02  0.21420582938E+02  0.51100000000E-03 0. -1.
        -11    1    3    3    0    0 -0.19576010689E+01 -0.73580428490E+00  0.74029399273E+01  0.76926672695E+01  0.51100000000E-03 0.  1.
        -12    1    3    3    0    0  0.84370459870E+01  0.10402653226E+02  0.13012324381E+02  0.18674033440E+02  0.00000000000E+00 0.  1.
</event>
<event>
 7    1  0.3044306E-010  0.4778727E+02  0.7816164E-02  0.1312668E+00
        -11   -1    0    0    0    0  0.00000000000E+00  0.00000000000E+00  0.45593999997E+02  0.45594000000E+02  0.51100000000E-03 0. -1.
         11   -1    0    0    0    0 -0.00000000000E+00 -0.00000000000E+00 -0.45593999997E+02  0.45594000000E+02  0.51100000000E-03 0.  1.
    9900012    2    1    2    0    0  0.13912107968E+02 -0.90644629211E-01  0.41110439461E+02  0.47787271928E+02  0.20000004026E+02 0.  0.
        -12    1    1    2    0    0 -0.13912107968E+02  0.90644629211E-01 -0.41110439461E+02  0.43400728072E+02  0.00000000000E+00 0.  1.
         11    1    3    3    0    0  0.52607797795E+01  0.19394015763E+01  0.12881716357E+02  0.14049046193E+02  0.51100000000E-03 0. -1.
        -11    1    3    3    0    0 -0.33239669056E+01 -0.34410615997E+00  0.36292648280E+00  0.33613808073E+01  0.51100000000E-03 0.  1.
        -12    1    3    3    0    0  0.11975295094E+02 -0.16859400455E+01  0.27865796621E+02  0.30376844927E+02  0.00000000000E+00 0.  1.
</event>
<event>
 7    1  0.2110035E-010  0.4778727E+02  0.7816164E-02  0.1312668E+00
        -11   -1    0    0    0    0  0.00000000000E+00  0.00000000000E+00  0.45593999997E+02  0.45594000000E+02  0.51100000000E-03 0. -1.
         11   -1    0    0    0    0 -0.00000000000E+00 -0.00000000000E+00 -0.45593999997E+02  0.45594000000E+02  0.51100000000E-03 0.  1.
    9900012    2    1    2    0    0  0.25968665495E+01 -0.33753289828E+02  0.27158703127E+02  0.47787269066E+02  0.19999990978E+02 0.  0.
        -12    1    1    2    0    0 -0.25968665495E+01  0.33753289828E+02 -0.27158703127E+02  0.43400730934E+02  0.00000000000E+00 0.  1.
         11    1    3    3    0    0 -0.38908156588E+00 -0.18023116863E+02  0.21617531570E+02  0.28147855999E+02  0.51100000000E-03 0. -1.
        -11    1    3    3    0    0  0.11902910688E+01  0.12357754374E+01  0.99483635210E+00  0.19833389495E+01  0.51100000000E-03 0.  1.
         12    1    3    3    0    0  0.17956570466E+01 -0.16965948403E+02  0.45463352056E+01  0.17656074117E+02  0.00000000000E+00 0. -1.
</event>
<event>
 7    1  0.2110035E-010  0.4778727E+02  0.7816164E-02  0.1312668E+00
        -11   -1    0    0    0    0  0.00000000000E+00  0.00000000000E+00  0.45593999997E+02  0.45594000000E+02  0.51100000000E-03 0.  1.
         11   -1    0    0    0    0 -0.00000000000E+00 -0.00000000000E+00 -0.45593999997E+02  0.45594000000E+02  0.51100000000E-03 0. -1.
    9900012    2    1    2    0    0  0.35317450436E+02  0.23796034232E+02 -0.83695709606E+01  0.47787271106E+02  0.20000000279E+02 0.  0.
        -12    1    1    2    0    0 -0.35317450436E+02 -0.23796034232E+02  0.83695709606E+01  0.43400728894E+02  0.00000000000E+00 0.  1.
         11    1    3    3    0    0  0.10322119605E+02  0.44743189030E+01  0.45876283502E+01  0.12149568590E+02  0.51100000000E-03 0. -1.
        -11    1    3    3    0    0  0.58243427520E+01 -0.20426724645E+00 -0.20026789873E+01  0.61624197348E+01  0.51100000000E-03 0.  1.
         12    1    3    3    0    0  0.19170988079E+02  0.19525982576E+02 -0.10954520323E+02  0.29475282781E+02  0.00000000000E+00 0. -1.
</event>
<event>
 7    1  0.2110035E-010  0.4778727E+02  0.7816164E-02  0.1312668E+00
        -11   -1    0    0    0    0  0.00000000000E+00  0.00000000000E+00  0.45593999997E+02  0.45594000000E+02  0.51100000000E-03 0. -1.
         11   -1    0    0    0    0 -0.00000000000E+00 -0.00000000000E+00 -0.45593999997E+02  0.45594000000E+02  0.51100000000E-03 0.  1.
    9900012    2    1    2    0    0 -0.37656520287E+02 -0.21025325515E+02 -0.48523550796E+01  0.47787272092E+02  0.20000004778E+02 0.  0.
        -12    1    1    2    0    0  0.37656520287E+02  0.21025325515E+02  0.48523550796E+01  0.43400727908E+02  0.00000000000E+00 0.  1.
         11    1    3    3    0    0 -0.19110552659E+02 -0.11948303960E+02  0.27583798319E+01  0.22706471545E+02  0.51100000000E-03 0. -1.
        -11    1    3    3    0    0 -0.16973585327E+01 -0.63305095904E+01 -0.38473364037E+01  0.75998931129E+01  0.51100000000E-03 0.  1.
         12    1    3    3    0    0 -0.16848609095E+02 -0.27465119638E+01 -0.37633985077E+01  0.17480907435E+02  0.00000000000E+00 0. -1.
</event>
<event>
 7    1  0.2110035E-010  0.4778727E+02  0.7816164E-02  0.1312668E+00
        -11   -1    0    0    0    0  0.00000000000E+00  0.00000000000E+00  0.45593999997E+02  0.45594000000E+02  0.51100000000E-03 0. -1.
         11   -1    0    0    0    0 -0.00000000000E+00 -0.00000000000E+00 -0.45593999997E+02  0.45594000000E+02  0.51100000000E-03 0.  1.
    9900012    2    1    2    0    0  0.15193085122E+02  0.40041968593E+02 -0.70309502236E+01  0.47787270221E+02  0.19999996245E+02 0.  0.
        -12    1    1    2    0    0 -0.15193085122E+02 -0.40041968593E+02  0.70309502236E+01  0.43400729779E+02  0.00000000000E+00 0.  1.
         11    1    3    3    0    0  0.50736851692E+01  0.20072684878E+01  0.41541424974E+01  0.68577188720E+01  0.51100000000E-03 0.  1.
        -11    1    3    3    0    0  0.52597802008E+01  0.20942584065E+02 -0.65725900889E+01  0.22571133241E+02  0.51100000000E-03 0. -1.
        -12    1    3    3    0    0  0.48596197524E+01  0.17092116040E+02 -0.46125026321E+01  0.18358418107E+02  0.00000000000E+00 0.  1.
</event>
<event>
 7    1  0.2110035E-010  0.4778727E+02  0.7816164E-02  0.1312668E+00
        -11   -1    0    0    0    0  0.00000000000E+00  0.00000000000E+00  0.45593999997E+02  0.45594000000E+02  0.51100000000E-03 0. -1.
         11   -1    0    0    0    0 -0.00000000000E+00 -0.00000000000E+00 -0.45593999997E+02  0.45594000000E+02  0.51100000000E-03 0.  1.
    9900012    2    1    2    0    0 -0.33789032558E+02 -0.27200245747E+02 -0.14390948159E+01  0.47787273234E+02  0.20000009984E+02 0.  0.
        -12    1    1    2    0    0  0.33789032558E+02  0.27200245747E+02  0.14390948159E+01  0.43400726766E+02  0.00000000000E+00 0.  1.
         11    1    3    3    0    0 -0.31572640366E+01 -0.70623972624E+01  0.42585555747E+01  0.88306889388E+01  0.51100000000E-03 0. -1.
        -11    1    3    3    0    0 -0.71211268783E+01 -0.10713315763E+02  0.52256416516E+00  0.12874729365E+02  0.51100000000E-03 0.  1.
         12    1    3    3    0    0 -0.23510641643E+02 -0.94245327216E+01 -0.62202145558E+01  0.26081854931E+02  0.00000000000E+00 0. -1.
</event>
<event>
 7    1  0.2110035E-010  0.4778727E+02  0.7816164E-02  0.1312668E+00
        -11   -1    0    0    0    0  0.00000000000E+00  0.00000000000E+00  0.45593999997E+02  0.45594000000E+02  0.51100000000E-03 0. -1.
         11   -1    0    0    0    0 -0.00000000000E+00 -0.00000000000E+00 -0.45593999997E+02  0.45594000000E+02  0.51100000000E-03 0.  1.
    9900012    2    1    2    0    0 -0.43109863946E+02 -0.35937750321E+01  0.34996579546E+01  0.47787271962E+02  0.20000004184E+02 0.  0.
        -12    1    1    2    0    0  0.43109863946E+02  0.35937750321E+01 -0.34996579546E+01  0.43400728038E+02  0.00000000000E+00 0.  1.
         11    1    3    3    0    0 -0.47612640578E+01 -0.20842651023E+01  0.31702880123E+01  0.60880639605E+01  0.51100000000E-03 0. -1.
        -11    1    3    3    0    0 -0.20082527161E+02  0.21823501933E+01 -0.74149987783E+01  0.21518660662E+02  0.51100000000E-03 0.  1.
        -12    1    3    3    0    0 -0.18266072727E+02 -0.36918601230E+01  0.77443687206E+01  0.20180547339E+02  0.00000000000E+00 0.  1.
</event>
<event>
 7    1  0.2110035E-010  0.4778727E+02  0.7816164E-02  0.1312668E+00
        -11   -1    0    0    0    0  0.00000000000E+00  0.00000000000E+00  0.45593999997E+02  0.45594000000E+02  0.51100000000E-03 0. -1.
         11   -1    0    0    0    0 -0.00000000000E+00 -0.00000000000E+00 -0.45593999997E+02  0.45594000000E+02  0.51100000000E-03 0.  1.
    9900012    2    1    2    0    0  0.57512025700E+01 -0.81299577413E+00  0.43010300690E+02  0.47787271221E+02  0.20000000805E+02 0.  0.
        -12    1    1    2    0    0 -0.57512025700E+01  0.81299577413E+00 -0.43010300690E+02  0.43400728779E+02  0.00000000000E+00 0.  1.
         11    1    3    3    0    0  0.83611671443E-01  0.85986653731E+00  0.23742463026E+00  0.89595317387E+00  0.51100000000E-03 0. -1.
        -11    1    3    3    0    0  0.52965723757E+00  0.70121739168E+01  0.78471430470E+01  0.10537019222E+02  0.51100000000E-03 0.  1.
         12    1    3    3    0    0  0.51379336610E+01 -0.86850362282E+01  0.34925733012E+02  0.36354298825E+02  0.00000000000E+00 0. -1.
</event>
<event>
 7    1  0.2110035E-010  0.4778727E+02  0.7816164E-02  0.1312668E+00
        -11   -1    0    0    0    0  0.00000000000E+00  0.00000000000E+00  0.45593999997E+02  0.45594000000E+02  0.51100000000E-03 0.  1.
         11   -1    0    0    0    0 -0.00000000000E+00 -0.00000000000E+00 -0.45593999997E+02  0.45594000000E+02  0.51100000000E-03 0. -1.
    9900012    2    1    2    0    0  0.15203227610E+02 -0.14035109067E+02 -0.38151029518E+02  0.47787268791E+02  0.19999989724E+02 0.  0.
        -12    1    1    2    0    0 -0.15203227610E+02  0.14035109067E+02  0.38151029518E+02  0.43400731209E+02  0.00000000000E+00 0.  1.
         11    1    3    3    0    0  0.10400749076E+02 -0.19831119548E+01 -0.14138282521E+02  0.17663503256E+02  0.51100000000E-03 0. -1.
        -11    1    3    3    0    0  0.24900789483E+00 -0.20223944910E+01  0.13691135153E+01  0.24549045782E+01  0.51100000000E-03 0.  1.
         12    1    3    3    0    0  0.45534706389E+01 -0.10029602621E+02 -0.25381860512E+02  0.27668860956E+02  0.00000000000E+00 0. -1.
</event>
<event>
 7    1  0.2110035E-010  0.4778724E+02  0.7816164E-02  0.1312668E+00
        -11   -1    0    0    0    0  0.00000000000E+00  0.00000000000E+00  0.45593999997E+02  0.45594000000E+02  0.51100000000E-03 0. -1.
         11   -1    0    0    0    0 -0.00000000000E+00 -0.00000000000E+00 -0.45593999997E+02  0.45594000000E+02  0.51100000000E-03 0.  1.
    9900012    2    1    2    0    0 -0.19600757483E+02  0.78595921623E+01  0.37916528404E+02  0.47787239533E+02  0.19999856328E+02 0.  0.
        -12    1    1    2    0    0  0.19600757483E+02 -0.78595921623E+01 -0.37916528404E+02  0.43400760467E+02  0.00000000000E+00 0.  1.
         11    1    3    3    0    0 -0.55741752345E+01 -0.39861548872E+01  0.11236322766E+02  0.13161147742E+02  0.51100000000E-03 0. -1.
        -11    1    3    3    0    0 -0.16185329739E+01  0.56134458764E+01  0.16224899067E+02  0.17244644780E+02  0.51100000000E-03 0.  1.
        -12    1    3    3    0    0 -0.12408049274E+02  0.62323011731E+01  0.10455306571E+02  0.17381447011E+02  0.00000000000E+00 0.  1.
</event>
<event>
 7    1  0.2110035E-010  0.4778727E+02  0.7816164E-02  0.1312668E+00
        -11   -1    0    0    0    0  0.00000000000E+00  0.00000000000E+00  0.45593999997E+02  0.45594000000E+02  0.51100000000E-03 0.  1.
         11   -1    0    0    0    0 -0.00000000000E+00 -0.00000000000E+00 -0.45593999997E+02  0.45594000000E+02  0.51100000000E-03 0. -1.
    9900012    2    1    2    0    0 -0.23965549246E+02  0.31394477201E+02 -0.17990621552E+02  0.47787271744E+02  0.20000003188E+02 0.  0.
        -12    1    1    2    0    0  0.23965549246E+02 -0.31394477201E+02  0.17990621552E+02  0.43400728256E+02  0.00000000000E+00 0.  1.
         11    1    3    3    0    0 -0.14114940385E+02  0.16547706196E+02 -0.10293763447E+02  0.24062827943E+02  0.51100000000E-03 0. -1.
        -11    1    3    3    0    0 -0.73405630535E+01  0.13555927348E+02 -0.11324363886E+02  0.19128205611E+02  0.51100000000E-03 0.  1.
        -12    1    3    3    0    0 -0.25100458073E+01  0.12908436564E+01  0.36275057820E+01  0.45962381900E+01  0.00000000000E+00 0.  1.
</event>
<event>
 7    1  0.2110035E-010  0.4778727E+02  0.7816164E-02  0.1312668E+00
        -11   -1    0    0    0    0  0.00000000000E+00  0.00000000000E+00  0.45593999997E+02  0.45594000000E+02  0.51100000000E-03 0.  1.
         11   -1    0    0    0    0 -0.00000000000E+00 -0.00000000000E+00 -0.45593999997E+02  0.45594000000E+02  0.51100000000E-03 0. -1.
    9900012    2    1    2    0    0 -0.40003114057E+02 -0.61893044606E+00 -0.16822339007E+02  0.47787270757E+02  0.19999998691E+02 0.  0.
        -12    1    1    2    0    0  0.40003114057E+02  0.61893044606E+00  0.16822339007E+02  0.43400729243E+02  0.00000000000E+00 0.  1.
         11    1    3    3    0    0 -0.31927822592E+02 -0.16859861685E+01 -0.88727713633E+01  0.33180634062E+02  0.51100000000E-03 0. -1.
        -11    1    3    3    0    0  0.28569438930E+00 -0.13182514520E+01  0.13271917944E+01  0.18923124729E+01  0.51100000000E-03 0.  1.
        -12    1    3    3    0    0 -0.83609858540E+01  0.23853071744E+01 -0.92767594382E+01  0.12714324223E+02  0.00000000000E+00 0.  1.
</event>
<event>
 7    1  0.2110035E-010  0.4778727E+02  0.7816164E-02  0.1312668E+00
        -11   -1    0    0    0    0  0.00000000000E+00  0.00000000000E+00  0.45593999997E+02  0.45594000000E+02  0.51100000000E-03 0. -1.
         11   -1    0    0    0    0 -0.00000000000E+00 -0.00000000000E+00 -0.45593999997E+02  0.45594000000E+02  0.51100000000E-03 0.  1.
    9900012    2    1    2    0    0  0.22286897040E+01 -0.24568077184E+02  0.35708063868E+02  0.47787270749E+02  0.19999998652E+02 0.  0.
        -12    1    1    2    0    0 -0.22286897040E+01  0.24568077184E+02 -0.35708063868E+02  0.43400729251E+02  0.00000000000E+00 0.  1.
         11    1    3    3    0    0 -0.73545763540E+01 -0.11968465247E+02  0.12727657279E+02  0.18955928197E+02  0.51100000000E-03 0. -1.
        -11    1    3    3    0    0  0.29128813792E+01 -0.17386053650E+00  0.65998016074E+01  0.72161268652E+01  0.51100000000E-03 0.  1.
         12    1    3    3    0    0  0.66703846788E+01 -0.12425751401E+02  0.16380604981E+02  0.21615215687E+02  0.00000000000E+00 0. -1.
</event>
<event>
 7    1  0.2110035E-010  0.4778727E+02  0.7816164E-02  0.1312668E+00
        -11   -1    0    0    0    0  0.00000000000E+00  0.00000000000E+00  0.45593999997E+02  0.45594000000E+02  0.51100000000E-03 0.  1.
         11   -1    0    0    0    0 -0.00000000000E+00 -0.00000000000E+00 -0.45593999997E+02  0.45594000000E+02  0.51100000000E-03 0. -1.
    9900012    2    1    2    0    0 -0.32427521383E+01 -0.36702009953E+02 -0.22936219953E+02  0.47787272336E+02  0.20000005890E+02 0.  0.
        -12    1    1    2    0    0  0.32427521383E+01  0.36702009953E+02  0.22936219953E+02  0.43400727664E+02  0.00000000000E+00 0.  1.
         11    1    3    3    0    0 -0.44537820439E+01 -0.19858928502E+02 -0.20793926750E+02  0.29096401937E+02  0.51100000000E-03 0. -1.
        -11    1    3    3    0    0  0.35557104654E+01 -0.35080965917E+01 -0.10747959302E+01  0.51093057418E+01  0.51100000000E-03 0.  1.
         12    1    3    3    0    0 -0.23446805598E+01 -0.13334984859E+02 -0.10674972732E+01  0.13581564657E+02  0.00000000000E+00 0. -1.
</event>
<event>
 7    1  0.2110035E-010  0.4778727E+02  0.7816164E-02  0.1312668E+00
        -11   -1    0    0    0    0  0.00000000000E+00  0.00000000000E+00  0.45593999997E+02  0.45594000000E+02  0.51100000000E-03 0.  1.
         11   -1    0    0    0    0 -0.00000000000E+00 -0.00000000000E+00 -0.45593999997E+02  0.45594000000E+02  0.51100000000E-03 0. -1.
    9900012    2    1    2    0    0  0.19937912528E+02  0.15245469228E+02 -0.35407321710E+02  0.47787272833E+02  0.20000008154E+02 0.  0.
        -12    1    1    2    0    0 -0.19937912528E+02 -0.15245469228E+02  0.35407321710E+02  0.43400727167E+02  0.00000000000E+00 0.  1.
         11    1    3    3    0    0  0.13783912376E+02  0.25668244250E+01 -0.13912408967E+02  0.19751960701E+02  0.51100000000E-03 0. -1.
        -11    1    3    3    0    0 -0.22099014074E+01  0.42347546175E+00 -0.46418765281E+00  0.22974912699E+01  0.51100000000E-03 0.  1.
        -12    1    3    3    0    0  0.83639015593E+01  0.12255169341E+02 -0.21030725091E+02  0.25737820862E+02  0.00000000000E+00 0.  1.
</event>
<event>
 7    1  0.2110035E-010  0.4778727E+02  0.7816164E-02  0.1312668E+00
        -11   -1    0    0    0    0  0.00000000000E+00  0.00000000000E+00  0.45593999997E+02  0.45594000000E+02  0.51100000000E-03 0. -1.
         11   -1    0    0    0    0 -0.00000000000E+00 -0.00000000000E+00 -0.45593999997E+02  0.45594000000E+02  0.51100000000E-03 0.  1.
    9900012    2    1    2    0    0 -0.12338309423E+02  0.40920761784E+02  0.75419274635E+01  0.47787270810E+02  0.19999998929E+02 0.  0.
        -12    1    1    2    0    0  0.12338309423E+02 -0.40920761784E+02 -0.75419274635E+01  0.43400729190E+02  0.00000000000E+00 0.  1.
         11    1    3    3    0    0 -0.12980671541E+02  0.21420219250E+02  0.96748498983E+01  0.26850071642E+02  0.51100000000E-03 0. -1.
        -11    1    3    3    0    0  0.20030818069E+01  0.93305461006E+00 -0.29724011679E+00  0.22296366472E+01  0.51100000000E-03 0.  1.
         12    1    3    3    0    0 -0.13607196892E+01  0.18567487924E+02 -0.18356823180E+01  0.18707562520E+02  0.00000000000E+00 0. -1.
</event>
<event>
 7    1  0.2110035E-010  0.4778727E+02  0.7816164E-02  0.1312668E+00
        -11   -1    0    0    0    0  0.00000000000E+00  0.00000000000E+00  0.45593999997E+02  0.45594000000E+02  0.51100000000E-03 0.  1.
         11   -1    0    0    0    0 -0.00000000000E+00 -0.00000000000E+00 -0.45593999997E+02  0.45594000000E+02  0.51100000000E-03 0. -1.
    9900012    2    1    2    0    0  0.21751267691E+02 -0.12526342800E+01 -0.37535802843E+02  0.47787271505E+02  0.20000002100E+02 0.  0.
        -12    1    1    2    0    0 -0.21751267691E+02  0.12526342800E+01  0.37535802843E+02  0.43400728495E+02  0.00000000000E+00 0.  1.
         11    1    3    3    0    0  0.82625313047E+00 -0.94489745112E+00  0.11455191225E+01  0.16993350905E+01  0.51100000000E-03 0. -1.
        -11    1    3    3    0    0  0.11161322818E+02  0.66767105886E+01 -0.21512962189E+02  0.25138837159E+02  0.51100000000E-03 0.  1.
         12    1    3    3    0    0  0.97636917425E+01 -0.69844474174E+01 -0.17168359777E+02  0.20949099255E+02  0.00000000000E+00 0. -1.
</event>
<event>
 7    1  0.2110035E-010  0.4778727E+02  0.7816164E-02  0.1312668E+00
        -11   -1    0    0    0    0  0.00000000000E+00  0.00000000000E+00  0.45593999997E+02  0.45594000000E+02  0.51100000000E-03 0. -1.
         11   -1    0    0    0    0 -0.00000000000E+00 -0.00000000000E+00 -0.45593999997E+02  0.45594000000E+02  0.51100000000E-03 0.  1.
    9900012    2    1    2    0    0 -0.58337531804E+01 -0.28843928268E+02 -0.31900129994E+02  0.47787272268E+02  0.20000005578E+02 0.  0.
        -12    1    1    2    0    0  0.58337531804E+01  0.28843928268E+02  0.31900129994E+02  0.43400727732E+02  0.00000000000E+00 0.  1.
         11    1    3    3    0    0 -0.30123750986E+01 -0.19459655191E+02 -0.12691018199E+02  0.23426790798E+02  0.51100000000E-03 0. -1.
        -11    1    3    3    0    0  0.85438259142E+00 -0.36174264514E+01  0.25919380359E+00  0.37259797950E+01  0.51100000000E-03 0.  1.
        -12    1    3    3    0    0 -0.36757606733E+01 -0.57668466253E+01 -0.19468305598E+02  0.20634501675E+02  0.00000000000E+00 0.  1.
</event>
<event>
 7    1  0.2110035E-010  0.4778727E+02  0.7816164E-02  0.1312668E+00
        -11   -1    0    0    0    0  0.00000000000E+00  0.00000000000E+00  0.45593999997E+02  0.45594000000E+02  0.51100000000E-03 0.  1.
         11   -1    0    0    0    0 -0.00000000000E+00 -0.00000000000E+00 -0.45593999997E+02  0.45594000000E+02  0.51100000000E-03 0. -1.
    9900012    2    1    2    0    0 -0.57004341812E+01  0.11188719618E+02 -0.41544447259E+02  0.47787268502E+02  0.19999988407E+02 0.  0.
        -12    1    1    2    0    0  0.57004341812E+01 -0.11188719618E+02  0.41544447259E+02  0.43400731498E+02  0.00000000000E+00 0.  1.
         11    1    3    3    0    0 -0.43191083313E+01 -0.19126625960E+01 -0.54187597931E+01  0.71885974251E+01  0.51100000000E-03 0. -1.
        -11    1    3    3    0    0 -0.54800744761E+01  0.12469601273E+02 -0.21984839744E+02  0.25862237935E+02  0.51100000000E-03 0.  1.
        -12    1    3    3    0    0  0.40987486262E+01  0.63178094110E+00 -0.14140847721E+02  0.14736433142E+02  0.00000000000E+00 0.  1.
</event>
<event>
 7    1  0.2110035E-010  0.4778727E+02  0.7816164E-02  0.1312668E+00
        -11   -1    0    0    0    0  0.00000000000E+00  0.00000000000E+00  0.45593999997E+02  0.45594000000E+02  0.51100000000E-03 0. -1.
         11   -1    0    0    0    0 -0.00000000000E+00 -0.00000000000E+00 -0.45593999997E+02  0.45594000000E+02  0.51100000000E-03 0.  1.
    9900012    2    1    2    0    0  0.27523465373E+02  0.63032144110E+01  0.32959850089E+02  0.47787269868E+02  0.19999994638E+02 0.  0.
        -12    1    1    2    0    0 -0.27523465373E+02 -0.63032144110E+01 -0.32959850089E+02  0.43400730132E+02  0.00000000000E+00 0.  1.
         11    1    3    3    0    0  0.46667430163E+01 -0.36065727380E+01  0.83253973709E+01  0.10202847590E+02  0.51100000000E-03 0. -1.
        -11    1    3    3    0    0  0.46112050565E+01 -0.17822216685E+01  0.23234595643E+00  0.49490919423E+01  0.51100000000E-03 0.  1.
        -12    1    3    3    0    0  0.18245517300E+02  0.11692008817E+02  0.24402106762E+02  0.32635330336E+02  0.00000000000E+00 0.  1.
</event>
<event>
 7    1  0.2110035E-010  0.4778727E+02  0.7816164E-02  0.1312668E+00
        -11   -1    0    0    0    0  0.00000000000E+00  0.00000000000E+00  0.45593999997E+02  0.45594000000E+02  0.51100000000E-03 0.  1.
         11   -1    0    0    0    0 -0.00000000000E+00 -0.00000000000E+00 -0.45593999997E+02  0.45594000000E+02  0.51100000000E-03 0. -1.
    9900012    2    1    2    0    0  0.23460380247E+02  0.63761234130E+01 -0.35952453579E+02  0.47787270635E+02  0.19999998134E+02 0.  0.
        -12    1    1    2    0    0 -0.23460380247E+02 -0.63761234130E+01  0.35952453579E+02  0.43400729365E+02  0.00000000000E+00 0.  1.
         11    1    3    3    0    0  0.13582018537E+02 -0.90278073634E+00 -0.68454225017E+01  0.15236339787E+02  0.51100000000E-03 0.  1.
        -11    1    3    3    0    0  0.98243585740E+01  0.33210526451E+01 -0.18191228502E+02  0.20939632441E+02  0.51100000000E-03 0. -1.
         12    1    3    3    0    0  0.54003135142E-01  0.39578515042E+01 -0.10915802575E+02  0.11611298408E+02  0.00000000000E+00 0. -1.
</event>
<event>
 7    1  0.2110035E-010  0.4778724E+02  0.7816164E-02  0.1312668E+00
        -11   -1    0    0    0    0  0.00000000000E+00  0.00000000000E+00  0.45593999997E+02  0.45594000000E+02  0.51100000000E-03 0. -1.
         11   -1    0    0    0    0 -0.00000000000E+00 -0.00000000000E+00 -0.45593999997E+02  0.45594000000E+02  0.51100000000E-03 0.  1.
    9900012    2    1    2    0    0  0.20200012034E+02 -0.14103506298E+00  0.38413095854E+02  0.47787236065E+02  0.19999840512E+02 0.  0.
        -12    1    1    2    0    0 -0.20200012034E+02  0.14103506298E+00 -0.38413095854E+02  0.43400763935E+02  0.00000000000E+00 0.  1.
         11    1    3    3    0    0  0.65131624859E+01 -0.60466864939E+01  0.92648550889E+01  0.12838272594E+02  0.51100000000E-03 0.  1.
        -11    1    3    3    0    0  0.29450989284E+01  0.56646213155E+01  0.38298899694E+01  0.74451057605E+01  0.51100000000E-03 0. -1.
         12    1    3    3    0    0  0.10741750620E+02  0.24103011549E+00  0.25318350796E+02  0.27503857710E+02  0.00000000000E+00 0. -1.
</event>
<event>
 7    1  0.2110035E-010  0.4778727E+02  0.7816164E-02  0.1312668E+00
        -11   -1    0    0    0    0  0.00000000000E+00  0.00000000000E+00  0.45593999997E+02  0.45594000000E+02  0.51100000000E-03 0.  1.
         11   -1    0    0    0    0 -0.00000000000E+00 -0.00000000000E+00 -0.45593999997E+02  0.45594000000E+02  0.51100000000E-03 0. -1.
    9900012    2    1    2    0    0 -0.99356075190E+01  0.28748997165E+02 -0.30958078957E+02  0.47787265127E+02  0.19999973020E+02 0.  0.
        -12    1    1    2    0    0  0.99356075190E+01 -0.28748997165E+02  0.30958078957E+02  0.43400734873E+02  0.00000000000E+00 0.  1.
         11    1    3    3    0    0  0.39458844667E+01  0.24281553860E+01 -0.46578526377E+01  0.65697438503E+01  0.51100000000E-03 0. -1.
        -11    1    3    3    0    0  0.15491773376E+01  0.30035622131E+01 -0.51442777258E+01  0.61550735148E+01  0.51100000000E-03 0.  1.
         12    1    3    3    0    0 -0.15430669323E+02  0.23317279566E+02 -0.21155948594E+02  0.35062447762E+02  0.00000000000E+00 0. -1.
</event>
<event>
 7    1  0.2110035E-010  0.4778727E+02  0.7816164E-02  0.1312668E+00
        -11   -1    0    0    0    0  0.00000000000E+00  0.00000000000E+00  0.45593999997E+02  0.45594000000E+02  0.51100000000E-03 0. -1.
         11   -1    0    0    0    0 -0.00000000000E+00 -0.00000000000E+00 -0.45593999997E+02  0.45594000000E+02  0.51100000000E-03 0.  1.
    9900012    2    1    2    0    0  0.43090422302E+02 -0.16323165893E+01 -0.49167577808E+01  0.47787268916E+02  0.19999990294E+02 0.  0.
        -12    1    1    2    0    0 -0.43090422302E+02  0.16323165893E+01  0.49167577808E+01  0.43400731084E+02  0.00000000000E+00 0.  1.
         11    1    3    3    0    0  0.23104906573E+02  0.33180795345E+00  0.38033007019E+01  0.23418195933E+02  0.51100000000E-03 0. -1.
        -11    1    3    3    0    0  0.13806248069E+02 -0.31891819464E+01 -0.72217482789E+00  0.14188195938E+02  0.51100000000E-03 0.  1.
        -12    1    3    3    0    0  0.61792676603E+01  0.12250574036E+01 -0.79978836548E+01  0.10180877045E+02  0.00000000000E+00 0.  1.
</event>
<event>
 7    1  0.2110035E-010  0.4778728E+02  0.7816164E-02  0.1312668E+00
        -11   -1    0    0    0    0  0.00000000000E+00  0.00000000000E+00  0.45593999997E+02  0.45594000000E+02  0.51100000000E-03 0.  1.
         11   -1    0    0    0    0 -0.00000000000E+00 -0.00000000000E+00 -0.45593999997E+02  0.45594000000E+02  0.51100000000E-03 0. -1.
    9900012    2    1    2    0    0  0.41216789832E+02  0.12577605028E+02  0.51577425184E+01  0.47787283183E+02  0.20000055347E+02 0.  0.
        -12    1    1    2    0    0 -0.41216789832E+02 -0.12577605028E+02 -0.51577425184E+01  0.43400716817E+02  0.00000000000E+00 0.  1.
         11    1    3    3    0    0  0.12943190741E+02 -0.11526077745E+01 -0.39379566174E+01  0.13578004044E+02  0.51100000000E-03 0. -1.
        -11    1    3    3    0    0  0.10043806715E+02  0.30124050329E+01  0.77131313866E+01  0.13017105418E+02  0.51100000000E-03 0.  1.
        -12    1    3    3    0    0  0.18229792377E+02  0.10717807770E+02  0.13825677493E+01  0.21192173722E+02  0.00000000000E+00 0.  1.
</event>
<event>
 7    1  0.2110035E-010  0.4778727E+02  0.7816164E-02  0.1312668E+00
        -11   -1    0    0    0    0  0.00000000000E+00  0.00000000000E+00  0.45593999997E+02  0.45594000000E+02  0.51100000000E-03 0.  1.
         11   -1    0    0    0    0 -0.00000000000E+00 -0.00000000000E+00 -0.45593999997E+02  0.45594000000E+02  0.51100000000E-03 0. -1.
    9900012    2    1    2    0    0  0.31259135983E+02 -0.25888034518E+02 -0.15372030911E+02  0.47787271343E+02  0.20000001361E+02 0.  0.
        -12    1    1    2    0    0 -0.31259135983E+02  0.25888034518E+02  0.15372030911E+02  0.43400728657E+02  0.00000000000E+00 0.  1.
         11    1    3    3    0    0  0.14916622218E+02 -0.16769856196E+02 -0.41027472860E+01  0.22815920555E+02  0.51100000000E-03 0. -1.
        -11    1    3    3    0    0  0.15993507652E+02 -0.32603999053E+01 -0.72592493236E+01  0.17863907623E+02  0.51100000000E-03 0.  1.
         12    1    3    3    0    0  0.34900611414E+00 -0.58577784166E+01 -0.40100343011E+01  0.71074431648E+01  0.00000000000E+00 0. -1.
</event>
<event>
 7    1  0.2110035E-010  0.4778727E+02  0.7816164E-02  0.1312668E+00
        -11   -1    0    0    0    0  0.00000000000E+00  0.00000000000E+00  0.45593999997E+02  0.45594000000E+02  0.51100000000E-03 0.  1.
         11   -1    0    0    0    0 -0.00000000000E+00 -0.00000000000E+00 -0.45593999997E+02  0.45594000000E+02  0.51100000000E-03 0. -1.
    9900012    2    1    2    0    0  0.36323589981E+02  0.23388655573E+02 -0.41462303351E+01  0.47787267004E+02  0.19999981576E+02 0.  0.
        -12    1    1    2    0    0 -0.36323589981E+02 -0.23388655573E+02  0.41462303351E+01  0.43400732996E+02  0.00000000000E+00 0.  1.
         11    1    3    3    0    0  0.21820966826E+02  0.49858330566E+01  0.78319387146E+00  0.22397020279E+02  0.51100000000E-03 0. -1.
        -11    1    3    3    0    0  0.13508831227E+02  0.11168802433E+02 -0.43840622306E+01  0.18067945949E+02  0.51100000000E-03 0.  1.
        -12    1    3    3    0    0  0.99379192858E+00  0.72340200833E+01 -0.54536197602E+00  0.73223007756E+01  0.00000000000E+00 0.  1.
</event>
<event>
 7    1  0.2110035E-010  0.4778727E+02  0.7816164E-02  0.1312668E+00
        -11   -1    0    0    0    0  0.00000000000E+00  0.00000000000E+00  0.45593999997E+02  0.45594000000E+02  0.51100000000E-03 0. -1.
         11   -1    0    0    0    0 -0.00000000000E+00 -0.00000000000E+00 -0.45593999997E+02  0.45594000000E+02  0.51100000000E-03 0.  1.
    9900012    2    1    2    0    0 -0.23475664159E+02 -0.23111795122E+02  0.28255289010E+02  0.47787271452E+02  0.20000001857E+02 0.  0.
        -12    1    1    2    0    0  0.23475664159E+02  0.23111795122E+02 -0.28255289010E+02  0.43400728548E+02  0.00000000000E+00 0.  1.
         11    1    3    3    0    0  0.57251602716E+00 -0.70126916588E+01  0.12979968760E+02  0.14764322137E+02  0.51100000000E-03 0. -1.
        -11    1    3    3    0    0 -0.92252595498E+01 -0.53366527146E+01  0.79429119583E+01  0.13291919598E+02  0.51100000000E-03 0.  1.
        -12    1    3    3    0    0 -0.14822920637E+02 -0.10762450749E+02  0.73324082912E+01  0.19731029717E+02  0.00000000000E+00 0.  1.
</event>
<event>
 7    1  0.2110035E-010  0.4778727E+02  0.7816164E-02  0.1312668E+00
        -11   -1    0    0    0    0  0.00000000000E+00  0.00000000000E+00  0.45593999997E+02  0.45594000000E+02  0.51100000000E-03 0.  1.
         11   -1    0    0    0    0 -0.00000000000E+00 -0.00000000000E+00 -0.45593999997E+02  0.45594000000E+02  0.51100000000E-03 0. -1.
    9900012    2    1    2    0    0 -0.25137487428E+02  0.34019351556E+02 -0.97166694899E+01  0.47787271660E+02  0.20000002807E+02 0.  0.
        -12    1    1    2    0    0  0.25137487428E+02 -0.34019351556E+02  0.97166694899E+01  0.43400728340E+02  0.00000000000E+00 0.  1.
         11    1    3    3    0    0 -0.22142202054E+02  0.27249753584E+02 -0.62783721897E+01  0.35668531506E+02  0.51100000000E-03 0. -1.
        -11    1    3    3    0    0  0.12265666940E+01  0.72611703592E+01 -0.23723971252E+01  0.77367518521E+01  0.51100000000E-03 0.  1.
        -12    1    3    3    0    0 -0.42218520683E+01 -0.49157238745E+00 -0.10659001750E+01  0.43819883023E+01  0.00000000000E+00 0.  1.
</event>
<event>
 7    1  0.2110035E-010  0.4778727E+02  0.7816164E-02  0.1312668E+00
        -11   -1    0    0    0    0  0.00000000000E+00  0.00000000000E+00  0.45593999997E+02  0.45594000000E+02  0.51100000000E-03 0. -1.
         11   -1    0    0    0    0 -0.00000000000E+00 -0.00000000000E+00 -0.45593999997E+02  0.45594000000E+02  0.51100000000E-03 0.  1.
    9900012    2    1    2    0    0 -0.15032887101E+02  0.11349548880E+01  0.40698248886E+02  0.47787270979E+02  0.19999999700E+02 0.  0.
        -12    1    1    2    0    0  0.15032887101E+02 -0.11349548880E+01 -0.40698248886E+02  0.43400729021E+02  0.00000000000E+00 0.  1.
         11    1    3    3    0    0 -0.78561124550E+00  0.38366967993E+01  0.14370563014E+02  0.14894646990E+02  0.51100000000E-03 0. -1.
        -11    1    3    3    0    0 -0.11858030993E+02 -0.47425651150E+01  0.26826213194E+02  0.29711118079E+02  0.51100000000E-03 0.  1.
        -12    1    3    3    0    0 -0.23892448627E+01  0.20408232038E+01 -0.49852732194E+00  0.31815059097E+01  0.00000000000E+00 0.  1.
</event>
<event>
 7    1  0.2110035E-010  0.4778727E+02  0.7816164E-02  0.1312668E+00
        -11   -1    0    0    0    0  0.00000000000E+00  0.00000000000E+00  0.45593999997E+02  0.45594000000E+02  0.51100000000E-03 0.  1.
         11   -1    0    0    0    0 -0.00000000000E+00 -0.00000000000E+00 -0.45593999997E+02  0.45594000000E+02  0.51100000000E-03 0. -1.
    9900012    2    1    2    0    0 -0.29858635994E+02 -0.10104394566E+02 -0.29832640869E+02  0.47787269658E+02  0.19999993681E+02 0.  0.
        -12    1    1    2    0    0  0.29858635994E+02  0.10104394566E+02  0.29832640869E+02  0.43400730342E+02  0.00000000000E+00 0.  1.
         11    1    3    3    0    0 -0.97951370874E+01 -0.16005473899E+01 -0.62118360675E+01  0.11708687804E+02  0.51100000000E-03 0. -1.
        -11    1    3    3    0    0  0.10927984637E+01 -0.48495390771E+01 -0.84008410571E+01  0.97614736833E+01  0.51100000000E-03 0.  1.
        -12    1    3    3    0    0 -0.21156297370E+02 -0.36543080986E+01 -0.15219963745E+02  0.26317108171E+02  0.00000000000E+00 0.  1.
</event>
<event>
 7    1  0.2110035E-010  0.4778727E+02  0.7816164E-02  0.1312668E+00
        -11   -1    0    0    0    0  0.00000000000E+00  0.00000000000E+00  0.45593999997E+02  0.45594000000E+02  0.51100000000E-03 0.  1.
         11   -1    0    0    0    0 -0.00000000000E+00 -0.00000000000E+00 -0.45593999997E+02  0.45594000000E+02  0.51100000000E-03 0. -1.
    9900012    2    1    2    0    0 -0.28851111652E+02  0.15910101723E+02 -0.28250758070E+02  0.47787270606E+02  0.19999998003E+02 0.  0.
        -12    1    1    2    0    0  0.28851111652E+02 -0.15910101723E+02  0.28250758070E+02  0.43400729394E+02  0.00000000000E+00 0.  1.
         11    1    3    3    0    0 -0.17813702428E+02  0.79025283375E+01 -0.18957370162E+02  0.27187494037E+02  0.51100000000E-03 0. -1.
        -11    1    3    3    0    0 -0.99919782830E+01  0.10569619937E+02 -0.47885729286E+01  0.15312965963E+02  0.51100000000E-03 0.  1.
         12    1    3    3    0    0 -0.10454309412E+01 -0.25620465521E+01 -0.45048149797E+01  0.52868106065E+01  0.00000000000E+00 0. -1.
</event>
<event>
 7    1  0.2110035E-010  0.4778726E+02  0.7816164E-02  0.1312668E+00
        -11   -1    0    0    0    0  0.00000000000E+00  0.00000000000E+00  0.45593999997E+02  0.45594000000E+02  0.51100000000E-03 0.  1.
         11   -1    0    0    0    0 -0.00000000000E+00 -0.00000000000E+00 -0.45593999997E+02  0.45594000000E+02  0.51100000000E-03 0. -1.
    9900012    2    1    2    0    0 -0.21440184602E+02 -0.15980214609E+02 -0.34184428727E+02  0.47787263346E+02  0.19999964899E+02 0.  0.
        -12    1    1    2    0    0  0.21440184602E+02  0.15980214609E+02  0.34184428727E+02  0.43400736654E+02  0.00000000000E+00 0.  1.
         11    1    3    3    0    0 -0.39901549087E+01  0.17273549221E+01 -0.51292186180E+01  0.67241337818E+01  0.51100000000E-03 0. -1.
        -11    1    3    3    0    0 -0.12511529932E+01  0.73862401043E+00  0.13507997922E+01  0.19838370853E+01  0.51100000000E-03 0.  1.
         12    1    3    3    0    0 -0.16198876700E+02 -0.18446193541E+02 -0.30406009902E+02  0.39079292479E+02  0.00000000000E+00 0. -1.
</event>
<event>
 7    1  0.2110035E-010  0.4778727E+02  0.7816164E-02  0.1312668E+00
        -11   -1    0    0    0    0  0.00000000000E+00  0.00000000000E+00  0.45593999997E+02  0.45594000000E+02  0.51100000000E-03 0.  1.
         11   -1    0    0    0    0 -0.00000000000E+00 -0.00000000000E+00 -0.45593999997E+02  0.45594000000E+02  0.51100000000E-03 0. -1.
    9900012    2    1    2    0    0  0.14280312332E+02  0.39386648822E+02 -0.11330827583E+02  0.47787273285E+02  0.20000010214E+02 0.  0.
        -12    1    1    2    0    0 -0.14280312332E+02 -0.39386648822E+02  0.11330827583E+02  0.43400726715E+02  0.00000000000E+00 0.  1.
         11    1    3    3    0    0  0.85875476231E+01  0.30974143383E+02 -0.25207437126E+01  0.32241241937E+02  0.51100000000E-03 0. -1.
        -11    1    3    3    0    0 -0.12607973725E+01  0.47103919345E+01 -0.40753034186E+01  0.63549587257E+01  0.51100000000E-03 0.  1.
         12    1    3    3    0    0  0.69535620814E+01  0.37021135038E+01 -0.47347804516E+01  0.91910726218E+01  0.00000000000E+00 0. -1.
</event>
<event>
 7    1  0.2110035E-010  0.4778725E+02  0.7816164E-02  0.1312668E+00
        -11   -1    0    0    0    0  0.00000000000E+00  0.00000000000E+00  0.45593999997E+02  0.45594000000E+02  0.51100000000E-03 0. -1.
         11   -1    0    0    0    0 -0.00000000000E+00 -0.00000000000E+00 -0.45593999997E+02  0.45594000000E+02  0.51100000000E-03 0.  1.
    9900012    2    1    2    0    0 -0.21604117039E+02 -0.35061834188E+02  0.13695059635E+02  0.47787254061E+02  0.19999922565E+02 0.  0.
        -12    1    1    2    0    0  0.21604117039E+02  0.35061834188E+02 -0.13695059635E+02  0.43400745939E+02  0.00000000000E+00 0.  1.
         11    1    3    3    0    0 -0.28965318223E+01  0.91932559594E+00  0.35741502023E+00  0.30598695898E+01  0.51100000000E-03 0. -1.
        -11    1    3    3    0    0 -0.22323335777E+01 -0.16806969171E+02  0.21787444210E+01  0.17093988810E+02  0.51100000000E-03 0.  1.
         12    1    3    3    0    0 -0.16475251639E+02 -0.19174190613E+02  0.11158900194E+02  0.27633395661E+02  0.00000000000E+00 0. -1.
</event>
<event>
 7    1  0.2110035E-010  0.4778727E+02  0.7816164E-02  0.1312668E+00
        -11   -1    0    0    0    0  0.00000000000E+00  0.00000000000E+00  0.45593999997E+02  0.45594000000E+02  0.51100000000E-03 0.  1.
         11   -1    0    0    0    0 -0.00000000000E+00 -0.00000000000E+00 -0.45593999997E+02  0.45594000000E+02  0.51100000000E-03 0. -1.
    9900012    2    1    2    0    0  0.10051126629E+02  0.41702952406E+02 -0.65925669799E+01  0.47787270452E+02  0.19999997299E+02 0.  0.
        -12    1    1    2    0    0 -0.10051126629E+02 -0.41702952406E+02  0.65925669799E+01  0.43400729548E+02  0.00000000000E+00 0.  1.
         11    1    3    3    0    0  0.95994882485E+01  0.32100889441E+02 -0.12469009152E+02  0.35750433103E+02  0.51100000000E-03 0. -1.
        -11    1    3    3    0    0  0.22683304195E+01  0.51800524706E+01  0.24932703319E+01  0.61801831445E+01  0.51100000000E-03 0.  1.
         12    1    3    3    0    0 -0.18166920388E+01  0.44220104947E+01  0.33831718397E+01  0.58566542049E+01  0.00000000000E+00 0. -1.
</event>
<event>
 7    1  0.2110035E-010  0.4778727E+02  0.7816164E-02  0.1312668E+00
        -11   -1    0    0    0    0  0.00000000000E+00  0.00000000000E+00  0.45593999997E+02  0.45594000000E+02  0.51100000000E-03 0.  1.
         11   -1    0    0    0    0 -0.00000000000E+00 -0.00000000000E+00 -0.45593999997E+02  0.45594000000E+02  0.51100000000E-03 0. -1.
    9900012    2    1    2    0    0 -0.10710625741E+02  0.15440593150E+02 -0.39121527410E+02  0.47787270426E+02  0.19999997182E+02 0.  0.
        -12    1    1    2    0    0  0.10710625741E+02 -0.15440593150E+02  0.39121527410E+02  0.43400729574E+02  0.00000000000E+00 0.  1.
         11    1    3    3    0    0  0.14810338523E+01 -0.25611761361E+01 -0.43331301891E+01  0.52468182710E+01  0.51100000000E-03 0.  1.
        -11    1    3    3    0    0 -0.48719384203E+01  0.99551041954E+01 -0.26928389254E+02  0.29120062356E+02  0.51100000000E-03 0. -1.
        -12    1    3    3    0    0 -0.73197211727E+01  0.80466650909E+01 -0.78600079669E+01  0.13420389800E+02  0.00000000000E+00 0.  1.
</event>
<event>
 7    1  0.2110035E-010  0.4778727E+02  0.7816164E-02  0.1312668E+00
        -11   -1    0    0    0    0  0.00000000000E+00  0.00000000000E+00  0.45593999997E+02  0.45594000000E+02  0.51100000000E-03 0.  1.
         11   -1    0    0    0    0 -0.00000000000E+00 -0.00000000000E+00 -0.45593999997E+02  0.45594000000E+02  0.51100000000E-03 0. -1.
    9900012    2    1    2    0    0 -0.15537260183E+02 -0.48379153167E+01 -0.40234453242E+02  0.47787272975E+02  0.20000008804E+02 0.  0.
        -12    1    1    2    0    0  0.15537260183E+02  0.48379153167E+01  0.40234453242E+02  0.43400727025E+02  0.00000000000E+00 0.  1.
         11    1    3    3    0    0 -0.85167139016E+01 -0.10230162872E+01 -0.77140974304E+01  0.11536389272E+02  0.51100000000E-03 0.  1.
        -11    1    3    3    0    0  0.34668722665E+01 -0.39209205565E+01 -0.77509262618E+01  0.93525226276E+01  0.51100000000E-03 0. -1.
         12    1    3    3    0    0 -0.10487418548E+02  0.10602152703E+00 -0.24769429549E+02  0.26898361076E+02  0.00000000000E+00 0. -1.
</event>
<event>
 7    1  0.2110035E-010  0.4778724E+02  0.7816164E-02  0.1312668E+00
        -11   -1    0    0    0    0  0.00000000000E+00  0.00000000000E+00  0.45593999997E+02  0.45594000000E+02  0.51100000000E-03 0.  1.
         11   -1    0    0    0    0 -0.00000000000E+00 -0.00000000000E+00 -0.45593999997E+02  0.45594000000E+02  0.51100000000E-03 0. -1.
    9900012    2    1    2    0    0 -0.16027537139E+02  0.10981137110E+02 -0.38809260767E+02  0.47787239175E+02  0.19999854692E+02 0.  0.
        -12    1    1    2    0    0  0.16027537139E+02 -0.10981137110E+02  0.38809260767E+02  0.43400760825E+02  0.00000000000E+00 0.  1.
         11    1    3    3    0    0 -0.10168471496E+02  0.43512437888E+01 -0.83769746888E+01  0.13874611356E+02  0.51100000000E-03 0.  1.
        -11    1    3    3    0    0  0.33332931812E+01  0.31190586996E+01 -0.57540335736E+01  0.73449488243E+01  0.51100000000E-03 0. -1.
         12    1    3    3    0    0 -0.91923588239E+01  0.35108346213E+01 -0.24678252504E+02  0.26567678995E+02  0.00000000000E+00 0. -1.
</event>
<event>
 7    1  0.2110035E-010  0.4778727E+02  0.7816164E-02  0.1312668E+00
        -11   -1    0    0    0    0  0.00000000000E+00  0.00000000000E+00  0.45593999997E+02  0.45594000000E+02  0.51100000000E-03 0.  1.
         11   -1    0    0    0    0 -0.00000000000E+00 -0.00000000000E+00 -0.45593999997E+02  0.45594000000E+02  0.51100000000E-03 0. -1.
    9900012    2    1    2    0    0  0.17514471407E+02 -0.26057185271E+02 -0.29964808088E+02  0.47787270321E+02  0.19999996702E+02 0.  0.
        -12    1    1    2    0    0 -0.17514471407E+02  0.26057185271E+02  0.29964808088E+02  0.43400729679E+02  0.00000000000E+00 0.  1.
         11    1    3    3    0    0  0.11796017160E+01 -0.34755022407E+01 -0.79672498482E+01  0.87719807591E+01  0.51100000000E-03 0. -1.
        -11    1    3    3    0    0  0.13625382997E+02 -0.18371663805E+02 -0.81351958100E+01  0.24276542256E+02  0.51100000000E-03 0.  1.
        -12    1    3    3    0    0  0.27094866935E+01 -0.42100192259E+01 -0.13862362430E+02  0.14738747306E+02  0.00000000000E+00 0.  1.
</event>
<event>
 7    1  0.2110035E-010  0.4778727E+02  0.7816164E-02  0.1312668E+00
        -11   -1    0    0    0    0  0.00000000000E+00  0.00000000000E+00  0.45593999997E+02  0.45594000000E+02  0.51100000000E-03 0.  1.
         11   -1    0    0    0    0 -0.00000000000E+00 -0.00000000000E+00 -0.45593999997E+02  0.45594000000E+02  0.51100000000E-03 0. -1.
    9900012    2    1    2    0    0  0.46578359843E+00 -0.16007227592E+02 -0.40338257536E+02  0.47787270622E+02  0.19999998072E+02 0.  0.
        -12    1    1    2    0    0 -0.46578359843E+00  0.16007227592E+02  0.40338257536E+02  0.43400729378E+02  0.00000000000E+00 0.  1.
         11    1    3    3    0    0  0.76291723098E+01 -0.54981671075E+01 -0.19590278481E+02  0.21730465317E+02  0.51100000000E-03 0. -1.
        -11    1    3    3    0    0  0.19623597252E+01 -0.41772972347E+01 -0.52599015378E+01  0.69976590604E+01  0.51100000000E-03 0.  1.
        -12    1    3    3    0    0 -0.91257484365E+01 -0.63317632502E+01 -0.15488077517E+02  0.19059146244E+02  0.00000000000E+00 0.  1.
</event>
<event>
 7    1  0.2110035E-010  0.4778725E+02  0.7816164E-02  0.1312668E+00
        -11   -1    0    0    0    0  0.00000000000E+00  0.00000000000E+00  0.45593999997E+02  0.45594000000E+02  0.51100000000E-03 0.  1.
         11   -1    0    0    0    0 -0.00000000000E+00 -0.00000000000E+00 -0.45593999997E+02  0.45594000000E+02  0.51100000000E-03 0. -1.
    9900012    2    1    2    0    0 -0.35079952163E+02 -0.18330348743E+02 -0.17805070499E+02  0.47787248114E+02  0.19999895452E+02 0.  0.
        -12    1    1    2    0    0  0.35079952163E+02  0.18330348743E+02  0.17805070499E+02  0.43400751886E+02  0.00000000000E+00 0.  1.
         11    1    3    3    0    0 -0.89442344752E+01 -0.10291402411E+02 -0.62820951303E+01  0.15012561854E+02  0.51100000000E-03 0. -1.
        -11    1    3    3    0    0 -0.18901877376E+02 -0.72121152896E+00 -0.12123786199E+02  0.22467472187E+02  0.51100000000E-03 0.  1.
        -12    1    3    3    0    0 -0.72338403115E+01 -0.73177348024E+01  0.60081083071E+00  0.10307214073E+02  0.00000000000E+00 0.  1.
</event>
<event>
 7    1  0.2110035E-010  0.4778727E+02  0.7816164E-02  0.1312668E+00
        -11   -1    0    0    0    0  0.00000000000E+00  0.00000000000E+00  0.45593999997E+02  0.45594000000E+02  0.51100000000E-03 0.  1.
         11   -1    0    0    0    0 -0.00000000000E+00 -0.00000000000E+00 -0.45593999997E+02  0.45594000000E+02  0.51100000000E-03 0. -1.
    9900012    2    1    2    0    0 -0.28543180391E+02 -0.11841740600E+02 -0.30474307373E+02  0.47787269855E+02  0.19999994578E+02 0.  0.
        -12    1    1    2    0    0  0.28543180391E+02  0.11841740600E+02  0.30474307373E+02  0.43400730145E+02  0.00000000000E+00 0.  1.
         11    1    3    3    0    0 -0.14631175338E+02 -0.47827844904E+01 -0.11243537809E+02  0.19062094900E+02  0.51100000000E-03 0. -1.
        -11    1    3    3    0    0  0.20844149838E+01  0.32727521973E+00  0.60411264035E+00  0.21947317006E+01  0.51100000000E-03 0.  1.
        -12    1    3    3    0    0 -0.15996420036E+02 -0.73862313298E+01 -0.19834882204E+02  0.26530443255E+02  0.00000000000E+00 0.  1.
</event>
<event>
 7    1  0.2211894E-010  0.4778726E+02  0.7816164E-02  0.1312668E+00
        -11   -1    0    0    0    0  0.00000000000E+00  0.00000000000E+00  0.45593999997E+02  0.45594000000E+02  0.51100000000E-03 0. -1.
         11   -1    0    0    0    0 -0.00000000000E+00 -0.00000000000E+00 -0.45593999997E+02  0.45594000000E+02  0.51100000000E-03 0.  1.
    9900012    2    1    2    0    0  0.35826442154E+02  0.21911613964E+02 -0.10953136670E+02  0.47787262831E+02  0.19999962550E+02 0.  0.
        -12    1    1    2    0    0 -0.35826442154E+02 -0.21911613964E+02  0.10953136670E+02  0.43400737169E+02  0.00000000000E+00 0.  1.
         11    1    3    3    0    0  0.17071819200E+02  0.95538213916E+01 -0.56552457875E+01  0.20364290294E+02  0.51100000000E-03 0. -1.
        -11    1    3    3    0    0  0.77569289951E+01 -0.18881797089E+01  0.16126497135E+01  0.81446798223E+01  0.51100000000E-03 0.  1.
        -12    1    3    3    0    0  0.10997693959E+02  0.14245972282E+02 -0.69105405957E+01  0.19278292715E+02  0.00000000000E+00 0.  1.
</event>
<event>
 7    1  0.2110035E-010  0.4778727E+02  0.7816164E-02  0.1312668E+00
        -11   -1    0    0    0    0  0.00000000000E+00  0.00000000000E+00  0.45593999997E+02  0.45594000000E+02  0.51100000000E-03 0. -1.
         11   -1    0    0    0    0 -0.00000000000E+00 -0.00000000000E+00 -0.45593999997E+02  0.45594000000E+02  0.51100000000E-03 0.  1.
    9900012    2    1    2    0    0 -0.32203045568E+02 -0.28375814179E+02  0.64342946701E+01  0.47787272793E+02  0.20000007973E+02 0.  0.
        -12    1    1    2    0    0  0.32203045568E+02  0.28375814179E+02 -0.64342946701E+01  0.43400727207E+02  0.00000000000E+00 0.  1.
         11    1    3    3    0    0 -0.29735265048E+02 -0.23151612070E+02  0.86942170616E+01  0.38675218674E+02  0.51100000000E-03 0. -1.
        -11    1    3    3    0    0  0.70204654780E+00  0.11378347685E+01  0.58048059015E+00  0.14575648502E+01  0.51100000000E-03 0.  1.
        -12    1    3    3    0    0 -0.31698270680E+01 -0.63620368771E+01 -0.28404029817E+01  0.76544892687E+01  0.00000000000E+00 0.  1.
</event>
<event>
 7    1  0.2110035E-010  0.4778726E+02  0.7816164E-02  0.1312668E+00
        -11   -1    0    0    0    0  0.00000000000E+00  0.00000000000E+00  0.45593999997E+02  0.45594000000E+02  0.51100000000E-03 0.  1.
         11   -1    0    0    0    0 -0.00000000000E+00 -0.00000000000E+00 -0.45593999997E+02  0.45594000000E+02  0.51100000000E-03 0. -1.
    9900012    2    1    2    0    0 -0.28937553173E+02  0.14153439396E+02 -0.29084737798E+02  0.47787264947E+02  0.19999972197E+02 0.  0.
        -12    1    1    2    0    0  0.28937553173E+02 -0.14153439396E+02  0.29084737798E+02  0.43400735053E+02  0.00000000000E+00 0.  1.
         11    1    3    3    0    0 -0.67460150064E+01 -0.15592165132E+01 -0.12491402787E+02  0.14281982301E+02  0.51100000000E-03 0. -1.
        -11    1    3    3    0    0  0.11161592081E+01  0.11830748096E+01 -0.68191040607E+00  0.17636551381E+01  0.51100000000E-03 0.  1.
        -12    1    3    3    0    0 -0.23307697375E+02  0.14529581100E+02 -0.15911424605E+02  0.31741627507E+02  0.00000000000E+00 0.  1.
</event>
<event>
 7    1  0.2110035E-010  0.4778727E+02  0.7816164E-02  0.1312668E+00
        -11   -1    0    0    0    0  0.00000000000E+00  0.00000000000E+00  0.45593999997E+02  0.45594000000E+02  0.51100000000E-03 0. -1.
         11   -1    0    0    0    0 -0.00000000000E+00 -0.00000000000E+00 -0.45593999997E+02  0.45594000000E+02  0.51100000000E-03 0.  1.
    9900012    2    1    2    0    0  0.35715367955E+02 -0.67513283406E+01  0.23716148973E+02  0.47787266543E+02  0.19999979477E+02 0.  0.
        -12    1    1    2    0    0 -0.35715367955E+02  0.67513283406E+01 -0.23716148973E+02  0.43400733457E+02  0.00000000000E+00 0.  1.
         11    1    3    3    0    0  0.50019025115E+01 -0.66587220112E+01  0.32745299623E+01  0.89487515494E+01  0.51100000000E-03 0.  1.
        -11    1    3    3    0    0  0.50415529089E+01  0.47179101643E+01  0.43389996254E+01  0.81549279618E+01  0.51100000000E-03 0. -1.
        -12    1    3    3    0    0  0.25671912534E+02 -0.48105164936E+01  0.16102619385E+02  0.30683587032E+02  0.00000000000E+00 0.  1.
</event>
<event>
 7    1  0.2110035E-010  0.4778728E+02  0.7816164E-02  0.1312668E+00
        -11   -1    0    0    0    0  0.00000000000E+00  0.00000000000E+00  0.45593999997E+02  0.45594000000E+02  0.51100000000E-03 0. -1.
         11   -1    0    0    0    0 -0.00000000000E+00 -0.00000000000E+00 -0.45593999997E+02  0.45594000000E+02  0.51100000000E-03 0.  1.
    9900012    2    1    2    0    0 -0.94426138393E+01 -0.32601022253E+02  0.27048719607E+02  0.47787276038E+02  0.20000022767E+02 0.  0.
        -12    1    1    2    0    0  0.94426138393E+01  0.32601022253E+02 -0.27048719607E+02  0.43400723962E+02  0.00000000000E+00 0.  1.
         11    1    3    3    0    0 -0.30513729017E+01 -0.11564764936E+01  0.87356625818E+00  0.33780812207E+01  0.51100000000E-03 0. -1.
        -11    1    3    3    0    0  0.50404410128E+00 -0.91910707345E+01 -0.21434994371E+00  0.92073768176E+01  0.51100000000E-03 0.  1.
         12    1    3    3    0    0 -0.68952850389E+01 -0.22253475025E+02  0.26389503292E+02  0.35201818000E+02  0.00000000000E+00 0. -1.
</event>
<event>
 7    1  0.2110035E-010  0.4778727E+02  0.7816164E-02  0.1312668E+00
        -11   -1    0    0    0    0  0.00000000000E+00  0.00000000000E+00  0.45593999997E+02  0.45594000000E+02  0.51100000000E-03 0. -1.
         11   -1    0    0    0    0 -0.00000000000E+00 -0.00000000000E+00 -0.45593999997E+02  0.45594000000E+02  0.51100000000E-03 0.  1.
    9900012    2    1    2    0    0 -0.31188301655E+02  0.23805725089E+02 -0.18552635991E+02  0.47787274092E+02  0.20000013895E+02 0.  0.
        -12    1    1    2    0    0  0.31188301655E+02 -0.23805725089E+02  0.18552635991E+02  0.43400725908E+02  0.00000000000E+00 0.  1.
         11    1    3    3    0    0 -0.69773435433E-01  0.59736632247E-01  0.14636148307E+01  0.14664942657E+01  0.51100000000E-03 0. -1.
        -11    1    3    3    0    0 -0.18531853049E+02  0.22344910220E+02 -0.15228512706E+02  0.32781583086E+02  0.51100000000E-03 0.  1.
        -12    1    3    3    0    0 -0.12586675171E+02  0.14010782362E+01 -0.47877381157E+01  0.13539196740E+02  0.00000000000E+00 0.  1.
</event>
<event>
 7    1  0.2110035E-010  0.4778727E+02  0.7816164E-02  0.1312668E+00
        -11   -1    0    0    0    0  0.00000000000E+00  0.00000000000E+00  0.45593999997E+02  0.45594000000E+02  0.51100000000E-03 0.  1.
         11   -1    0    0    0    0 -0.00000000000E+00 -0.00000000000E+00 -0.45593999997E+02  0.45594000000E+02  0.51100000000E-03 0. -1.
    9900012    2    1    2    0    0  0.10987715981E+02  0.83529238759E+01 -0.41147561530E+02  0.47787273513E+02  0.20000011254E+02 0.  0.
        -12    1    1    2    0    0 -0.10987715981E+02 -0.83529238759E+01  0.41147561530E+02  0.43400726487E+02  0.00000000000E+00 0.  1.
         11    1    3    3    0    0 -0.12674477621E+01  0.34890164952E+01 -0.27795786924E+02  0.28042564628E+02  0.51100000000E-03 0. -1.
        -11    1    3    3    0    0  0.94116685117E+01  0.18228678727E+01 -0.12017500887E+02  0.15372790224E+02  0.51100000000E-03 0.  1.
         12    1    3    3    0    0  0.28434952309E+01  0.30410395081E+01 -0.13342737195E+01  0.43719186608E+01  0.00000000000E+00 0. -1.
</event>
<event>
 7    1  0.2110035E-010  0.4778728E+02  0.7816164E-02  0.1312668E+00
        -11   -1    0    0    0    0  0.00000000000E+00  0.00000000000E+00  0.45593999997E+02  0.45594000000E+02  0.51100000000E-03 0. -1.
         11   -1    0    0    0    0 -0.00000000000E+00 -0.00000000000E+00 -0.45593999997E+02  0.45594000000E+02  0.51100000000E-03 0.  1.
    9900012    2    1    2    0    0  0.25978561584E+02 -0.24884418757E+02  0.24279671080E+02  0.47787281266E+02  0.20000046606E+02 0.  0.
        -12    1    1    2    0    0 -0.25978561584E+02  0.24884418757E+02 -0.24279671080E+02  0.43400718734E+02  0.00000000000E+00 0.  1.
         11    1    3    3    0    0  0.92935379968E+01 -0.31460170845E+01  0.11473129157E+02  0.15096356014E+02  0.51100000000E-03 0. -1.
        -11    1    3    3    0    0  0.13167319564E+02 -0.97693707806E+01  0.26593681598E+01  0.16609971379E+02  0.51100000000E-03 0.  1.
         12    1    3    3    0    0  0.35177040236E+01 -0.11969030892E+02  0.10147173763E+02  0.16080953873E+02  0.00000000000E+00 0. -1.
</event>
<event>
 7    1  0.2479484E-010  0.4778731E+02  0.7816164E-02  0.1312668E+00
        -11   -1    0    0    0    0  0.00000000000E+00  0.00000000000E+00  0.45593999997E+02  0.45594000000E+02  0.51100000000E-03 0. -1.
         11   -1    0    0    0    0 -0.00000000000E+00 -0.00000000000E+00 -0.45593999997E+02  0.45594000000E+02  0.51100000000E-03 0.  1.
    9900012    2    1    2    0    0  0.19237568183E+02 -0.32766358418E+02  0.20973838000E+02  0.47787306987E+02  0.20000163876E+02 0.  0.
        -12    1    1    2    0    0 -0.19237568183E+02  0.32766358418E+02 -0.20973838000E+02  0.43400693013E+02  0.00000000000E+00 0.  1.
         11    1    3    3    0    0  0.95082322310E+01 -0.12459469408E+02  0.76964700608E+01  0.17460827865E+02  0.51100000000E-03 0. -1.
        -11    1    3    3    0    0  0.28304090711E+01 -0.59908312416E+00 -0.27596257185E+01  0.39982059060E+01  0.51100000000E-03 0.  1.
        -12    1    3    3    0    0  0.68989268812E+01 -0.19707805886E+02  0.16036993658E+02  0.26328273215E+02  0.00000000000E+00 0.  1.
</event>
<event>
 7    1  0.2110035E-010  0.4778728E+02  0.7816164E-02  0.1312668E+00
        -11   -1    0    0    0    0  0.00000000000E+00  0.00000000000E+00  0.45593999997E+02  0.45594000000E+02  0.51100000000E-03 0.  1.
         11   -1    0    0    0    0 -0.00000000000E+00 -0.00000000000E+00 -0.45593999997E+02  0.45594000000E+02  0.51100000000E-03 0. -1.
    9900012    2    1    2    0    0 -0.47980875485E+01  0.34912973321E+02 -0.25331509287E+02  0.47787277506E+02  0.20000029462E+02 0.  0.
        -12    1    1    2    0    0  0.47980875485E+01 -0.34912973321E+02  0.25331509287E+02  0.43400722494E+02  0.00000000000E+00 0.  1.
         11    1    3    3    0    0 -0.17886911806E+01  0.27165338307E+02 -0.18887725832E+02  0.33134592329E+02  0.51100000000E-03 0. -1.
        -11    1    3    3    0    0  0.48881969207E+00  0.91217299385E+01 -0.31725571474E+01  0.96700579562E+01  0.51100000000E-03 0.  1.
        -12    1    3    3    0    0 -0.34982160599E+01 -0.13740949246E+01 -0.32712263080E+01  0.49826272209E+01  0.00000000000E+00 0.  1.
</event>
<event>
 7    1  0.2110035E-010  0.4778727E+02  0.7816164E-02  0.1312668E+00
        -11   -1    0    0    0    0  0.00000000000E+00  0.00000000000E+00  0.45593999997E+02  0.45594000000E+02  0.51100000000E-03 0.  1.
         11   -1    0    0    0    0 -0.00000000000E+00 -0.00000000000E+00 -0.45593999997E+02  0.45594000000E+02  0.51100000000E-03 0. -1.
    9900012    2    1    2    0    0 -0.18025640484E+02 -0.53128905486E+01 -0.39121255938E+02  0.47787272045E+02  0.20000004561E+02 0.  0.
        -12    1    1    2    0    0  0.18025640484E+02  0.53128905486E+01  0.39121255938E+02  0.43400727955E+02  0.00000000000E+00 0.  1.
         11    1    3    3    0    0 -0.32118318263E+01 -0.62812512907E+01 -0.21784839707E+02  0.22898672948E+02  0.51100000000E-03 0.  1.
        -11    1    3    3    0    0 -0.57571571158E+01  0.39385741780E+01 -0.12220389341E+02  0.14071074604E+02  0.51100000000E-03 0. -1.
         12    1    3    3    0    0 -0.90566515421E+01 -0.29702134358E+01 -0.51160268908E+01  0.10817524493E+02  0.00000000000E+00 0. -1.
</event>
<event>
 7    1  0.2110035E-010  0.4778725E+02  0.7816164E-02  0.1312668E+00
        -11   -1    0    0    0    0  0.00000000000E+00  0.00000000000E+00  0.45593999997E+02  0.45594000000E+02  0.51100000000E-03 0.  1.
         11   -1    0    0    0    0 -0.00000000000E+00 -0.00000000000E+00 -0.45593999997E+02  0.45594000000E+02  0.51100000000E-03 0. -1.
    9900012    2    1    2    0    0 -0.30012028727E+02  0.26228692836E+02 -0.17174358844E+02  0.47787253487E+02  0.19999919948E+02 0.  0.
        -12    1    1    2    0    0  0.30012028727E+02 -0.26228692836E+02  0.17174358844E+02  0.43400746513E+02  0.00000000000E+00 0.  1.
         11    1    3    3    0    0 -0.48475116071E+01  0.53213068046E+01  0.98529449006E+00  0.72653616828E+01  0.51100000000E-03 0.  1.
        -11    1    3    3    0    0 -0.18112728470E+02  0.69266302797E+01 -0.15075403087E+02  0.24562510421E+02  0.51100000000E-03 0. -1.
         12    1    3    3    0    0 -0.70517886496E+01  0.13980755752E+02 -0.30842502471E+01  0.15959381383E+02  0.00000000000E+00 0. -1.
</event>
<event>
 7    1  0.2110035E-010  0.4778727E+02  0.7816164E-02  0.1312668E+00
        -11   -1    0    0    0    0  0.00000000000E+00  0.00000000000E+00  0.45593999997E+02  0.45594000000E+02  0.51100000000E-03 0.  1.
         11   -1    0    0    0    0 -0.00000000000E+00 -0.00000000000E+00 -0.45593999997E+02  0.45594000000E+02  0.51100000000E-03 0. -1.
    9900012    2    1    2    0    0  0.14159231265E+02 -0.31737038425E+02 -0.25998082907E+02  0.47787265527E+02  0.19999974843E+02 0.  0.
        -12    1    1    2    0    0 -0.14159231265E+02  0.31737038425E+02  0.25998082907E+02  0.43400734473E+02  0.00000000000E+00 0.  1.
         11    1    3    3    0    0  0.37569267076E+01 -0.89821375912E+00  0.87009540777E+00  0.39595899438E+01  0.51100000000E-03 0. -1.
        -11    1    3    3    0    0  0.54750764963E+01 -0.12906701996E+02 -0.19053388837E+02  0.23655676813E+02  0.51100000000E-03 0.  1.
         12    1    3    3    0    0  0.49272280614E+01 -0.17932122669E+02 -0.78147894777E+01  0.20171998770E+02  0.00000000000E+00 0. -1.
</event>
<event>
 7    1  0.2110035E-010  0.4778726E+02  0.7816164E-02  0.1312668E+00
        -11   -1    0    0    0    0  0.00000000000E+00  0.00000000000E+00  0.45593999997E+02  0.45594000000E+02  0.51100000000E-03 0. -1.
         11   -1    0    0    0    0 -0.00000000000E+00 -0.00000000000E+00 -0.45593999997E+02  0.45594000000E+02  0.51100000000E-03 0.  1.
    9900012    2    1    2    0    0  0.14067212954E+02  0.31211284293E+02  0.26675702266E+02  0.47787264535E+02  0.19999970321E+02 0.  0.
        -12    1    1    2    0    0 -0.14067212954E+02 -0.31211284293E+02 -0.26675702266E+02  0.43400735465E+02  0.00000000000E+00 0.  1.
         11    1    3    3    0    0 -0.27406188363E+01  0.37314558818E+01  0.14984107442E+01  0.48662089581E+01  0.51100000000E-03 0. -1.
        -11    1    3    3    0    0 -0.15370391890E+01  0.67762975846E+01  0.35164631667E+01  0.77875677774E+01  0.51100000000E-03 0.  1.
        -12    1    3    3    0    0  0.18344870979E+02  0.20703530827E+02  0.21660828355E+02  0.35133487800E+02  0.00000000000E+00 0.  1.
</event>
<event>
 7    1  0.2110035E-010  0.4778727E+02  0.7816164E-02  0.1312668E+00
        -11   -1    0    0    0    0  0.00000000000E+00  0.00000000000E+00  0.45593999997E+02  0.45594000000E+02  0.51100000000E-03 0.  1.
         11   -1    0    0    0    0 -0.00000000000E+00 -0.00000000000E+00 -0.45593999997E+02  0.45594000000E+02  0.51100000000E-03 0. -1.
    9900012    2    1    2    0    0  0.14329321731E+02  0.11820447460E+02 -0.39224617767E+02  0.47787273296E+02  0.20000010267E+02 0.  0.
        -12    1    1    2    0    0 -0.14329321731E+02 -0.11820447460E+02  0.39224617767E+02  0.43400726704E+02  0.00000000000E+00 0.  1.
         11    1    3    3    0    0  0.26810542751E+01 -0.12348850196E+01 -0.13919413048E+02  0.14228951222E+02  0.51100000000E-03 0. -1.
        -11    1    3    3    0    0  0.33573149682E+01  0.37954200517E+01 -0.18916231058E+02  0.19583170705E+02  0.51100000000E-03 0.  1.
        -12    1    3    3    0    0  0.82909524882E+01  0.92599124277E+01 -0.63889736615E+01  0.13975151369E+02  0.00000000000E+00 0.  1.
</event>
<event>
 7    1  0.2260859E-010  0.4778727E+02  0.7816164E-02  0.1312668E+00
        -11   -1    0    0    0    0  0.00000000000E+00  0.00000000000E+00  0.45593999997E+02  0.45594000000E+02  0.51100000000E-03 0.  1.
         11   -1    0    0    0    0 -0.00000000000E+00 -0.00000000000E+00 -0.45593999997E+02  0.45594000000E+02  0.51100000000E-03 0. -1.
    9900012    2    1    2    0    0 -0.31304409991E+02 -0.29168777933E+02  0.72690937318E+01  0.47787269422E+02  0.19999992604E+02 0.  0.
        -12    1    1    2    0    0  0.31304409991E+02  0.29168777933E+02 -0.72690937318E+01  0.43400730578E+02  0.00000000000E+00 0.  1.
         11    1    3    3    0    0 -0.39921966276E+01 -0.84101698932E+01  0.14955936062E+01  0.94289655871E+01  0.51100000000E-03 0. -1.
        -11    1    3    3    0    0 -0.91075466528E+01  0.14313113722E+01  0.13842085774E+01  0.93226654946E+01  0.51100000000E-03 0.  1.
        -12    1    3    3    0    0 -0.18204666710E+02 -0.22189919412E+02  0.43892915482E+01  0.29035638341E+02  0.00000000000E+00 0.  1.
</event>
<event>
 7    1  0.2110035E-010  0.4778727E+02  0.7816164E-02  0.1312668E+00
        -11   -1    0    0    0    0  0.00000000000E+00  0.00000000000E+00  0.45593999997E+02  0.45594000000E+02  0.51100000000E-03 0.  1.
         11   -1    0    0    0    0 -0.00000000000E+00 -0.00000000000E+00 -0.45593999997E+02  0.45594000000E+02  0.51100000000E-03 0. -1.
    9900012    2    1    2    0    0  0.29430266337E+02 -0.22285992808E+02 -0.22821421346E+02  0.47787270463E+02  0.19999997349E+02 0.  0.
        -12    1    1    2    0    0 -0.29430266337E+02  0.22285992808E+02  0.22821421346E+02  0.43400729537E+02  0.00000000000E+00 0.  1.
         11    1    3    3    0    0  0.61407163728E+01 -0.10213277320E+01 -0.50129929065E+01  0.79925969528E+01  0.51100000000E-03 0. -1.
        -11    1    3    3    0    0  0.12966138207E+02 -0.22537635041E+01 -0.27721910437E+01  0.13449358103E+02  0.51100000000E-03 0.  1.
         12    1    3    3    0    0  0.10323411757E+02 -0.19010901572E+02 -0.15036237396E+02  0.26345315407E+02  0.00000000000E+00 0. -1.
</event>
<event>
 7    1  0.2110035E-010  0.4778727E+02  0.7816164E-02  0.1312668E+00
        -11   -1    0    0    0    0  0.00000000000E+00  0.00000000000E+00  0.45593999997E+02  0.45594000000E+02  0.51100000000E-03 0. -1.
         11   -1    0    0    0    0 -0.00000000000E+00 -0.00000000000E+00 -0.45593999997E+02  0.45594000000E+02  0.51100000000E-03 0.  1.
    9900012    2    1    2    0    0  0.27086629496E+02 -0.31706421124E+02 -0.12026660463E+02  0.47787271897E+02  0.20000003887E+02 0.  0.
        -12    1    1    2    0    0 -0.27086629496E+02  0.31706421124E+02  0.12026660463E+02  0.43400728103E+02  0.00000000000E+00 0.  1.
         11    1    3    3    0    0  0.12652172522E+02 -0.17707538722E+02  0.20813429535E+01  0.21862442358E+02  0.51100000000E-03 0. -1.
        -11    1    3    3    0    0  0.23482341838E+01 -0.73515003824E+01 -0.69446421826E+01  0.10382043005E+02  0.51100000000E-03 0.  1.
        -12    1    3    3    0    0  0.12086222791E+02 -0.66473820198E+01 -0.71633612343E+01  0.15542786534E+02  0.00000000000E+00 0.  1.
</event>
<event>
 7    1  0.2110035E-010  0.4778727E+02  0.7816164E-02  0.1312668E+00
        -11   -1    0    0    0    0  0.00000000000E+00  0.00000000000E+00  0.45593999997E+02  0.45594000000E+02  0.51100000000E-03 0.  1.
         11   -1    0    0    0    0 -0.00000000000E+00 -0.00000000000E+00 -0.45593999997E+02  0.45594000000E+02  0.51100000000E-03 0. -1.
    9900012    2    1    2    0    0 -0.11858478979E+02 -0.16053221164E+02 -0.38539510875E+02  0.47787270376E+02  0.19999996954E+02 0.  0.
        -12    1    1    2    0    0  0.11858478979E+02  0.16053221164E+02  0.38539510875E+02  0.43400729624E+02  0.00000000000E+00 0.  1.
         11    1    3    3    0    0 -0.68611787263E+01 -0.27988959965E+01 -0.32183966202E+01  0.80788408438E+01  0.51100000000E-03 0. -1.
        -11    1    3    3    0    0 -0.72196464103E+01 -0.12992089566E+02 -0.24481247781E+02  0.28639992646E+02  0.51100000000E-03 0.  1.
        -12    1    3    3    0    0  0.22223461577E+01 -0.26223560117E+00 -0.10839866473E+02  0.11068436887E+02  0.00000000000E+00 0.  1.
</event>
<event>
 7    1  0.2110035E-010  0.4778727E+02  0.7816164E-02  0.1312668E+00
        -11   -1    0    0    0    0  0.00000000000E+00  0.00000000000E+00  0.45593999997E+02  0.45594000000E+02  0.51100000000E-03 0. -1.
         11   -1    0    0    0    0 -0.00000000000E+00 -0.00000000000E+00 -0.45593999997E+02  0.45594000000E+02  0.51100000000E-03 0.  1.
    9900012    2    1    2    0    0 -0.32602638951E+02 -0.94394723822E+01  0.27047875167E+02  0.47787271245E+02  0.20000000916E+02 0.  0.
        -12    1    1    2    0    0  0.32602638951E+02  0.94394723822E+01 -0.27047875167E+02  0.43400728755E+02  0.00000000000E+00 0.  1.
         11    1    3    3    0    0 -0.64687784095E+01  0.88396761950E+00  0.12744908648E+02  0.14319887904E+02  0.51100000000E-03 0. -1.
        -11    1    3    3    0    0 -0.99450928572E+01 -0.20021977022E+01 -0.27303639923E+00  0.10148311028E+02  0.51100000000E-03 0.  1.
         12    1    3    3    0    0 -0.16188767684E+02 -0.83212422995E+01  0.14576002918E+02  0.23319072314E+02  0.00000000000E+00 0. -1.
</event>
<event>
 7    1  0.2110035E-010  0.4778727E+02  0.7816164E-02  0.1312668E+00
        -11   -1    0    0    0    0  0.00000000000E+00  0.00000000000E+00  0.45593999997E+02  0.45594000000E+02  0.51100000000E-03 0. -1.
         11   -1    0    0    0    0 -0.00000000000E+00 -0.00000000000E+00 -0.45593999997E+02  0.45594000000E+02  0.51100000000E-03 0.  1.
    9900012    2    1    2    0    0  0.33774018743E+02  0.16173117950E+02  0.21940137534E+02  0.47787265890E+02  0.19999976500E+02 0.  0.
        -12    1    1    2    0    0 -0.33774018743E+02 -0.16173117950E+02 -0.21940137534E+02  0.43400734110E+02  0.00000000000E+00 0.  1.
         11    1    3    3    0    0 -0.60717380814E+00 -0.10316105902E+00  0.30095485557E-01  0.61661027948E+00  0.51100000000E-03 0. -1.
        -11    1    3    3    0    0  0.20848512902E+02  0.64624765435E+01  0.31664998567E+01  0.22055630005E+02  0.51100000000E-03 0.  1.
         12    1    3    3    0    0  0.13532679649E+02  0.98138024655E+01  0.18743542191E+02  0.25115025606E+02  0.00000000000E+00 0. -1.
</event>
<event>
 7    1  0.2110035E-010  0.4778727E+02  0.7816164E-02  0.1312668E+00
        -11   -1    0    0    0    0  0.00000000000E+00  0.00000000000E+00  0.45593999997E+02  0.45594000000E+02  0.51100000000E-03 0.  1.
         11   -1    0    0    0    0 -0.00000000000E+00 -0.00000000000E+00 -0.45593999997E+02  0.45594000000E+02  0.51100000000E-03 0. -1.
    9900012    2    1    2    0    0  0.32892928754E+02  0.12450080305E+02 -0.25429783701E+02  0.47787272348E+02  0.20000005945E+02 0.  0.
        -12    1    1    2    0    0 -0.32892928754E+02 -0.12450080305E+02  0.25429783701E+02  0.43400727652E+02  0.00000000000E+00 0.  1.
         11    1    3    3    0    0  0.56318678467E+01  0.14544067183E+01 -0.75089952377E+01  0.94983284891E+01  0.51100000000E-03 0. -1.
        -11    1    3    3    0    0  0.95741023804E+01  0.44301307596E+01  0.21250756828E+01  0.10761293689E+02  0.51100000000E-03 0.  1.
        -12    1    3    3    0    0  0.17686958527E+02  0.65655428269E+01 -0.20045864146E+02  0.27527650170E+02  0.00000000000E+00 0.  1.
</event>
<event>
 7    1  0.2110035E-010  0.4778728E+02  0.7816164E-02  0.1312668E+00
        -11   -1    0    0    0    0  0.00000000000E+00  0.00000000000E+00  0.45593999997E+02  0.45594000000E+02  0.51100000000E-03 0.  1.
         11   -1    0    0    0    0 -0.00000000000E+00 -0.00000000000E+00 -0.45593999997E+02  0.45594000000E+02  0.51100000000E-03 0. -1.
    9900012    2    1    2    0    0  0.93032576323E+01  0.89875020717E+01 -0.41428206624E+02  0.47787284566E+02  0.20000061652E+02 0.  0.
        -12    1    1    2    0    0 -0.93032576323E+01 -0.89875020717E+01  0.41428206624E+02  0.43400715434E+02  0.00000000000E+00 0.  1.
         11    1    3    3    0    0  0.10983817517E+01 -0.24095055680E+00 -0.12322783646E+02  0.12373984673E+02  0.51100000000E-03 0. -1.
        -11    1    3    3    0    0  0.22061638181E+01  0.46827508338E+01  0.17663344749E+00  0.51794318028E+01  0.51100000000E-03 0.  1.
        -12    1    3    3    0    0  0.59987120626E+01  0.45457017947E+01 -0.29282056426E+02  0.30233868091E+02  0.00000000000E+00 0.  1.
</event>
<event>
 7    1  0.2110035E-010  0.4778727E+02  0.7816164E-02  0.1312668E+00
        -11   -1    0    0    0    0  0.00000000000E+00  0.00000000000E+00  0.45593999997E+02  0.45594000000E+02  0.51100000000E-03 0.  1.
         11   -1    0    0    0    0 -0.00000000000E+00 -0.00000000000E+00 -0.45593999997E+02  0.45594000000E+02  0.51100000000E-03 0. -1.
    9900012    2    1    2    0    0  0.17874998860E+00 -0.41263572198E+02 -0.13450235592E+02  0.47787272131E+02  0.20000004953E+02 0.  0.
        -12    1    1    2    0    0 -0.17874998860E+00  0.41263572198E+02  0.13450235592E+02  0.43400727869E+02  0.00000000000E+00 0.  1.
         11    1    3    3    0    0  0.59061748394E+01 -0.36860640502E+02 -0.89784786972E+01  0.38395348669E+02  0.51100000000E-03 0. -1.
        -11    1    3    3    0    0 -0.31598507233E+01 -0.44808755716E+01 -0.20267110548E+01  0.58455504824E+01  0.51100000000E-03 0.  1.
        -12    1    3    3    0    0 -0.25675741276E+01  0.77943875385E-01 -0.24450458399E+01  0.35463729792E+01  0.00000000000E+00 0.  1.
</event>
<event>
 7    1  0.2110035E-010  0.4778724E+02  0.7816164E-02  0.1312668E+00
        -11   -1    0    0    0    0  0.00000000000E+00  0.00000000000E+00  0.45593999997E+02  0.45594000000E+02  0.51100000000E-03 0.  1.
         11   -1    0    0    0    0 -0.00000000000E+00 -0.00000000000E+00 -0.45593999997E+02  0.45594000000E+02  0.51100000000E-03 0. -1.
    9900012    2    1    2    0    0 -0.11320026339E+02 -0.25890534409E+02 -0.32941819323E+02  0.47787237005E+02  0.19999844798E+02 0.  0.
        -12    1    1    2    0    0  0.11320026339E+02  0.25890534409E+02  0.32941819323E+02  0.43400762995E+02  0.00000000000E+00 0.  1.
         11    1    3    3    0    0 -0.59296814825E+01 -0.18832056890E+02 -0.26245168628E+02  0.32842295379E+02  0.51100000000E-03 0. -1.
        -11    1    3    3    0    0  0.16399447544E+01  0.14574914141E+00 -0.42901247624E+01  0.45951966604E+01  0.51100000000E-03 0.  1.
        -12    1    3    3    0    0 -0.70302896108E+01 -0.72042266600E+01 -0.24065259330E+01  0.10349744965E+02  0.00000000000E+00 0.  1.
</event>
<event>
 7    1  0.2110035E-010  0.4778722E+02  0.7816164E-02  0.1312668E+00
        -11   -1    0    0    0    0  0.00000000000E+00  0.00000000000E+00  0.45593999997E+02  0.45594000000E+02  0.51100000000E-03 0. -1.
         11   -1    0    0    0    0 -0.00000000000E+00 -0.00000000000E+00 -0.45593999997E+02  0.45594000000E+02  0.51100000000E-03 0.  1.
    9900012    2    1    2    0    0  0.36097071235E+02  0.38568208089E+01  0.23785594011E+02  0.47787215433E+02  0.19999746446E+02 0.  0.
        -12    1    1    2    0    0 -0.36097071235E+02 -0.38568208089E+01 -0.23785594011E+02  0.43400784567E+02  0.00000000000E+00 0.  1.
         11    1    3    3    0    0  0.22209295085E+02 -0.78954014965E+00  0.54068924785E+01  0.22871612281E+02  0.51100000000E-03 0. -1.
        -11    1    3    3    0    0 -0.10559992808E+01 -0.26545133982E+00  0.13232315860E+01  0.17136338542E+01  0.51100000000E-03 0.  1.
        -12    1    3    3    0    0  0.14943775431E+02  0.49118122984E+01  0.17055469947E+02  0.23201969298E+02  0.00000000000E+00 0.  1.
</event>
<event>
 7    1  0.2110035E-010  0.4778727E+02  0.7816164E-02  0.1312668E+00
        -11   -1    0    0    0    0  0.00000000000E+00  0.00000000000E+00  0.45593999997E+02  0.45594000000E+02  0.51100000000E-03 0.  1.
         11   -1    0    0    0    0 -0.00000000000E+00 -0.00000000000E+00 -0.45593999997E+02  0.45594000000E+02  0.51100000000E-03 0. -1.
    9900012    2    1    2    0    0  0.36493293687E+02  0.58960651693E+01 -0.22739815609E+02  0.47787270945E+02  0.19999999545E+02 0.  0.
        -12    1    1    2    0    0 -0.36493293687E+02 -0.58960651693E+01  0.22739815609E+02  0.43400729055E+02  0.00000000000E+00 0.  1.
         11    1    3    3    0    0  0.19386594731E+02 -0.22920643458E+01 -0.65137525455E+01  0.20579664398E+02  0.51100000000E-03 0. -1.
        -11    1    3    3    0    0  0.32368388583E+01  0.48333024782E+01 -0.30140488863E+00  0.58248419557E+01  0.51100000000E-03 0.  1.
         12    1    3    3    0    0  0.13869860097E+02  0.33548270369E+01 -0.15924658175E+02  0.21382764591E+02  0.00000000000E+00 0. -1.
</event>
<event>
 7    1  0.2110035E-010  0.4778727E+02  0.7816164E-02  0.1312668E+00
        -11   -1    0    0    0    0  0.00000000000E+00  0.00000000000E+00  0.45593999997E+02  0.45594000000E+02  0.51100000000E-03 0.  1.
         11   -1    0    0    0    0 -0.00000000000E+00 -0.00000000000E+00 -0.45593999997E+02  0.45594000000E+02  0.51100000000E-03 0. -1.
    9900012    2    1    2    0    0 -0.27035089469E+02  0.66062124651E+01 -0.33302932200E+02  0.47787269605E+02  0.19999993437E+02 0.  0.
        -12    1    1    2    0    0  0.27035089469E+02 -0.66062124651E+01  0.33302932200E+02  0.43400730395E+02  0.00000000000E+00 0.  1.
         11    1    3    3    0    0 -0.36919599629E+01 -0.32791203645E+00 -0.30573077484E+01  0.48047086905E+01  0.51100000000E-03 0. -1.
        -11    1    3    3    0    0 -0.22657968596E+02  0.35445133580E+01 -0.31787000513E+02  0.39196435013E+02  0.51100000000E-03 0.  1.
        -12    1    3    3    0    0 -0.68516091017E+00  0.33896111436E+01  0.15413760620E+01  0.37861259015E+01  0.00000000000E+00 0.  1.
</event>
<event>
 7    1  0.2110035E-010  0.4778729E+02  0.7816164E-02  0.1312668E+00
        -11   -1    0    0    0    0  0.00000000000E+00  0.00000000000E+00  0.45593999997E+02  0.45594000000E+02  0.51100000000E-03 0.  1.
         11   -1    0    0    0    0 -0.00000000000E+00 -0.00000000000E+00 -0.45593999997E+02  0.45594000000E+02  0.51100000000E-03 0. -1.
    9900012    2    1    2    0    0 -0.32268413012E+02 -0.14299500874E+02  0.25256600238E+02  0.47787285039E+02  0.20000063808E+02 0.  0.
        -12    1    1    2    0    0  0.32268413012E+02  0.14299500874E+02 -0.25256600238E+02  0.43400714961E+02  0.00000000000E+00 0.  1.
         11    1    3    3    0    0 -0.13362602438E+02 -0.12795175474E+02  0.13323835375E+02  0.22799128244E+02  0.51100000000E-03 0. -1.
        -11    1    3    3    0    0 -0.16395568124E+02 -0.16244090971E+00  0.13926866646E+02  0.21512755658E+02  0.51100000000E-03 0.  1.
         12    1    3    3    0    0 -0.25102424497E+01 -0.13418844900E+01 -0.19941017835E+01  0.34754011371E+01  0.00000000000E+00 0. -1.
</event>
<event>
 7    1  0.2110035E-010  0.4778727E+02  0.7816164E-02  0.1312668E+00
        -11   -1    0    0    0    0  0.00000000000E+00  0.00000000000E+00  0.45593999997E+02  0.45594000000E+02  0.51100000000E-03 0.  1.
         11   -1    0    0    0    0 -0.00000000000E+00 -0.00000000000E+00 -0.45593999997E+02  0.45594000000E+02  0.51100000000E-03 0. -1.
    9900012    2    1    2    0    0  0.39146408255E+02  0.61351471175E+01 -0.17707111424E+02  0.47787272996E+02  0.20000008899E+02 0.  0.
        -12    1    1    2    0    0 -0.39146408255E+02 -0.61351471175E+01  0.17707111424E+02  0.43400727004E+02  0.00000000000E+00 0.  1.
         11    1    3    3    0    0  0.21164092306E+02  0.10462201438E+02 -0.10558974167E+02  0.25862490170E+02  0.51100000000E-03 0. -1.
        -11    1    3    3    0    0  0.13945300007E+02 -0.37773036679E+01 -0.94320048847E+01  0.17254046821E+02  0.51100000000E-03 0.  1.
        -12    1    3    3    0    0  0.40370159421E+01 -0.54975065253E+00  0.22838676269E+01  0.46707360056E+01  0.00000000000E+00 0.  1.
</event>
<event>
 7    1  0.2110035E-010  0.4778727E+02  0.7816164E-02  0.1312668E+00
        -11   -1    0    0    0    0  0.00000000000E+00  0.00000000000E+00  0.45593999997E+02  0.45594000000E+02  0.51100000000E-03 0. -1.
         11   -1    0    0    0    0 -0.00000000000E+00 -0.00000000000E+00 -0.45593999997E+02  0.45594000000E+02  0.51100000000E-03 0.  1.
    9900012    2    1    2    0    0 -0.40845229318E+02 -0.14220116827E+02  0.36164398575E+01  0.47787272842E+02  0.20000008197E+02 0.  0.
        -12    1    1    2    0    0  0.40845229318E+02  0.14220116827E+02 -0.36164398575E+01  0.43400727158E+02  0.00000000000E+00 0.  1.
         11    1    3    3    0    0 -0.20603872960E+02  0.52682853363E+00 -0.17530562674E+01  0.20685026851E+02  0.51100000000E-03 0. -1.
        -11    1    3    3    0    0 -0.11923956182E+02 -0.38968306735E+01  0.38445927420E+00  0.12550451367E+02  0.51100000000E-03 0.  1.
        -12    1    3    3    0    0 -0.83174001759E+01 -0.10850114687E+02  0.49850368507E+01  0.14551794625E+02  0.00000000000E+00 0.  1.
</event>
<event>
 7    1  0.2110035E-010  0.4778728E+02  0.7816164E-02  0.1312668E+00
        -11   -1    0    0    0    0  0.00000000000E+00  0.00000000000E+00  0.45593999997E+02  0.45594000000E+02  0.51100000000E-03 0. -1.
         11   -1    0    0    0    0 -0.00000000000E+00 -0.00000000000E+00 -0.45593999997E+02  0.45594000000E+02  0.51100000000E-03 0.  1.
    9900012    2    1    2    0    0  0.27922057040E+02  0.32271038125E+02  0.79095799015E+01  0.47787278517E+02  0.20000034070E+02 0.  0.
        -12    1    1    2    0    0 -0.27922057040E+02 -0.32271038125E+02 -0.79095799015E+01  0.43400721483E+02  0.00000000000E+00 0.  1.
         11    1    3    3    0    0  0.21397955068E+02  0.14136557060E+02 -0.16740476588E+01  0.25700528447E+02  0.51100000000E-03 0.  1.
        -11    1    3    3    0    0  0.47883493251E+01  0.13318839299E+02  0.44485661131E+01  0.14836088105E+02  0.51100000000E-03 0. -1.
        -12    1    3    3    0    0  0.17357526471E+01  0.48156417660E+01  0.51350614472E+01  0.72506619655E+01  0.00000000000E+00 0.  1.
</event>
<event>
 7    1  0.2110035E-010  0.4778727E+02  0.7816164E-02  0.1312668E+00
        -11   -1    0    0    0    0  0.00000000000E+00  0.00000000000E+00  0.45593999997E+02  0.45594000000E+02  0.51100000000E-03 0.  1.
         11   -1    0    0    0    0 -0.00000000000E+00 -0.00000000000E+00 -0.45593999997E+02  0.45594000000E+02  0.51100000000E-03 0. -1.
    9900012    2    1    2    0    0  0.32508289892E+02 -0.11771379935E+02 -0.26234882375E+02  0.47787270162E+02  0.19999995976E+02 0.  0.
        -12    1    1    2    0    0 -0.32508289892E+02  0.11771379935E+02  0.26234882375E+02  0.43400729838E+02  0.00000000000E+00 0.  1.
         11    1    3    3    0    0  0.20624485723E+02 -0.91987830811E+01 -0.10507055146E+02  0.24907533591E+02  0.51100000000E-03 0. -1.
        -11    1    3    3    0    0  0.14028752243E+02 -0.14532895463E+01 -0.12500616613E+02  0.18846308816E+02  0.51100000000E-03 0.  1.
        -12    1    3    3    0    0 -0.21449480744E+01 -0.11193073072E+01 -0.32272106162E+01  0.40334277546E+01  0.00000000000E+00 0.  1.
</event>
<event>
 7    1  0.2110035E-010  0.4778729E+02  0.7816164E-02  0.1312668E+00
        -11   -1    0    0    0    0  0.00000000000E+00  0.00000000000E+00  0.45593999997E+02  0.45594000000E+02  0.51100000000E-03 0.  1.
         11   -1    0    0    0    0 -0.00000000000E+00 -0.00000000000E+00 -0.45593999997E+02  0.45594000000E+02  0.51100000000E-03 0. -1.
    9900012    2    1    2    0    0 -0.26242720783E+02 -0.10877104288E+02 -0.32812037532E+02  0.47787290343E+02  0.20000087988E+02 0.  0.
        -12    1    1    2    0    0  0.26242720783E+02  0.10877104288E+02  0.32812037532E+02  0.43400709657E+02  0.00000000000E+00 0.  1.
         11    1    3    3    0    0 -0.22196202594E+02 -0.88067392806E+01 -0.17292305919E+02  0.29483112295E+02  0.51100000000E-03 0. -1.
        -11    1    3    3    0    0 -0.52960569416E-02 -0.48130118521E+01 -0.80665527535E+01  0.93933159600E+01  0.51100000000E-03 0.  1.
        -12    1    3    3    0    0 -0.40412221323E+01  0.27426468450E+01 -0.74531788595E+01  0.89108620879E+01  0.00000000000E+00 0.  1.
</event>
<event>
 7    1  0.2110035E-010  0.4778727E+02  0.7816164E-02  0.1312668E+00
        -11   -1    0    0    0    0  0.00000000000E+00  0.00000000000E+00  0.45593999997E+02  0.45594000000E+02  0.51100000000E-03 0.  1.
         11   -1    0    0    0    0 -0.00000000000E+00 -0.00000000000E+00 -0.45593999997E+02  0.45594000000E+02  0.51100000000E-03 0. -1.
    9900012    2    1    2    0    0 -0.32337579660E+02 -0.27174926145E+02  0.99713562504E+01  0.47787267118E+02  0.19999982096E+02 0.  0.
        -12    1    1    2    0    0  0.32337579660E+02  0.27174926145E+02 -0.99713562504E+01  0.43400732882E+02  0.00000000000E+00 0.  1.
         11    1    3    3    0    0 -0.14481833642E+02 -0.50951485616E+01 -0.15576978879E+01  0.15430828477E+02  0.51100000000E-03 0. -1.
        -11    1    3    3    0    0 -0.17352021005E+02 -0.19421294697E+02  0.68144327121E+01  0.26920546319E+02  0.51100000000E-03 0.  1.
         12    1    3    3    0    0 -0.50372501337E+00 -0.26584828861E+01  0.47146214261E+01  0.54358923220E+01  0.00000000000E+00 0. -1.
</event>
<event>
 7    1  0.2110035E-010  0.4778727E+02  0.7816164E-02  0.1312668E+00
        -11   -1    0    0    0    0  0.00000000000E+00  0.00000000000E+00  0.45593999997E+02  0.45594000000E+02  0.51100000000E-03 0. -1.
         11   -1    0    0    0    0 -0.00000000000E+00 -0.00000000000E+00 -0.45593999997E+02  0.45594000000E+02  0.51100000000E-03 0.  1.
    9900012    2    1    2    0    0 -0.27296334720E+02 -0.19932196441E+02  0.27225744249E+02  0.47787268508E+02  0.19999988433E+02 0.  0.
        -12    1    1    2    0    0  0.27296334720E+02  0.19932196441E+02 -0.27225744249E+02  0.43400731492E+02  0.00000000000E+00 0.  1.
         11    1    3    3    0    0 -0.15329960889E+02 -0.60677173965E+01  0.13078860108E+02  0.21044749399E+02  0.51100000000E-03 0. -1.
        -11    1    3    3    0    0 -0.58556566177E+01 -0.11445618540E+02  0.15390458164E+02  0.20053855015E+02  0.51100000000E-03 0.  1.
        -12    1    3    3    0    0 -0.61107172138E+01 -0.24188605053E+01 -0.12435740235E+01  0.66886640941E+01  0.00000000000E+00 0.  1.
</event>
<event>
 7    1  0.2110035E-010  0.4778727E+02  0.7816164E-02  0.1312668E+00
        -11   -1    0    0    0    0  0.00000000000E+00  0.00000000000E+00  0.45593999997E+02  0.45594000000E+02  0.51100000000E-03 0. -1.
         11   -1    0    0    0    0 -0.00000000000E+00 -0.00000000000E+00 -0.45593999997E+02  0.45594000000E+02  0.51100000000E-03 0.  1.
    9900012    2    1    2    0    0  0.28256748508E+02 -0.13223096776E+02  0.30171656720E+02  0.47787274271E+02  0.20000014712E+02 0.  0.
        -12    1    1    2    0    0 -0.28256748508E+02  0.13223096776E+02 -0.30171656720E+02  0.43400725729E+02  0.00000000000E+00 0.  1.
         11    1    3    3    0    0  0.11296213657E+02 -0.46940805601E+01  0.45467968625E+01  0.13050371537E+02  0.51100000000E-03 0. -1.
        -11    1    3    3    0    0  0.11874607181E+01  0.63409181012E+00 -0.15211552788E+01  0.20312678366E+01  0.51100000000E-03 0.  1.
        -12    1    3    3    0    0  0.15773074133E+02 -0.91631080260E+01  0.27146015136E+02  0.32705634898E+02  0.00000000000E+00 0.  1.
</event>
<event>
 7    1  0.2110035E-010  0.4778727E+02  0.7816164E-02  0.1312668E+00
        -11   -1    0    0    0    0  0.00000000000E+00  0.00000000000E+00  0.45593999997E+02  0.45594000000E+02  0.51100000000E-03 0.  1.
         11   -1    0    0    0    0 -0.00000000000E+00 -0.00000000000E+00 -0.45593999997E+02  0.45594000000E+02  0.51100000000E-03 0. -1.
    9900012    2    1    2    0    0  0.38534595874E+02 -0.19743757986E+02  0.29819937492E+01  0.47787270221E+02  0.19999996248E+02 0.  0.
        -12    1    1    2    0    0 -0.38534595874E+02  0.19743757986E+02 -0.29819937492E+01  0.43400729779E+02  0.00000000000E+00 0.  1.
         11    1    3    3    0    0  0.22193523917E+02 -0.76390671876E+01 -0.12605943738E+00  0.23471764795E+02  0.51100000000E-03 0. -1.
        -11    1    3    3    0    0  0.80914505408E+00  0.17279613430E+01 -0.21378763905E+01  0.28654985332E+01  0.51100000000E-03 0.  1.
         12    1    3    3    0    0  0.15531926903E+02 -0.13832652142E+02  0.52459295771E+01  0.21450006893E+02  0.00000000000E+00 0. -1.
</event>
<event>
 7    1  0.2110035E-010  0.4778726E+02  0.7816164E-02  0.1312668E+00
        -11   -1    0    0    0    0  0.00000000000E+00  0.00000000000E+00  0.45593999997E+02  0.45594000000E+02  0.51100000000E-03 0.  1.
         11   -1    0    0    0    0 -0.00000000000E+00 -0.00000000000E+00 -0.45593999997E+02  0.45594000000E+02  0.51100000000E-03 0. -1.
    9900012    2    1    2    0    0  0.42253055962E+02 -0.32367731815E+01 -0.93715822121E+01  0.47787262772E+02  0.19999962282E+02 0.  0.
        -12    1    1    2    0    0 -0.42253055962E+02  0.32367731815E+01  0.93715822121E+01  0.43400737228E+02  0.00000000000E+00 0.  1.
         11    1    3    3    0    0  0.29096002877E+02 -0.27552660042E+01 -0.50453125716E+01  0.29658456693E+02  0.51100000000E-03 0. -1.
        -11    1    3    3    0    0  0.93293301018E+01 -0.53903551273E+01 -0.49798838512E+01  0.11869775566E+02  0.51100000000E-03 0.  1.
         12    1    3    3    0    0  0.38277229832E+01  0.49088479500E+01  0.65361421076E+00  0.62590305136E+01  0.00000000000E+00 0. -1.
</event>
<event>
 7    1  0.2110035E-010  0.4778727E+02  0.7816164E-02  0.1312668E+00
        -11   -1    0    0    0    0  0.00000000000E+00  0.00000000000E+00  0.45593999997E+02  0.45594000000E+02  0.51100000000E-03 0. -1.
         11   -1    0    0    0    0 -0.00000000000E+00 -0.00000000000E+00 -0.45593999997E+02  0.45594000000E+02  0.51100000000E-03 0.  1.
    9900012    2    1    2    0    0  0.42372082232E+02  0.39622845211E+01  0.85164640159E+01  0.47787271773E+02  0.20000003320E+02 0.  0.
        -12    1    1    2    0    0 -0.42372082232E+02 -0.39622845211E+01 -0.85164640159E+01  0.43400728227E+02  0.00000000000E+00 0.  1.
         11    1    3    3    0    0  0.15988238477E+02  0.65011205847E+01 -0.96955657369E+00  0.17286653194E+02  0.51100000000E-03 0. -1.
        -11    1    3    3    0    0  0.14862646260E+02 -0.69046986903E+01  0.33118103556E+01  0.16719485816E+02  0.51100000000E-03 0.  1.
         12    1    3    3    0    0  0.11521197496E+02  0.43658626268E+01  0.61742102339E+01  0.13781132763E+02  0.00000000000E+00 0. -1.
</event>
<event>
 7    1  0.2110035E-010  0.4778725E+02  0.7816164E-02  0.1312668E+00
        -11   -1    0    0    0    0  0.00000000000E+00  0.00000000000E+00  0.45593999997E+02  0.45594000000E+02  0.51100000000E-03 0.  1.
         11   -1    0    0    0    0 -0.00000000000E+00 -0.00000000000E+00 -0.45593999997E+02  0.45594000000E+02  0.51100000000E-03 0. -1.
    9900012    2    1    2    0    0  0.43031583857E+02  0.37014960150E+01 -0.42669509215E+01  0.47787249405E+02  0.19999901338E+02 0.  0.
        -12    1    1    2    0    0 -0.43031583857E+02 -0.37014960150E+01  0.42669509215E+01  0.43400750595E+02  0.00000000000E+00 0.  1.
         11    1    3    3    0    0  0.12900992212E+02  0.55867437025E+01 -0.54357853864E+01  0.15072991351E+02  0.51100000000E-03 0.  1.
        -11    1    3    3    0    0  0.29243107321E+02 -0.36178627445E+01 -0.13903370863E+01  0.29498835470E+02  0.51100000000E-03 0. -1.
         12    1    3    3    0    0  0.88748432444E+00  0.17326150570E+01  0.25591715513E+01  0.32154225836E+01  0.00000000000E+00 0. -1.
</event>
<event>
 7    1  0.2110035E-010  0.4778727E+02  0.7816164E-02  0.1312668E+00
        -11   -1    0    0    0    0  0.00000000000E+00  0.00000000000E+00  0.45593999997E+02  0.45594000000E+02  0.51100000000E-03 0.  1.
         11   -1    0    0    0    0 -0.00000000000E+00 -0.00000000000E+00 -0.45593999997E+02  0.45594000000E+02  0.51100000000E-03 0. -1.
    9900012    2    1    2    0    0 -0.68605815637E+01 -0.35744640474E+02 -0.23640565135E+02  0.47787271643E+02  0.20000002731E+02 0.  0.
        -12    1    1    2    0    0  0.68605815637E+01  0.35744640474E+02  0.23640565135E+02  0.43400728357E+02  0.00000000000E+00 0.  1.
         11    1    3    3    0    0 -0.64886748609E+01 -0.11571006537E+02 -0.11708362811E+02  0.17693977894E+02  0.51100000000E-03 0. -1.
        -11    1    3    3    0    0 -0.29820671938E+01 -0.63050680518E+01  0.20331767154E+01  0.72650131248E+01  0.51100000000E-03 0.  1.
        -12    1    3    3    0    0  0.26101604909E+01 -0.17868565885E+02 -0.13965379039E+02  0.22828280625E+02  0.00000000000E+00 0.  1.
</event>
<event>
 7    1  0.2110035E-010  0.4778728E+02  0.7816164E-02  0.1312668E+00
        -11   -1    0    0    0    0  0.00000000000E+00  0.00000000000E+00  0.45593999997E+02  0.45594000000E+02  0.51100000000E-03 0. -1.
         11   -1    0    0    0    0 -0.00000000000E+00 -0.00000000000E+00 -0.45593999997E+02  0.45594000000E+02  0.51100000000E-03 0.  1.
    9900012    2    1    2    0    0 -0.23949328905E+02 -0.15927865376E+02  0.32501623654E+02  0.47787276612E+02  0.20000025385E+02 0.  0.
        -12    1    1    2    0    0  0.23949328905E+02  0.15927865376E+02 -0.32501623654E+02  0.43400723388E+02  0.00000000000E+00 0.  1.
         11    1    3    3    0    0 -0.11973914105E+02 -0.16014306200E+02  0.26623027897E+02  0.33295919220E+02  0.51100000000E-03 0. -1.
        -11    1    3    3    0    0 -0.70586384600E+01 -0.15997453828E+00  0.64147002984E+01  0.95393054748E+01  0.51100000000E-03 0.  1.
         12    1    3    3    0    0 -0.49167763399E+01  0.24641536203E+00 -0.53610454130E+00  0.49520519168E+01  0.00000000000E+00 0. -1.
</event>
<event>
 7    1  0.2110035E-010  0.4778726E+02  0.7816164E-02  0.1312668E+00
        -11   -1    0    0    0    0  0.00000000000E+00  0.00000000000E+00  0.45593999997E+02  0.45594000000E+02  0.51100000000E-03 0.  1.
         11   -1    0    0    0    0 -0.00000000000E+00 -0.00000000000E+00 -0.45593999997E+02  0.45594000000E+02  0.51100000000E-03 0. -1.
    9900012    2    1    2    0    0  0.13920611722E+02  0.11882719096E+02 -0.39352782786E+02  0.47787263176E+02  0.19999964124E+02 0.  0.
        -12    1    1    2    0    0 -0.13920611722E+02 -0.11882719096E+02  0.39352782786E+02  0.43400736824E+02  0.00000000000E+00 0.  1.
         11    1    3    3    0    0  0.65727934628E+01  0.13747352444E+01 -0.45232848068E+01  0.80963952844E+01  0.51100000000E-03 0. -1.
        -11    1    3    3    0    0 -0.89908212054E+00  0.97738024894E+01 -0.12614609845E+02  0.15983239520E+02  0.51100000000E-03 0.  1.
         12    1    3    3    0    0  0.82469003798E+01  0.73418136239E+00 -0.22214888135E+02  0.23707628371E+02  0.00000000000E+00 0. -1.
</event>
<event>
 7    1  0.2110035E-010  0.4778727E+02  0.7816164E-02  0.1312668E+00
        -11   -1    0    0    0    0  0.00000000000E+00  0.00000000000E+00  0.45593999997E+02  0.45594000000E+02  0.51100000000E-03 0. -1.
         11   -1    0    0    0    0 -0.00000000000E+00 -0.00000000000E+00 -0.45593999997E+02  0.45594000000E+02  0.51100000000E-03 0.  1.
    9900012    2    1    2    0    0 -0.39387593478E+01 -0.10725847233E+02  0.41869623332E+02  0.47787274407E+02  0.20000015331E+02 0.  0.
        -12    1    1    2    0    0  0.39387593478E+01  0.10725847233E+02 -0.41869623332E+02  0.43400725593E+02  0.00000000000E+00 0.  1.
         11    1    3    3    0    0  0.15548787232E+01 -0.70994348712E+01  0.15108001241E+02  0.16765181928E+02  0.51100000000E-03 0. -1.
        -11    1    3    3    0    0 -0.30518868008E+00 -0.15737868250E+01 -0.15117027038E+01  0.22034496651E+01  0.51100000000E-03 0.  1.
        -12    1    3    3    0    0 -0.51884493910E+01 -0.20526255368E+01  0.28273324795E+02  0.28818642814E+02  0.00000000000E+00 0.  1.
</event>
<event>
 7    1  0.2110035E-010  0.4778726E+02  0.7816164E-02  0.1312668E+00
        -11   -1    0    0    0    0  0.00000000000E+00  0.00000000000E+00  0.45593999997E+02  0.45594000000E+02  0.51100000000E-03 0. -1.
         11   -1    0    0    0    0 -0.00000000000E+00 -0.00000000000E+00 -0.45593999997E+02  0.45594000000E+02  0.51100000000E-03 0.  1.
    9900012    2    1    2    0    0 -0.14503275452E+02  0.40891416897E+02 -0.10823958845E+01  0.47787256279E+02  0.19999932678E+02 0.  0.
        -12    1    1    2    0    0  0.14503275452E+02 -0.40891416897E+02  0.10823958845E+01  0.43400743721E+02  0.00000000000E+00 0.  1.
         11    1    3    3    0    0 -0.10261978110E+02  0.15954221882E+02 -0.26726391384E+01  0.19156941061E+02  0.51100000000E-03 0. -1.
        -11    1    3    3    0    0  0.20179380768E+01  0.20777064461E+02  0.26423494986E+01  0.21041399498E+02  0.51100000000E-03 0.  1.
         12    1    3    3    0    0 -0.62592354185E+01  0.41601305539E+01 -0.10521062447E+01  0.75889157197E+01  0.00000000000E+00 0. -1.
</event>
<event>
 7    1  0.2110035E-010  0.4778727E+02  0.7816164E-02  0.1312668E+00
        -11   -1    0    0    0    0  0.00000000000E+00  0.00000000000E+00  0.45593999997E+02  0.45594000000E+02  0.51100000000E-03 0. -1.
         11   -1    0    0    0    0 -0.00000000000E+00 -0.00000000000E+00 -0.45593999997E+02  0.45594000000E+02  0.51100000000E-03 0.  1.
    9900012    2    1    2    0    0 -0.53415798786E+00 -0.13227888647E+01  0.43377275336E+02  0.47787272924E+02  0.20000008568E+02 0.  0.
        -12    1    1    2    0    0  0.53415798786E+00  0.13227888647E+01 -0.43377275336E+02  0.43400727076E+02  0.00000000000E+00 0.  1.
         11    1    3    3    0    0 -0.80107476649E+01 -0.68509451256E+00  0.12396684053E+02  0.14775628867E+02  0.51100000000E-03 0. -1.
        -11    1    3    3    0    0  0.42039716113E+01  0.23167509368E+01  0.61952199461E+01  0.78371846127E+01  0.51100000000E-03 0.  1.
        -12    1    3    3    0    0  0.32726180657E+01 -0.29544452889E+01  0.24785371337E+02  0.25174459444E+02  0.00000000000E+00 0.  1.
</event>
<event>
 7    1  0.2110035E-010  0.4778727E+02  0.7816164E-02  0.1312668E+00
        -11   -1    0    0    0    0  0.00000000000E+00  0.00000000000E+00  0.45593999997E+02  0.45594000000E+02  0.51100000000E-03 0.  1.
         11   -1    0    0    0    0 -0.00000000000E+00 -0.00000000000E+00 -0.45593999997E+02  0.45594000000E+02  0.51100000000E-03 0. -1.
    9900012    2    1    2    0    0  0.80766377498E+01  0.24434139745E+02 -0.34948023372E+02  0.47787267287E+02  0.19999982869E+02 0.  0.
        -12    1    1    2    0    0 -0.80766377498E+01 -0.24434139745E+02  0.34948023372E+02  0.43400732713E+02  0.00000000000E+00 0.  1.
         11    1    3    3    0    0  0.82299564370E+01  0.86556602152E+01 -0.21608070989E+02  0.24689296645E+02  0.51100000000E-03 0. -1.
        -11    1    3    3    0    0  0.41394861013E+01  0.65239272787E+01 -0.22895396652E+01  0.80584715958E+01  0.51100000000E-03 0.  1.
         12    1    3    3    0    0 -0.42928047885E+01  0.92545522512E+01 -0.11050412718E+02  0.15039499046E+02  0.00000000000E+00 0. -1.
</event>
<event>
 7    1  0.2110035E-010  0.4778727E+02  0.7816164E-02  0.1312668E+00
        -11   -1    0    0    0    0  0.00000000000E+00  0.00000000000E+00  0.45593999997E+02  0.45594000000E+02  0.51100000000E-03 0. -1.
         11   -1    0    0    0    0 -0.00000000000E+00 -0.00000000000E+00 -0.45593999997E+02  0.45594000000E+02  0.51100000000E-03 0.  1.
    9900012    2    1    2    0    0  0.42997193587E+02 -0.32744246879E+01  0.49135388668E+01  0.47787269850E+02  0.19999994553E+02 0.  0.
        -12    1    1    2    0    0 -0.42997193587E+02  0.32744246879E+01 -0.49135388668E+01  0.43400730150E+02  0.00000000000E+00 0.  1.
         11    1    3    3    0    0  0.17868858738E+02 -0.44292123487E+01  0.65938335024E+01  0.19554863210E+02  0.51100000000E-03 0. -1.
        -11    1    3    3    0    0  0.78230679056E+01  0.55436614248E+01  0.24742529105E+01  0.99022472791E+01  0.51100000000E-03 0.  1.
         12    1    3    3    0    0  0.17305266943E+02 -0.43888737640E+01 -0.41545475461E+01  0.18330159361E+02  0.00000000000E+00 0. -1.
</event>
<event>
 7    1  0.2110035E-010  0.4778729E+02  0.7816164E-02  0.1312668E+00
        -11   -1    0    0    0    0  0.00000000000E+00  0.00000000000E+00  0.45593999997E+02  0.45594000000E+02  0.51100000000E-03 0. -1.
         11   -1    0    0    0    0 -0.00000000000E+00 -0.00000000000E+00 -0.45593999997E+02  0.45594000000E+02  0.51100000000E-03 0.  1.
    9900012    2    1    2    0    0  0.25767581161E+02 -0.33300236134E+02 -0.10523661673E+02  0.47787292397E+02  0.20000097354E+02 0.  0.
        -12    1    1    2    0    0 -0.25767581161E+02  0.33300236134E+02  0.10523661673E+02  0.43400707603E+02  0.00000000000E+00 0.  1.
         11    1    3    3    0    0 -0.14845129260E+01 -0.13796697395E+01  0.10170364636E+01  0.22675164050E+01  0.51100000000E-03 0.  1.
        -11    1    3    3    0    0  0.14918293442E+02 -0.76338938754E+01 -0.52846832386E+01  0.17571559183E+02  0.51100000000E-03 0. -1.
         12    1    3    3    0    0  0.12333800644E+02 -0.24286672519E+02 -0.62560148983E+01  0.27948216809E+02  0.00000000000E+00 0. -1.
</event>
<event>
 7    1  0.2110035E-010  0.4778727E+02  0.7816164E-02  0.1312668E+00
        -11   -1    0    0    0    0  0.00000000000E+00  0.00000000000E+00  0.45593999997E+02  0.45594000000E+02  0.51100000000E-03 0.  1.
         11   -1    0    0    0    0 -0.00000000000E+00 -0.00000000000E+00 -0.45593999997E+02  0.45594000000E+02  0.51100000000E-03 0. -1.
    9900012    2    1    2    0    0  0.16300688893E+01 -0.39108128811E+02 -0.18748880761E+02  0.47787269666E+02  0.19999993717E+02 0.  0.
        -12    1    1    2    0    0 -0.16300688893E+01  0.39108128811E+02  0.18748880761E+02  0.43400730334E+02  0.00000000000E+00 0.  1.
         11    1    3    3    0    0  0.89407875102E+01 -0.20751501338E+02 -0.70867457355E+01  0.23680887957E+02  0.51100000000E-03 0. -1.
        -11    1    3    3    0    0 -0.42919388135E+01 -0.54590194157E+01 -0.82712694606E+00  0.69932661186E+01  0.51100000000E-03 0.  1.
         12    1    3    3    0    0 -0.30187798074E+01 -0.12897608058E+02 -0.10835008079E+02  0.17113115591E+02  0.00000000000E+00 0. -1.
</event>
<event>
 7    1  0.2110035E-010  0.4778728E+02  0.7816164E-02  0.1312668E+00
        -11   -1    0    0    0    0  0.00000000000E+00  0.00000000000E+00  0.45593999997E+02  0.45594000000E+02  0.51100000000E-03 0.  1.
         11   -1    0    0    0    0 -0.00000000000E+00 -0.00000000000E+00 -0.45593999997E+02  0.45594000000E+02  0.51100000000E-03 0. -1.
    9900012    2    1    2    0    0  0.14654411857E+02  0.29143588324E+02 -0.28627291977E+02  0.47787281421E+02  0.20000047311E+02 0.  0.
        -12    1    1    2    0    0 -0.14654411857E+02 -0.29143588324E+02  0.28627291977E+02  0.43400718579E+02  0.00000000000E+00 0.  1.
         11    1    3    3    0    0  0.46216842732E+01  0.10461143835E+02 -0.70089818665E+01  0.13413475423E+02  0.51100000000E-03 0. -1.
        -11    1    3    3    0    0  0.42192338653E+01  0.59723176145E+01  0.13993761008E+01  0.74450497535E+01  0.51100000000E-03 0.  1.
         12    1    3    3    0    0  0.58134937190E+01  0.12710126874E+02 -0.23017686211E+02  0.26928756244E+02  0.00000000000E+00 0. -1.
</event>
<event>
 7    1  0.2110035E-010  0.4778727E+02  0.7816164E-02  0.1312668E+00
        -11   -1    0    0    0    0  0.00000000000E+00  0.00000000000E+00  0.45593999997E+02  0.45594000000E+02  0.51100000000E-03 0.  1.
         11   -1    0    0    0    0 -0.00000000000E+00 -0.00000000000E+00 -0.45593999997E+02  0.45594000000E+02  0.51100000000E-03 0. -1.
    9900012    2    1    2    0    0 -0.29151231926E+02  0.17008609844E+02 -0.27286191126E+02  0.47787270077E+02  0.19999995591E+02 0.  0.
        -12    1    1    2    0    0  0.29151231926E+02 -0.17008609844E+02  0.27286191126E+02  0.43400729923E+02  0.00000000000E+00 0.  1.
         11    1    3    3    0    0 -0.38506445840E+00  0.29368800360E+01  0.12507105092E+00  0.29646554626E+01  0.51100000000E-03 0.  1.
        -11    1    3    3    0    0 -0.25738250683E+02  0.91283082263E+01 -0.27854795682E+02  0.39008629840E+02  0.51100000000E-03 0. -1.
         12    1    3    3    0    0 -0.30279167848E+01  0.49434215815E+01  0.44353350469E+00  0.58139847745E+01  0.00000000000E+00 0. -1.
</event>
<event>
 7    1  0.2110035E-010  0.4778727E+02  0.7816164E-02  0.1312668E+00
        -11   -1    0    0    0    0  0.00000000000E+00  0.00000000000E+00  0.45593999997E+02  0.45594000000E+02  0.51100000000E-03 0.  1.
         11   -1    0    0    0    0 -0.00000000000E+00 -0.00000000000E+00 -0.45593999997E+02  0.45594000000E+02  0.51100000000E-03 0. -1.
    9900012    2    1    2    0    0  0.16307630882E+02 -0.36514730034E+02 -0.16862960394E+02  0.47787265356E+02  0.19999974062E+02 0.  0.
        -12    1    1    2    0    0 -0.16307630882E+02  0.36514730034E+02  0.16862960394E+02  0.43400734644E+02  0.00000000000E+00 0.  1.
         11    1    3    3    0    0 -0.12063108987E+01 -0.27307506788E+01 -0.37295543170E+01  0.47772126725E+01  0.51100000000E-03 0. -1.
        -11    1    3    3    0    0  0.16631933258E+02 -0.34621388729E+02 -0.14612749667E+02  0.41094941472E+02  0.51100000000E-03 0.  1.
        -12    1    3    3    0    0  0.88200852268E+00  0.83740937464E+00  0.14793435899E+01  0.19151112113E+01  0.00000000000E+00 0.  1.
</event>
<event>
 7    1  0.2110035E-010  0.4778727E+02  0.7816164E-02  0.1312668E+00
        -11   -1    0    0    0    0  0.00000000000E+00  0.00000000000E+00  0.45593999997E+02  0.45594000000E+02  0.51100000000E-03 0.  1.
         11   -1    0    0    0    0 -0.00000000000E+00 -0.00000000000E+00 -0.45593999997E+02  0.45594000000E+02  0.51100000000E-03 0. -1.
    9900012    2    1    2    0    0  0.15891237865E+02 -0.35463626158E+02 -0.19324151466E+02  0.47787273612E+02  0.20000011705E+02 0.  0.
        -12    1    1    2    0    0 -0.15891237865E+02  0.35463626158E+02  0.19324151466E+02  0.43400726388E+02  0.00000000000E+00 0.  1.
         11    1    3    3    0    0  0.12667094222E+02 -0.18181960395E+02 -0.13223129431E+02  0.25804846678E+02  0.51100000000E-03 0. -1.
        -11    1    3    3    0    0 -0.75592713684E+00  0.16197760640E+01 -0.75453058992E+00  0.19402105571E+01  0.51100000000E-03 0.  1.
         12    1    3    3    0    0  0.39800707805E+01 -0.18901441826E+02 -0.53464914448E+01  0.20042216377E+02  0.00000000000E+00 0. -1.
</event>
<event>
 7    1  0.2110035E-010  0.4778727E+02  0.7816164E-02  0.1312668E+00
        -11   -1    0    0    0    0  0.00000000000E+00  0.00000000000E+00  0.45593999997E+02  0.45594000000E+02  0.51100000000E-03 0.  1.
         11   -1    0    0    0    0 -0.00000000000E+00 -0.00000000000E+00 -0.45593999997E+02  0.45594000000E+02  0.51100000000E-03 0. -1.
    9900012    2    1    2    0    0  0.32835692368E+01 -0.29189285275E+02 -0.31950385363E+02  0.47787270436E+02  0.19999997227E+02 0.  0.
        -12    1    1    2    0    0 -0.32835692368E+01  0.29189285275E+02  0.31950385363E+02  0.43400729564E+02  0.00000000000E+00 0.  1.
         11    1    3    3    0    0  0.18353467691E+01 -0.42541358618E+01  0.88933808741E+00  0.47177422766E+01  0.51100000000E-03 0. -1.
        -11    1    3    3    0    0 -0.28397399985E+00 -0.26934416989E+01 -0.12793733958E+02  0.13077266468E+02  0.51100000000E-03 0.  1.
         12    1    3    3    0    0  0.17321964676E+01 -0.22241707715E+02 -0.20045989492E+02  0.29992261692E+02  0.00000000000E+00 0. -1.
</event>
<event>
 7    1  0.2110035E-010  0.4778727E+02  0.7816164E-02  0.1312668E+00
        -11   -1    0    0    0    0  0.00000000000E+00  0.00000000000E+00  0.45593999997E+02  0.45594000000E+02  0.51100000000E-03 0.  1.
         11   -1    0    0    0    0 -0.00000000000E+00 -0.00000000000E+00 -0.45593999997E+02  0.45594000000E+02  0.51100000000E-03 0. -1.
    9900012    2    1    2    0    0 -0.31219795962E+02 -0.26575300725E+02  0.14237324647E+02  0.47787266347E+02  0.19999978582E+02 0.  0.
        -12    1    1    2    0    0  0.31219795962E+02  0.26575300725E+02 -0.14237324647E+02  0.43400733653E+02  0.00000000000E+00 0.  1.
         11    1    3    3    0    0 -0.11017841031E+02 -0.28718522594E+01  0.53932294325E+01  0.12598701534E+02  0.51100000000E-03 0. -1.
        -11    1    3    3    0    0 -0.38209092696E+00 -0.29676002321E+00 -0.24553201457E+01  0.25025301731E+01  0.51100000000E-03 0.  1.
         12    1    3    3    0    0 -0.19819864004E+02 -0.23406688443E+02  0.11299415360E+02  0.32686034640E+02  0.00000000000E+00 0. -1.
</event>
<event>
 7    1  0.2110035E-010  0.4778727E+02  0.7816164E-02  0.1312668E+00
        -11   -1    0    0    0    0  0.00000000000E+00  0.00000000000E+00  0.45593999997E+02  0.45594000000E+02  0.51100000000E-03 0.  1.
         11   -1    0    0    0    0 -0.00000000000E+00 -0.00000000000E+00 -0.45593999997E+02  0.45594000000E+02  0.51100000000E-03 0. -1.
    9900012    2    1    2    0    0 -0.31306403429E+01  0.22223091281E+02 -0.37147766393E+02  0.47787271400E+02  0.20000001622E+02 0.  0.
        -12    1    1    2    0    0  0.31306403429E+01 -0.22223091281E+02  0.37147766393E+02  0.43400728600E+02  0.00000000000E+00 0.  1.
         11    1    3    3    0    0 -0.35981085954E+01 -0.15453410004E+01 -0.69981702655E+01  0.80192799925E+01  0.51100000000E-03 0. -1.
        -11    1    3    3    0    0 -0.15914192087E+01  0.11636654589E+01  0.70695139436E-01  0.19727469331E+01  0.51100000000E-03 0.  1.
         12    1    3    3    0    0  0.20588874612E+01  0.22604766822E+02 -0.30220291267E+02  0.37795244475E+02  0.00000000000E+00 0. -1.
</event>
<event>
 7    1  0.2110035E-010  0.4778727E+02  0.7816164E-02  0.1312668E+00
        -11   -1    0    0    0    0  0.00000000000E+00  0.00000000000E+00  0.45593999997E+02  0.45594000000E+02  0.51100000000E-03 0.  1.
         11   -1    0    0    0    0 -0.00000000000E+00 -0.00000000000E+00 -0.45593999997E+02  0.45594000000E+02  0.51100000000E-03 0. -1.
    9900012    2    1    2    0    0  0.24337122514E+02 -0.33233668370E+02 -0.13669348739E+02  0.47787270276E+02  0.19999996498E+02 0.  0.
        -12    1    1    2    0    0 -0.24337122514E+02  0.33233668370E+02  0.13669348739E+02  0.43400729724E+02  0.00000000000E+00 0.  1.
         11    1    3    3    0    0  0.16143910793E+02 -0.18502488920E+02 -0.17135870218E+02  0.29943379908E+02  0.51100000000E-03 0. -1.
        -11    1    3    3    0    0  0.48604504793E+01 -0.48430364140E+01  0.27255590096E+01  0.73829298212E+01  0.51100000000E-03 0.  1.
         12    1    3    3    0    0  0.33327612419E+01 -0.98881430360E+01  0.74096246886E+00  0.10460960548E+02  0.00000000000E+00 0. -1.
</event>
<event>
 7    1  0.2110035E-010  0.4778727E+02  0.7816164E-02  0.1312668E+00
        -11   -1    0    0    0    0  0.00000000000E+00  0.00000000000E+00  0.45593999997E+02  0.45594000000E+02  0.51100000000E-03 0. -1.
         11   -1    0    0    0    0 -0.00000000000E+00 -0.00000000000E+00 -0.45593999997E+02  0.45594000000E+02  0.51100000000E-03 0.  1.
    9900012    2    1    2    0    0  0.29197911451E+02  0.32058583111E+02  0.18310975734E+01  0.47787266106E+02  0.19999977486E+02 0.  0.
        -12    1    1    2    0    0 -0.29197911451E+02 -0.32058583111E+02 -0.18310975734E+01  0.43400733894E+02  0.00000000000E+00 0.  1.
         11    1    3    3    0    0  0.98200836188E+00  0.10083056351E+02 -0.47244399583E+01  0.11178224322E+02  0.51100000000E-03 0.  1.
        -11    1    3    3    0    0  0.93500748392E+01  0.65078321217E+01  0.40249730266E+01  0.12082060526E+02  0.51100000000E-03 0. -1.
        -12    1    3    3    0    0  0.18865828250E+02  0.15467694638E+02  0.25305645051E+01  0.24526981259E+02  0.00000000000E+00 0.  1.
</event>
<event>
 7    1  0.2110035E-010  0.4778726E+02  0.7816164E-02  0.1312668E+00
        -11   -1    0    0    0    0  0.00000000000E+00  0.00000000000E+00  0.45593999997E+02  0.45594000000E+02  0.51100000000E-03 0.  1.
         11   -1    0    0    0    0 -0.00000000000E+00 -0.00000000000E+00 -0.45593999997E+02  0.45594000000E+02  0.51100000000E-03 0. -1.
    9900012    2    1    2    0    0 -0.29984410286E+02 -0.38153709531E+01 -0.31144862037E+02  0.47787258681E+02  0.19999943631E+02 0.  0.
        -12    1    1    2    0    0  0.29984410286E+02  0.38153709531E+01  0.31144862037E+02  0.43400741319E+02  0.00000000000E+00 0.  1.
         11    1    3    3    0    0 -0.54024403323E+01 -0.18558085505E+01 -0.11855718275E+00  0.57135315687E+01  0.51100000000E-03 0.  1.
        -11    1    3    3    0    0 -0.15046238703E+02 -0.71082537467E+01 -0.23829416442E+02  0.29064715011E+02  0.51100000000E-03 0. -1.
         12    1    3    3    0    0 -0.95357312505E+01  0.51486913440E+01 -0.71968884121E+01  0.13009012101E+02  0.00000000000E+00 0. -1.
</event>
<event>
 7    1  0.2110035E-010  0.4778727E+02  0.7816164E-02  0.1312668E+00
        -11   -1    0    0    0    0  0.00000000000E+00  0.00000000000E+00  0.45593999997E+02  0.45594000000E+02  0.51100000000E-03 0. -1.
         11   -1    0    0    0    0 -0.00000000000E+00 -0.00000000000E+00 -0.45593999997E+02  0.45594000000E+02  0.51100000000E-03 0.  1.
    9900012    2    1    2    0    0 -0.16725329887E+02 -0.38836002522E+02 -0.97801600734E+01  0.47787270942E+02  0.19999999532E+02 0.  0.
        -12    1    1    2    0    0  0.16725329887E+02  0.38836002522E+02  0.97801600734E+01  0.43400729058E+02  0.00000000000E+00 0.  1.
         11    1    3    3    0    0 -0.11250965922E+01 -0.57369575375E+01 -0.89029232052E+01  0.10650848135E+02  0.51100000000E-03 0.  1.
        -11    1    3    3    0    0 -0.73214482317E+01 -0.13757003829E+02 -0.33875973087E+01  0.15947870527E+02  0.51100000000E-03 0. -1.
        -12    1    3    3    0    0 -0.82787850628E+01 -0.19342041155E+02  0.25103604405E+01  0.21188552280E+02  0.00000000000E+00 0.  1.
</event>
<event>
 7    1  0.2110035E-010  0.4778726E+02  0.7816164E-02  0.1312668E+00
        -11   -1    0    0    0    0  0.00000000000E+00  0.00000000000E+00  0.45593999997E+02  0.45594000000E+02  0.51100000000E-03 0.  1.
         11   -1    0    0    0    0 -0.00000000000E+00 -0.00000000000E+00 -0.45593999997E+02  0.45594000000E+02  0.51100000000E-03 0. -1.
    9900012    2    1    2    0    0  0.39474600182E+02  0.34468968680E+01 -0.17705900899E+02  0.47787261709E+02  0.19999957438E+02 0.  0.
        -12    1    1    2    0    0 -0.39474600182E+02 -0.34468968680E+01  0.17705900899E+02  0.43400738291E+02  0.00000000000E+00 0.  1.
         11    1    3    3    0    0  0.19724516443E-01 -0.34113062715E+01 -0.27947167226E+01  0.44099706751E+01  0.51100000000E-03 0.  1.
        -11    1    3    3    0    0  0.16704236798E+02 -0.28145973536E+00 -0.41353559482E+01  0.17210808106E+02  0.51100000000E-03 0. -1.
         12    1    3    3    0    0  0.22750638867E+02  0.71396628749E+01 -0.10775828228E+02  0.26166482928E+02  0.00000000000E+00 0. -1.
</event>
<event>
 7    1  0.2110035E-010  0.4778727E+02  0.7816164E-02  0.1312668E+00
        -11   -1    0    0    0    0  0.00000000000E+00  0.00000000000E+00  0.45593999997E+02  0.45594000000E+02  0.51100000000E-03 0.  1.
         11   -1    0    0    0    0 -0.00000000000E+00 -0.00000000000E+00 -0.45593999997E+02  0.45594000000E+02  0.51100000000E-03 0. -1.
    9900012    2    1    2    0    0  0.44940864105E+01  0.32801741086E+01 -0.43042614757E+02  0.47787273739E+02  0.20000012286E+02 0.  0.
        -12    1    1    2    0    0 -0.44940864105E+01 -0.32801741086E+01  0.43042614757E+02  0.43400726261E+02  0.00000000000E+00 0.  1.
         11    1    3    3    0    0  0.80792102379E+00 -0.44812719944E+00  0.38875642339E-01  0.92469775832E+00  0.51100000000E-03 0. -1.
        -11    1    3    3    0    0 -0.68259724326E+01  0.37510967221E+01 -0.15528534372E+02  0.17372392071E+02  0.51100000000E-03 0.  1.
         12    1    3    3    0    0  0.10512137819E+02 -0.22795414124E-01 -0.27552956028E+02  0.29490183910E+02  0.00000000000E+00 0. -1.
</event>
<event>
 7    1  0.2110035E-010  0.4778731E+02  0.7816164E-02  0.1312668E+00
        -11   -1    0    0    0    0  0.00000000000E+00  0.00000000000E+00  0.45593999997E+02  0.45594000000E+02  0.51100000000E-03 0.  1.
         11   -1    0    0    0    0 -0.00000000000E+00 -0.00000000000E+00 -0.45593999997E+02  0.45594000000E+02  0.51100000000E-03 0. -1.
    9900012    2    1    2    0    0  0.53986904657E+01  0.35891840852E+02 -0.23795997556E+02  0.47787313390E+02  0.20000193069E+02 0.  0.
        -12    1    1    2    0    0 -0.53986904657E+01 -0.35891840852E+02  0.23795997556E+02  0.43400686610E+02  0.00000000000E+00 0.  1.
         11    1    3    3    0    0 -0.26465086168E+01  0.21950425206E+01  0.77745285862E+00  0.35251457749E+01  0.51100000000E-03 0. -1.
        -11    1    3    3    0    0  0.89059829198E+01  0.16794787556E+02 -0.81634379092E+01  0.20688720105E+02  0.51100000000E-03 0.  1.
         12    1    3    3    0    0 -0.86078383727E+00  0.16902010776E+02 -0.16410012506E+02  0.23573447510E+02  0.00000000000E+00 0. -1.
</event>
<event>
 7    1  0.2110035E-010  0.4778728E+02  0.7816164E-02  0.1312668E+00
        -11   -1    0    0    0    0  0.00000000000E+00  0.00000000000E+00  0.45593999997E+02  0.45594000000E+02  0.51100000000E-03 0. -1.
         11   -1    0    0    0    0 -0.00000000000E+00 -0.00000000000E+00 -0.45593999997E+02  0.45594000000E+02  0.51100000000E-03 0.  1.
    9900012    2    1    2    0    0  0.39014450109E+02 -0.16504774884E+02 -0.94386310342E+01  0.47787278035E+02  0.20000031872E+02 0.  0.
        -12    1    1    2    0    0 -0.39014450109E+02  0.16504774884E+02  0.94386310342E+01  0.43400721965E+02  0.00000000000E+00 0.  1.
         11    1    3    3    0    0  0.11544978078E+02 -0.25199431936E+01 -0.89485391017E+01  0.14822718538E+02  0.51100000000E-03 0. -1.
        -11    1    3    3    0    0  0.69389462433E+01 -0.29794713157E-01  0.35811785008E+01  0.78086299955E+01  0.51100000000E-03 0.  1.
        -12    1    3    3    0    0  0.20530525787E+02 -0.13955036978E+02 -0.40712704332E+01  0.25155929502E+02  0.00000000000E+00 0.  1.
</event>
<event>
 7    1  0.2110035E-010  0.4778727E+02  0.7816164E-02  0.1312668E+00
        -11   -1    0    0    0    0  0.00000000000E+00  0.00000000000E+00  0.45593999997E+02  0.45594000000E+02  0.51100000000E-03 0.  1.
         11   -1    0    0    0    0 -0.00000000000E+00 -0.00000000000E+00 -0.45593999997E+02  0.45594000000E+02  0.51100000000E-03 0. -1.
    9900012    2    1    2    0    0 -0.34847243217E+02  0.14779767991E+01 -0.25828442108E+02  0.47787271930E+02  0.20000004037E+02 0.  0.
        -12    1    1    2    0    0  0.34847243217E+02 -0.14779767991E+01  0.25828442108E+02  0.43400728070E+02  0.00000000000E+00 0.  1.
         11    1    3    3    0    0 -0.14366341673E+02  0.34440988595E+01 -0.71119523446E+01  0.16396141511E+02  0.51100000000E-03 0. -1.
        -11    1    3    3    0    0  0.43215053721E+00 -0.28491854531E+01  0.55988060177E+00  0.29356563801E+01  0.51100000000E-03 0.  1.
        -12    1    3    3    0    0 -0.20913052082E+02  0.88306339273E+00 -0.19276370366E+02  0.28455474039E+02  0.00000000000E+00 0.  1.
</event>
<event>
 7    1  0.2734462E-010  0.4778726E+02  0.7816164E-02  0.1312668E+00
        -11   -1    0    0    0    0  0.00000000000E+00  0.00000000000E+00  0.45593999997E+02  0.45594000000E+02  0.51100000000E-03 0.  1.
         11   -1    0    0    0    0 -0.00000000000E+00 -0.00000000000E+00 -0.45593999997E+02  0.45594000000E+02  0.51100000000E-03 0. -1.
    9900012    2    1    2    0    0  0.54310831092E+01  0.42993161060E+02 -0.23906887433E+01  0.47787263205E+02  0.19999964256E+02 0.  0.
        -12    1    1    2    0    0 -0.54310831092E+01 -0.42993161060E+02  0.23906887433E+01  0.43400736795E+02  0.00000000000E+00 0.  1.
         11    1    3    3    0    0  0.41672806853E+01  0.18186479017E+02 -0.74659578612E+00  0.18672751615E+02  0.51100000000E-03 0. -1.
        -11    1    3    3    0    0  0.16833667244E+01  0.21263451180E+01  0.48170936707E+01  0.55280610328E+01  0.51100000000E-03 0.  1.
        -12    1    3    3    0    0 -0.41956430045E+00  0.22680336925E+02 -0.64611866278E+01  0.23586450557E+02  0.00000000000E+00 0.  1.
</event>
<event>
 7    1  0.2110035E-010  0.4778727E+02  0.7816164E-02  0.1312668E+00
        -11   -1    0    0    0    0  0.00000000000E+00  0.00000000000E+00  0.45593999997E+02  0.45594000000E+02  0.51100000000E-03 0.  1.
         11   -1    0    0    0    0 -0.00000000000E+00 -0.00000000000E+00 -0.45593999997E+02  0.45594000000E+02  0.51100000000E-03 0. -1.
    9900012    2    1    2    0    0  0.35758131374E+02  0.24063612993E+02 -0.50913629010E+01  0.47787269524E+02  0.19999993068E+02 0.  0.
        -12    1    1    2    0    0 -0.35758131374E+02 -0.24063612993E+02  0.50913629010E+01  0.43400730476E+02  0.00000000000E+00 0.  1.
         11    1    3    3    0    0 -0.21010407690E+00  0.25046624064E+01  0.31940395431E+01  0.40644023370E+01  0.51100000000E-03 0.  1.
        -11    1    3    3    0    0  0.87232245361E+01  0.33397146799E+01 -0.54753048050E+01  0.10827155832E+02  0.51100000000E-03 0. -1.
        -12    1    3    3    0    0  0.27245010915E+02  0.18219235907E+02 -0.28100976390E+01  0.32895711355E+02  0.00000000000E+00 0.  1.
</event>
<event>
 7    1  0.2110035E-010  0.4778727E+02  0.7816164E-02  0.1312668E+00
        -11   -1    0    0    0    0  0.00000000000E+00  0.00000000000E+00  0.45593999997E+02  0.45594000000E+02  0.51100000000E-03 0. -1.
         11   -1    0    0    0    0 -0.00000000000E+00 -0.00000000000E+00 -0.45593999997E+02  0.45594000000E+02  0.51100000000E-03 0.  1.
    9900012    2    1    2    0    0 -0.20981233665E+02  0.36772178666E+01  0.37813875989E+02  0.47787270575E+02  0.19999997860E+02 0.  0.
        -12    1    1    2    0    0  0.20981233665E+02 -0.36772178666E+01 -0.37813875989E+02  0.43400729425E+02  0.00000000000E+00 0.  1.
         11    1    3    3    0    0 -0.78590591515E+01 -0.12527749093E+01  0.18525553858E+02  0.20162599082E+02  0.51100000000E-03 0. -1.
        -11    1    3    3    0    0 -0.11368115300E+02  0.82401262051E+01  0.90044826493E+01  0.16679761191E+02  0.51100000000E-03 0.  1.
         12    1    3    3    0    0 -0.17540592131E+01 -0.33101334292E+01  0.10283839481E+02  0.10944910302E+02  0.00000000000E+00 0. -1.
</event>
<event>
 7    1  0.2110035E-010  0.4778727E+02  0.7816164E-02  0.1312668E+00
        -11   -1    0    0    0    0  0.00000000000E+00  0.00000000000E+00  0.45593999997E+02  0.45594000000E+02  0.51100000000E-03 0.  1.
         11   -1    0    0    0    0 -0.00000000000E+00 -0.00000000000E+00 -0.45593999997E+02  0.45594000000E+02  0.51100000000E-03 0. -1.
    9900012    2    1    2    0    0  0.11510782313E+02  0.21666452284E+02 -0.35800701545E+02  0.47787268495E+02  0.19999988377E+02 0.  0.
        -12    1    1    2    0    0 -0.11510782313E+02 -0.21666452284E+02  0.35800701545E+02  0.43400731505E+02  0.00000000000E+00 0.  1.
         11    1    3    3    0    0  0.53596514231E+01  0.22793035791E+02 -0.28338844251E+02  0.36760555459E+02  0.51100000000E-03 0. -1.
        -11    1    3    3    0    0  0.41944337190E+01  0.94813927419E+00 -0.17504445852E+01  0.46428761359E+01  0.51100000000E-03 0.  1.
        -12    1    3    3    0    0  0.19566971707E+01 -0.20747227809E+01 -0.57114127089E+01  0.63838369001E+01  0.00000000000E+00 0.  1.
</event>
<event>
 7    1  0.2110035E-010  0.4778727E+02  0.7816164E-02  0.1312668E+00
        -11   -1    0    0    0    0  0.00000000000E+00  0.00000000000E+00  0.45593999997E+02  0.45594000000E+02  0.51100000000E-03 0.  1.
         11   -1    0    0    0    0 -0.00000000000E+00 -0.00000000000E+00 -0.45593999997E+02  0.45594000000E+02  0.51100000000E-03 0. -1.
    9900012    2    1    2    0    0  0.52486180238E+01 -0.25725774746E+02  0.34558061689E+02  0.47787272988E+02  0.20000008862E+02 0.  0.
        -12    1    1    2    0    0 -0.52486180238E+01  0.25725774746E+02 -0.34558061689E+02  0.43400727012E+02  0.00000000000E+00 0.  1.
         11    1    3    3    0    0  0.71495483237E+01 -0.14040422144E+02  0.12776482419E+02  0.20285166958E+02  0.51100000000E-03 0. -1.
        -11    1    3    3    0    0 -0.22246765507E+01 -0.19481829722E+01 -0.66625624422E+00  0.30312539143E+01  0.51100000000E-03 0.  1.
         12    1    3    3    0    0  0.32374625089E+00 -0.97371696293E+01  0.22447835514E+02  0.24470852116E+02  0.00000000000E+00 0. -1.
</event>
<event>
 7    1  0.2110035E-010  0.4778727E+02  0.7816164E-02  0.1312668E+00
        -11   -1    0    0    0    0  0.00000000000E+00  0.00000000000E+00  0.45593999997E+02  0.45594000000E+02  0.51100000000E-03 0.  1.
         11   -1    0    0    0    0 -0.00000000000E+00 -0.00000000000E+00 -0.45593999997E+02  0.45594000000E+02  0.51100000000E-03 0. -1.
    9900012    2    1    2    0    0 -0.28988575065E+02 -0.29544891075E+02 -0.13053168558E+02  0.47787270946E+02  0.19999999552E+02 0.  0.
        -12    1    1    2    0    0  0.28988575065E+02  0.29544891075E+02  0.13053168558E+02  0.43400729054E+02  0.00000000000E+00 0.  1.
         11    1    3    3    0    0 -0.16116521912E+02 -0.23415306356E+02 -0.16392937259E+01  0.28472901757E+02  0.51100000000E-03 0.  1.
        -11    1    3    3    0    0 -0.63915897878E+00 -0.27750635801E+01 -0.27075777765E+01  0.39294375871E+01  0.51100000000E-03 0. -1.
        -12    1    3    3    0    0 -0.12232894175E+02 -0.33545211391E+01 -0.87062970560E+01  0.15384931602E+02  0.00000000000E+00 0.  1.
</event>
<event>
 7    1  0.2110035E-010  0.4778727E+02  0.7816164E-02  0.1312668E+00
        -11   -1    0    0    0    0  0.00000000000E+00  0.00000000000E+00  0.45593999997E+02  0.45594000000E+02  0.51100000000E-03 0.  1.
         11   -1    0    0    0    0 -0.00000000000E+00 -0.00000000000E+00 -0.45593999997E+02  0.45594000000E+02  0.51100000000E-03 0. -1.
    9900012    2    1    2    0    0 -0.36247889053E+02 -0.23182671569E+02  0.56813342755E+01  0.47787270962E+02  0.19999999625E+02 0.  0.
        -12    1    1    2    0    0  0.36247889053E+02  0.23182671569E+02 -0.56813342755E+01  0.43400729038E+02  0.00000000000E+00 0.  1.
         11    1    3    3    0    0 -0.11227970984E+02 -0.44459903887E+01  0.89220506960E+01  0.15014564657E+02  0.51100000000E-03 0.  1.
        -11    1    3    3    0    0 -0.88394506186E+01 -0.11855194929E+02  0.49937666570E+00  0.14796314114E+02  0.51100000000E-03 0. -1.
         12    1    3    3    0    0 -0.16180467450E+02 -0.68814862518E+01 -0.37400930862E+01  0.17976392191E+02  0.00000000000E+00 0. -1.
</event>
<event>
 7    1  0.2110035E-010  0.4778727E+02  0.7816164E-02  0.1312668E+00
        -11   -1    0    0    0    0  0.00000000000E+00  0.00000000000E+00  0.45593999997E+02  0.45594000000E+02  0.51100000000E-03 0. -1.
         11   -1    0    0    0    0 -0.00000000000E+00 -0.00000000000E+00 -0.45593999997E+02  0.45594000000E+02  0.51100000000E-03 0.  1.
    9900012    2    1    2    0    0  0.25435334821E+02 -0.35146075566E+02  0.11918770965E+01  0.47787268945E+02  0.19999990427E+02 0.  0.
        -12    1    1    2    0    0 -0.25435334821E+02  0.35146075566E+02 -0.11918770965E+01  0.43400731055E+02  0.00000000000E+00 0.  1.
         11    1    3    3    0    0 -0.10457102099E+01  0.48243604159E+00 -0.68532013551E+00  0.13401187733E+01  0.51100000000E-03 0. -1.
        -11    1    3    3    0    0  0.19058439834E+02 -0.14370655855E+02  0.17046561323E+01  0.23930017372E+02  0.51100000000E-03 0.  1.
         12    1    3    3    0    0  0.74226051965E+01 -0.21257855752E+02  0.17254109975E+00  0.22517132800E+02  0.00000000000E+00 0. -1.
</event>
<event>
 7    1  0.2494915E-010  0.4778727E+02  0.7816164E-02  0.1312668E+00
        -11   -1    0    0    0    0  0.00000000000E+00  0.00000000000E+00  0.45593999997E+02  0.45594000000E+02  0.51100000000E-03 0.  1.
         11   -1    0    0    0    0 -0.00000000000E+00 -0.00000000000E+00 -0.45593999997E+02  0.45594000000E+02  0.51100000000E-03 0. -1.
    9900012    2    1    2    0    0 -0.41796342262E+02  0.79382217680E+01 -0.85833245558E+01  0.47787273603E+02  0.20000011666E+02 0.  0.
        -12    1    1    2    0    0  0.41796342262E+02 -0.79382217680E+01  0.85833245558E+01  0.43400726397E+02  0.00000000000E+00 0.  1.
         11    1    3    3    0    0 -0.16426287208E+02  0.64956474535E+01 -0.18654165170E+01  0.17762210626E+02  0.51100000000E-03 0. -1.
        -11    1    3    3    0    0 -0.15914487186E+02 -0.13739632994E+00 -0.11181359797E+02  0.19450259312E+02  0.51100000000E-03 0.  1.
        -12    1    3    3    0    0 -0.94555678687E+01  0.15799706444E+01  0.44634517582E+01  0.10574803665E+02  0.00000000000E+00 0.  1.
</event>
<event>
 7    1  0.2110035E-010  0.4778727E+02  0.7816164E-02  0.1312668E+00
        -11   -1    0    0    0    0  0.00000000000E+00  0.00000000000E+00  0.45593999997E+02  0.45594000000E+02  0.51100000000E-03 0.  1.
         11   -1    0    0    0    0 -0.00000000000E+00 -0.00000000000E+00 -0.45593999997E+02  0.45594000000E+02  0.51100000000E-03 0. -1.
    9900012    2    1    2    0    0  0.12208135537E+02 -0.90123945971E+01 -0.40661546044E+02  0.47787272398E+02  0.20000006173E+02 0.  0.
        -12    1    1    2    0    0 -0.12208135537E+02  0.90123945971E+01  0.40661546044E+02  0.43400727602E+02  0.00000000000E+00 0.  1.
         11    1    3    3    0    0  0.73735155780E+01 -0.64689019495E+01 -0.30989260373E+02  0.32504610183E+02  0.51100000000E-03 0. -1.
        -11    1    3    3    0    0  0.50087826453E+01 -0.18564366727E+01 -0.11846868968E+02  0.12995482496E+02  0.51100000000E-03 0.  1.
        -12    1    3    3    0    0 -0.17416268596E+00 -0.68705597481E+00  0.21745832968E+01  0.22871797193E+01  0.00000000000E+00 0.  1.
</event>
<event>
 7    1  0.2110035E-010  0.4778726E+02  0.7816164E-02  0.1312668E+00
        -11   -1    0    0    0    0  0.00000000000E+00  0.00000000000E+00  0.45593999997E+02  0.45594000000E+02  0.51100000000E-03 0. -1.
         11   -1    0    0    0    0 -0.00000000000E+00 -0.00000000000E+00 -0.45593999997E+02  0.45594000000E+02  0.51100000000E-03 0.  1.
    9900012    2    1    2    0    0 -0.21211817851E+02 -0.33105830037E+02 -0.18376260934E+02  0.47787260779E+02  0.19999953198E+02 0.  0.
        -12    1    1    2    0    0  0.21211817851E+02  0.33105830037E+02  0.18376260934E+02  0.43400739221E+02  0.00000000000E+00 0.  1.
         11    1    3    3    0    0 -0.46559263957E+01 -0.87216393975E+00 -0.85230552344E+01  0.97509379718E+01  0.51100000000E-03 0.  1.
        -11    1    3    3    0    0 -0.22971562221E+01 -0.84950674785E+01 -0.52568334303E+00  0.88158630554E+01  0.51100000000E-03 0. -1.
        -12    1    3    3    0    0 -0.14258735233E+02 -0.23738598618E+02 -0.93275223569E+01  0.29220459752E+02  0.00000000000E+00 0.  1.
</event>
<event>
 7    1  0.2110035E-010  0.4778727E+02  0.7816164E-02  0.1312668E+00
        -11   -1    0    0    0    0  0.00000000000E+00  0.00000000000E+00  0.45593999997E+02  0.45594000000E+02  0.51100000000E-03 0.  1.
         11   -1    0    0    0    0 -0.00000000000E+00 -0.00000000000E+00 -0.45593999997E+02  0.45594000000E+02  0.51100000000E-03 0. -1.
    9900012    2    1    2    0    0  0.39904845154E+02 -0.61922951058E+01 -0.15902267273E+02  0.47787270860E+02  0.19999999159E+02 0.  0.
        -12    1    1    2    0    0 -0.39904845154E+02  0.61922951058E+01  0.15902267273E+02  0.43400729140E+02  0.00000000000E+00 0.  1.
         11    1    3    3    0    0  0.47005143920E+01  0.38986763852E+00 -0.61901170741E+01  0.77823121228E+01  0.51100000000E-03 0. -1.
        -11    1    3    3    0    0  0.36436081684E+02 -0.50861509117E+01 -0.97758897150E+01  0.38066060993E+02  0.51100000000E-03 0.  1.
        -12    1    3    3    0    0 -0.12317509214E+01 -0.14960118326E+01  0.63739516194E-01  0.19388977440E+01  0.00000000000E+00 0.  1.
</event>
<event>
 7    1  0.2110035E-010  0.4778726E+02  0.7816164E-02  0.1312668E+00
        -11   -1    0    0    0    0  0.00000000000E+00  0.00000000000E+00  0.45593999997E+02  0.45594000000E+02  0.51100000000E-03 0.  1.
         11   -1    0    0    0    0 -0.00000000000E+00 -0.00000000000E+00 -0.45593999997E+02  0.45594000000E+02  0.51100000000E-03 0. -1.
    9900012    2    1    2    0    0  0.28262292235E+02  0.21043153845E+02 -0.25338754120E+02  0.47787263296E+02  0.19999964672E+02 0.  0.
        -12    1    1    2    0    0 -0.28262292235E+02 -0.21043153845E+02  0.25338754120E+02  0.43400736704E+02  0.00000000000E+00 0.  1.
         11    1    3    3    0    0  0.13006051514E+02  0.15914266246E+02 -0.94574375644E+01  0.22624419809E+02  0.51100000000E-03 0. -1.
        -11    1    3    3    0    0  0.23246616799E+01 -0.17196116730E+01  0.77308050126E+00  0.29931204377E+01  0.51100000000E-03 0.  1.
        -12    1    3    3    0    0  0.12931579041E+02  0.68484992718E+01 -0.16654397057E+02  0.22169723049E+02  0.00000000000E+00 0.  1.
</event>
<event>
 7    1  0.2110035E-010  0.4778728E+02  0.7816164E-02  0.1312668E+00
        -11   -1    0    0    0    0  0.00000000000E+00  0.00000000000E+00  0.45593999997E+02  0.45594000000E+02  0.51100000000E-03 0.  1.
         11   -1    0    0    0    0 -0.00000000000E+00 -0.00000000000E+00 -0.45593999997E+02  0.45594000000E+02  0.51100000000E-03 0. -1.
    9900012    2    1    2    0    0  0.40777848954E+01  0.14205117921E+02 -0.40806969610E+02  0.47787280265E+02  0.20000042039E+02 0.  0.
        -12    1    1    2    0    0 -0.40777848954E+01 -0.14205117921E+02  0.40806969610E+02  0.43400719735E+02  0.00000000000E+00 0.  1.
         11    1    3    3    0    0  0.42409393088E+01  0.72444359026E+00 -0.10689438550E+02  0.11522780980E+02  0.51100000000E-03 0.  1.
        -11    1    3    3    0    0 -0.36883076996E+01  0.66664020176E+01 -0.31799979377E+01  0.82557202407E+01  0.51100000000E-03 0. -1.
         12    1    3    3    0    0  0.35251532862E+01  0.68142723135E+01 -0.26937533122E+02  0.28008779044E+02  0.00000000000E+00 0. -1.
</event>
<event>
 7    1  0.2110035E-010  0.4778727E+02  0.7816164E-02  0.1312668E+00
        -11   -1    0    0    0    0  0.00000000000E+00  0.00000000000E+00  0.45593999997E+02  0.45594000000E+02  0.51100000000E-03 0.  1.
         11   -1    0    0    0    0 -0.00000000000E+00 -0.00000000000E+00 -0.45593999997E+02  0.45594000000E+02  0.51100000000E-03 0. -1.
    9900012    2    1    2    0    0  0.14766903606E+02 -0.79589779029E+01 -0.40027697220E+02  0.47787270558E+02  0.19999997782E+02 0.  0.
        -12    1    1    2    0    0 -0.14766903606E+02  0.79589779029E+01  0.40027697220E+02  0.43400729442E+02  0.00000000000E+00 0.  1.
         11    1    3    3    0    0  0.90518473851E+00  0.45723525948E+01 -0.70776086727E+01  0.84745685700E+01  0.51100000000E-03 0. -1.
        -11    1    3    3    0    0 -0.16109236641E+01 -0.97383698897E+00 -0.49714877660E+01  0.53159311886E+01  0.51100000000E-03 0.  1.
         12    1    3    3    0    0  0.15472642532E+02 -0.11557493509E+02 -0.27978600781E+02  0.33996770799E+02  0.00000000000E+00 0. -1.
</event>
<event>
 7    1  0.2110035E-010  0.4778727E+02  0.7816164E-02  0.1312668E+00
        -11   -1    0    0    0    0  0.00000000000E+00  0.00000000000E+00  0.45593999997E+02  0.45594000000E+02  0.51100000000E-03 0. -1.
         11   -1    0    0    0    0 -0.00000000000E+00 -0.00000000000E+00 -0.45593999997E+02  0.45594000000E+02  0.51100000000E-03 0.  1.
    9900012    2    1    2    0    0 -0.37261469033E+02 -0.17108017028E+02  0.14231020094E+02  0.47787271273E+02  0.20000001041E+02 0.  0.
        -12    1    1    2    0    0  0.37261469033E+02  0.17108017028E+02 -0.14231020094E+02  0.43400728727E+02  0.00000000000E+00 0.  1.
         11    1    3    3    0    0 -0.22760400221E+02 -0.11758378794E+02 -0.37293555657E+00  0.25620975221E+02  0.51100000000E-03 0. -1.
        -11    1    3    3    0    0 -0.34429930828E+01  0.13859812883E+01  0.28576751717E+01  0.46841704866E+01  0.51100000000E-03 0.  1.
         12    1    3    3    0    0 -0.11058075729E+02 -0.67356195231E+01  0.11746280479E+02  0.17482125565E+02  0.00000000000E+00 0. -1.
</event>
<event>
 7    1  0.2110035E-010  0.4778727E+02  0.7816164E-02  0.1312668E+00
        -11   -1    0    0    0    0  0.00000000000E+00  0.00000000000E+00  0.45593999997E+02  0.45594000000E+02  0.51100000000E-03 0.  1.
         11   -1    0    0    0    0 -0.00000000000E+00 -0.00000000000E+00 -0.45593999997E+02  0.45594000000E+02  0.51100000000E-03 0. -1.
    9900012    2    1    2    0    0  0.55848934961E+01 -0.18802119579E+02 -0.38715791819E+02  0.47787271064E+02  0.20000000090E+02 0.  0.
        -12    1    1    2    0    0 -0.55848934961E+01  0.18802119579E+02  0.38715791819E+02  0.43400728936E+02  0.00000000000E+00 0.  1.
         11    1    3    3    0    0  0.10968356146E+02 -0.77842885642E+01 -0.11249749982E+02  0.17534447808E+02  0.51100000000E-03 0. -1.
        -11    1    3    3    0    0 -0.21945852198E+01 -0.17952720332E+01 -0.47904361242E+01  0.55666403226E+01  0.51100000000E-03 0.  1.
         12    1    3    3    0    0 -0.31888774300E+01 -0.92225589818E+01 -0.22675605712E+02  0.24686182934E+02  0.00000000000E+00 0. -1.
</event>
<event>
 7    1  0.2110035E-010  0.4778727E+02  0.7816164E-02  0.1312668E+00
        -11   -1    0    0    0    0  0.00000000000E+00  0.00000000000E+00  0.45593999997E+02  0.45594000000E+02  0.51100000000E-03 0.  1.
         11   -1    0    0    0    0 -0.00000000000E+00 -0.00000000000E+00 -0.45593999997E+02  0.45594000000E+02  0.51100000000E-03 0. -1.
    9900012    2    1    2    0    0 -0.43264043839E+02 -0.15322366257E+01  0.30818503859E+01  0.47787273736E+02  0.20000012273E+02 0.  0.
        -12    1    1    2    0    0  0.43264043839E+02  0.15322366257E+01 -0.30818503859E+01  0.43400726264E+02  0.00000000000E+00 0.  1.
         11    1    3    3    0    0 -0.12234604727E+02 -0.10943808967E+01  0.40916665406E+01  0.12947005743E+02  0.51100000000E-03 0. -1.
        -11    1    3    3    0    0  0.11221055968E+01  0.11777013596E+01 -0.20675909896E+01  0.26307858567E+01  0.51100000000E-03 0.  1.
         12    1    3    3    0    0 -0.32151544709E+02 -0.16155570886E+01  0.10577748349E+01  0.32209482136E+02  0.00000000000E+00 0. -1.
</event>
<event>
 7    1  0.2110035E-010  0.4778727E+02  0.7816164E-02  0.1312668E+00
        -11   -1    0    0    0    0  0.00000000000E+00  0.00000000000E+00  0.45593999997E+02  0.45594000000E+02  0.51100000000E-03 0.  1.
         11   -1    0    0    0    0 -0.00000000000E+00 -0.00000000000E+00 -0.45593999997E+02  0.45594000000E+02  0.51100000000E-03 0. -1.
    9900012    2    1    2    0    0  0.10036826714E+02  0.41615765972E+02 -0.71423739543E+01  0.47787269895E+02  0.19999994761E+02 0.  0.
        -12    1    1    2    0    0 -0.10036826714E+02 -0.41615765972E+02  0.71423739543E+01  0.43400730105E+02  0.00000000000E+00 0.  1.
         11    1    3    3    0    0  0.82402294725E+01  0.27357706529E+02  0.27474393856E+01  0.28703552249E+02  0.51100000000E-03 0. -1.
        -11    1    3    3    0    0 -0.14202290568E+01  0.51384936699E+01 -0.11301939828E+00  0.53323485834E+01  0.51100000000E-03 0.  1.
        -12    1    3    3    0    0  0.32168262980E+01  0.91195657735E+01 -0.97767939417E+01  0.13751369063E+02  0.00000000000E+00 0.  1.
</event>
<event>
 7    1  0.2110035E-010  0.4778727E+02  0.7816164E-02  0.1312668E+00
        -11   -1    0    0    0    0  0.00000000000E+00  0.00000000000E+00  0.45593999997E+02  0.45594000000E+02  0.51100000000E-03 0.  1.
         11   -1    0    0    0    0 -0.00000000000E+00 -0.00000000000E+00 -0.45593999997E+02  0.45594000000E+02  0.51100000000E-03 0. -1.
    9900012    2    1    2    0    0 -0.29138750769E+02  0.11081332708E+02 -0.30195368417E+02  0.47787274144E+02  0.20000014134E+02 0.  0.
        -12    1    1    2    0    0  0.29138750769E+02 -0.11081332708E+02  0.30195368417E+02  0.43400725856E+02  0.00000000000E+00 0.  1.
         11    1    3    3    0    0 -0.14901183243E+02  0.13583220633E+02 -0.15119793134E+02  0.25202327065E+02  0.51100000000E-03 0.  1.
        -11    1    3    3    0    0 -0.13200552588E+02  0.38949276157E+00 -0.96719421177E+01  0.16369262592E+02  0.51100000000E-03 0. -1.
        -12    1    3    3    0    0 -0.10370149382E+01 -0.28913806866E+01 -0.54036331657E+01  0.62156844874E+01  0.00000000000E+00 0.  1.
</event>
<event>
 7    1  0.2110035E-010  0.4778727E+02  0.7816164E-02  0.1312668E+00
        -11   -1    0    0    0    0  0.00000000000E+00  0.00000000000E+00  0.45593999997E+02  0.45594000000E+02  0.51100000000E-03 0.  1.
         11   -1    0    0    0    0 -0.00000000000E+00 -0.00000000000E+00 -0.45593999997E+02  0.45594000000E+02  0.51100000000E-03 0. -1.
    9900012    2    1    2    0    0  0.60765645933E+01 -0.42124960496E+02 -0.84962686942E+01  0.47787268258E+02  0.19999987293E+02 0.  0.
        -12    1    1    2    0    0 -0.60765645933E+01  0.42124960496E+02  0.84962686942E+01  0.43400731742E+02  0.00000000000E+00 0.  1.
         11    1    3    3    0    0  0.71678116618E+01 -0.12116721519E+02 -0.30549021902E+01  0.14405724281E+02  0.51100000000E-03 0. -1.
        -11    1    3    3    0    0  0.50371809926E+01 -0.10377419986E+02 -0.55841214523E+01  0.12815867141E+02  0.51100000000E-03 0.  1.
        -12    1    3    3    0    0 -0.61284280610E+01 -0.19630818991E+02  0.14275494839E+00  0.20565676836E+02  0.00000000000E+00 0.  1.
</event>
<event>
 7    1  0.2110035E-010  0.4778730E+02  0.7816164E-02  0.1312668E+00
        -11   -1    0    0    0    0  0.00000000000E+00  0.00000000000E+00  0.45593999997E+02  0.45594000000E+02  0.51100000000E-03 0.  1.
         11   -1    0    0    0    0 -0.00000000000E+00 -0.00000000000E+00 -0.45593999997E+02  0.45594000000E+02  0.51100000000E-03 0. -1.
    9900012    2    1    2    0    0 -0.14745002481E+02 -0.28109132042E+02 -0.29598683694E+02  0.47787303246E+02  0.20000146820E+02 0.  0.
        -12    1    1    2    0    0  0.14745002481E+02  0.28109132042E+02  0.29598683694E+02  0.43400696754E+02  0.00000000000E+00 0.  1.
         11    1    3    3    0    0 -0.61046922018E+01 -0.40104327196E+01 -0.10992374453E+02  0.13197845804E+02  0.51100000000E-03 0. -1.
        -11    1    3    3    0    0 -0.70355600214E+01 -0.11934415852E+02 -0.20842377968E+01  0.14009762097E+02  0.51100000000E-03 0.  1.
         12    1    3    3    0    0 -0.16047502584E+01 -0.12164283470E+02 -0.16522071443E+02  0.20579695345E+02  0.00000000000E+00 0. -1.
</event>
<event>
 7    1  0.2110035E-010  0.4778727E+02  0.7816164E-02  0.1312668E+00
        -11   -1    0    0    0    0  0.00000000000E+00  0.00000000000E+00  0.45593999997E+02  0.45594000000E+02  0.51100000000E-03 0.  1.
         11   -1    0    0    0    0 -0.00000000000E+00 -0.00000000000E+00 -0.45593999997E+02  0.45594000000E+02  0.51100000000E-03 0. -1.
    9900012    2    1    2    0    0 -0.76486791293E+01  0.42662134526E+02  0.22502441521E+01  0.47787267132E+02  0.19999982160E+02 0.  0.
        -12    1    1    2    0    0  0.76486791293E+01 -0.42662134526E+02 -0.22502441521E+01  0.43400732868E+02  0.00000000000E+00 0.  1.
         11    1    3    3    0    0  0.31427567541E+01  0.20735779576E+02  0.79710086067E+01  0.22436275384E+02  0.51100000000E-03 0. -1.
        -11    1    3    3    0    0 -0.50910492434E+01  0.81426313968E+01 -0.76621083720E+00  0.96337068552E+01  0.51100000000E-03 0.  1.
         12    1    3    3    0    0 -0.57003866400E+01  0.13783723554E+02 -0.49545536174E+01  0.15717284893E+02  0.00000000000E+00 0. -1.
</event>
<event>
 7    1  0.2110035E-010  0.4778726E+02  0.7816164E-02  0.1312668E+00
        -11   -1    0    0    0    0  0.00000000000E+00  0.00000000000E+00  0.45593999997E+02  0.45594000000E+02  0.51100000000E-03 0.  1.
         11   -1    0    0    0    0 -0.00000000000E+00 -0.00000000000E+00 -0.45593999997E+02  0.45594000000E+02  0.51100000000E-03 0. -1.
    9900012    2    1    2    0    0  0.19747560653E+02  0.16672458762E+02 -0.34866706819E+02  0.47787259484E+02  0.19999947293E+02 0.  0.
        -12    1    1    2    0    0 -0.19747560653E+02 -0.16672458762E+02  0.34866706819E+02  0.43400740516E+02  0.00000000000E+00 0.  1.
         11    1    3    3    0    0  0.13200254234E+02 -0.11538021515E+01 -0.12851708942E+02  0.18459263101E+02  0.51100000000E-03 0. -1.
        -11    1    3    3    0    0  0.33242913834E+01  0.65097715853E+01 -0.11021020393E+02  0.13224633456E+02  0.51100000000E-03 0.  1.
         12    1    3    3    0    0  0.32230150354E+01  0.11316489329E+02 -0.10993977484E+02  0.16103362927E+02  0.00000000000E+00 0. -1.
</event>
<event>
 7    1  0.2110035E-010  0.4778727E+02  0.7816164E-02  0.1312668E+00
        -11   -1    0    0    0    0  0.00000000000E+00  0.00000000000E+00  0.45593999997E+02  0.45594000000E+02  0.51100000000E-03 0.  1.
         11   -1    0    0    0    0 -0.00000000000E+00 -0.00000000000E+00 -0.45593999997E+02  0.45594000000E+02  0.51100000000E-03 0. -1.
    9900012    2    1    2    0    0 -0.37102558722E+02  0.18285094104E+02  0.13140734814E+02  0.47787269113E+02  0.19999991193E+02 0.  0.
        -12    1    1    2    0    0  0.37102558722E+02 -0.18285094104E+02 -0.13140734814E+02  0.43400730887E+02  0.00000000000E+00 0.  1.
         11    1    3    3    0    0 -0.19135124314E+02  0.10013142165E+02 -0.25829505029E+01  0.21750577742E+02  0.51100000000E-03 0. -1.
        -11    1    3    3    0    0 -0.11267943470E+01  0.33787541918E+00  0.36825153286E+01  0.38658433369E+01  0.51100000000E-03 0.  1.
         12    1    3    3    0    0 -0.16840640061E+02  0.79340765194E+01  0.12041169989E+02  0.22170848034E+02  0.00000000000E+00 0. -1.
</event>
<event>
 7    1  0.2110035E-010  0.4778727E+02  0.7816164E-02  0.1312668E+00
        -11   -1    0    0    0    0  0.00000000000E+00  0.00000000000E+00  0.45593999997E+02  0.45594000000E+02  0.51100000000E-03 0. -1.
         11   -1    0    0    0    0 -0.00000000000E+00 -0.00000000000E+00 -0.45593999997E+02  0.45594000000E+02  0.51100000000E-03 0.  1.
    9900012    2    1    2    0    0 -0.21007430695E+02 -0.30799802382E+02  0.22218985165E+02  0.47787271056E+02  0.20000000052E+02 0.  0.
        -12    1    1    2    0    0  0.21007430695E+02  0.30799802382E+02 -0.22218985165E+02  0.43400728944E+02  0.00000000000E+00 0.  1.
         11    1    3    3    0    0  0.13561113355E+01  0.97690106861E+00  0.20018212115E+01  0.26078079063E+01  0.51100000000E-03 0. -1.
        -11    1    3    3    0    0 -0.82065386224E+01 -0.10800011963E+02  0.13857136541E+01  0.13634798757E+02  0.51100000000E-03 0.  1.
         12    1    3    3    0    0 -0.14157003408E+02 -0.20976691487E+02  0.18831450299E+02  0.31544664392E+02  0.00000000000E+00 0. -1.
</event>
<event>
 7    1  0.2110035E-010  0.4778727E+02  0.7816164E-02  0.1312668E+00
        -11   -1    0    0    0    0  0.00000000000E+00  0.00000000000E+00  0.45593999997E+02  0.45594000000E+02  0.51100000000E-03 0.  1.
         11   -1    0    0    0    0 -0.00000000000E+00 -0.00000000000E+00 -0.45593999997E+02  0.45594000000E+02  0.51100000000E-03 0. -1.
    9900012    2    1    2    0    0  0.49647009539E+01  0.15198763897E+02 -0.40348144045E+02  0.47787269506E+02  0.19999992986E+02 0.  0.
        -12    1    1    2    0    0 -0.49647009539E+01 -0.15198763897E+02  0.40348144045E+02  0.43400730494E+02  0.00000000000E+00 0.  1.
         11    1    3    3    0    0  0.23689309506E+00  0.68112837534E+01 -0.22423300684E+02  0.23436171158E+02  0.51100000000E-03 0. -1.
        -11    1    3    3    0    0  0.93226613035E+01  0.43669258327E+01 -0.12404268898E+02  0.16119799694E+02  0.51100000000E-03 0.  1.
         12    1    3    3    0    0 -0.45948534447E+01  0.40205543106E+01 -0.55205744625E+01  0.82312986544E+01  0.00000000000E+00 0. -1.
</event>
<event>
 7    1  0.2110035E-010  0.4778728E+02  0.7816164E-02  0.1312668E+00
        -11   -1    0    0    0    0  0.00000000000E+00  0.00000000000E+00  0.45593999997E+02  0.45594000000E+02  0.51100000000E-03 0.  1.
         11   -1    0    0    0    0 -0.00000000000E+00 -0.00000000000E+00 -0.45593999997E+02  0.45594000000E+02  0.51100000000E-03 0. -1.
    9900012    2    1    2    0    0 -0.24477441715E+02  0.10920080897E+02 -0.34135455300E+02  0.47787278482E+02  0.20000033913E+02 0.  0.
        -12    1    1    2    0    0  0.24477441715E+02 -0.10920080897E+02  0.34135455300E+02  0.43400721518E+02  0.00000000000E+00 0.  1.
         11    1    3    3    0    0 -0.21150900281E+02  0.95416798657E+01 -0.27217267330E+02  0.35765680177E+02  0.51100000000E-03 0. -1.
        -11    1    3    3    0    0 -0.65488707473E+00  0.47552484495E+01 -0.58833349063E+01  0.75930820342E+01  0.51100000000E-03 0.  1.
        -12    1    3    3    0    0 -0.26716543587E+01 -0.33768474182E+01 -0.10348530637E+01  0.44285162709E+01  0.00000000000E+00 0.  1.
</event>
<event>
 7    1  0.2110035E-010  0.4778727E+02  0.7816164E-02  0.1312668E+00
        -11   -1    0    0    0    0  0.00000000000E+00  0.00000000000E+00  0.45593999997E+02  0.45594000000E+02  0.51100000000E-03 0.  1.
         11   -1    0    0    0    0 -0.00000000000E+00 -0.00000000000E+00 -0.45593999997E+02  0.45594000000E+02  0.51100000000E-03 0. -1.
    9900012    2    1    2    0    0  0.18435169144E+02  0.60669900747E+00 -0.39286129552E+02  0.47787268207E+02  0.19999987061E+02 0.  0.
        -12    1    1    2    0    0 -0.18435169144E+02 -0.60669900747E+00  0.39286129552E+02  0.43400731793E+02  0.00000000000E+00 0.  1.
         11    1    3    3    0    0  0.11904904041E+02 -0.40277397064E+01 -0.18312674746E+02  0.22210436376E+02  0.51100000000E-03 0. -1.
        -11    1    3    3    0    0  0.84635182978E+01  0.73279107845E+01 -0.17504663958E+02  0.20778418587E+02  0.51100000000E-03 0.  1.
        -12    1    3    3    0    0 -0.19332531955E+01 -0.26934720707E+01 -0.34687908482E+01  0.47984132442E+01  0.00000000000E+00 0.  1.
</event>
<event>
 7    1  0.2110035E-010  0.4778727E+02  0.7816164E-02  0.1312668E+00
        -11   -1    0    0    0    0  0.00000000000E+00  0.00000000000E+00  0.45593999997E+02  0.45594000000E+02  0.51100000000E-03 0.  1.
         11   -1    0    0    0    0 -0.00000000000E+00 -0.00000000000E+00 -0.45593999997E+02  0.45594000000E+02  0.51100000000E-03 0. -1.
    9900012    2    1    2    0    0 -0.10305130600E+02 -0.30840870372E+02 -0.28744887484E+02  0.47787267766E+02  0.19999985051E+02 0.  0.
        -12    1    1    2    0    0  0.10305130600E+02  0.30840870372E+02  0.28744887484E+02  0.43400732234E+02  0.00000000000E+00 0.  1.
         11    1    3    3    0    0 -0.52816227321E+01 -0.86356797604E+01  0.42947881737E-01  0.10122862658E+02  0.51100000000E-03 0.  1.
        -11    1    3    3    0    0 -0.65225100483E+01 -0.97743656798E+01 -0.14610518698E+02  0.18749629827E+02  0.51100000000E-03 0. -1.
        -12    1    3    3    0    0  0.14990021798E+01 -0.12430824932E+02 -0.14177316668E+02  0.18914775281E+02  0.00000000000E+00 0.  1.
</event>
<event>
 7    1  0.2110035E-010  0.4778727E+02  0.7816164E-02  0.1312668E+00
        -11   -1    0    0    0    0  0.00000000000E+00  0.00000000000E+00  0.45593999997E+02  0.45594000000E+02  0.51100000000E-03 0. -1.
         11   -1    0    0    0    0 -0.00000000000E+00 -0.00000000000E+00 -0.45593999997E+02  0.45594000000E+02  0.51100000000E-03 0.  1.
    9900012    2    1    2    0    0  0.17933545107E+02  0.32952077940E+02  0.21821360579E+02  0.47787271226E+02  0.20000000826E+02 0.  0.
        -12    1    1    2    0    0 -0.17933545107E+02 -0.32952077940E+02 -0.21821360579E+02  0.43400728774E+02  0.00000000000E+00 0.  1.
         11    1    3    3    0    0  0.14861102805E+02  0.24652866549E+02  0.17597011224E+02  0.33738272183E+02  0.51100000000E-03 0. -1.
        -11    1    3    3    0    0  0.55044912020E+01  0.96512979485E+00  0.10038581378E+01  0.56779072144E+01  0.51100000000E-03 0.  1.
         12    1    3    3    0    0 -0.24320488999E+01  0.73340815962E+01  0.32204912168E+01  0.83710918277E+01  0.00000000000E+00 0. -1.
</event>
<event>
 7    1  0.2110035E-010  0.4778727E+02  0.7816164E-02  0.1312668E+00
        -11   -1    0    0    0    0  0.00000000000E+00  0.00000000000E+00  0.45593999997E+02  0.45594000000E+02  0.51100000000E-03 0.  1.
         11   -1    0    0    0    0 -0.00000000000E+00 -0.00000000000E+00 -0.45593999997E+02  0.45594000000E+02  0.51100000000E-03 0. -1.
    9900012    2    1    2    0    0 -0.65091321117E+01 -0.53934986446E+01 -0.42569526261E+02  0.47787271958E+02  0.20000004164E+02 0.  0.
        -12    1    1    2    0    0  0.65091321117E+01  0.53934986446E+01  0.42569526261E+02  0.43400728042E+02  0.00000000000E+00 0.  1.
         11    1    3    3    0    0  0.14664446139E+01 -0.20156514715E+01 -0.30087521457E+02  0.30190598841E+02  0.51100000000E-03 0. -1.
        -11    1    3    3    0    0 -0.49796023802E+01  0.18399223095E+01 -0.94973890273E+01  0.10880356270E+02  0.51100000000E-03 0.  1.
        -12    1    3    3    0    0 -0.29959743455E+01 -0.52177694826E+01 -0.29846157768E+01  0.67163168469E+01  0.00000000000E+00 0.  1.
</event>
<event>
 7    1  0.2110035E-010  0.4778726E+02  0.7816164E-02  0.1312668E+00
        -11   -1    0    0    0    0  0.00000000000E+00  0.00000000000E+00  0.45593999997E+02  0.45594000000E+02  0.51100000000E-03 0. -1.
         11   -1    0    0    0    0 -0.00000000000E+00 -0.00000000000E+00 -0.45593999997E+02  0.45594000000E+02  0.51100000000E-03 0.  1.
    9900012    2    1    2    0    0 -0.31086804489E+02  0.27045424167E+02  0.13630093736E+02  0.47787264557E+02  0.19999970422E+02 0.  0.
        -12    1    1    2    0    0  0.31086804489E+02 -0.27045424167E+02 -0.13630093736E+02  0.43400735443E+02  0.00000000000E+00 0.  1.
         11    1    3    3    0    0 -0.14905840064E+02  0.15231027729E+02  0.11506420072E+02  0.24219124196E+02  0.51100000000E-03 0. -1.
        -11    1    3    3    0    0 -0.17487641481E+02  0.10519897901E+02 -0.44020410200E+00  0.20412732211E+02  0.51100000000E-03 0.  1.
         12    1    3    3    0    0  0.13066770558E+01  0.12944985373E+01  0.25638777661E+01  0.31554081497E+01  0.00000000000E+00 0. -1.
</event>
<event>
 7    1  0.2110035E-010  0.4778728E+02  0.7816164E-02  0.1312668E+00
        -11   -1    0    0    0    0  0.00000000000E+00  0.00000000000E+00  0.45593999997E+02  0.45594000000E+02  0.51100000000E-03 0. -1.
         11   -1    0    0    0    0 -0.00000000000E+00 -0.00000000000E+00 -0.45593999997E+02  0.45594000000E+02  0.51100000000E-03 0.  1.
    9900012    2    1    2    0    0 -0.25589586189E+02  0.29497042976E+02 -0.18939915798E+02  0.47787275627E+02  0.20000020893E+02 0.  0.
        -12    1    1    2    0    0  0.25589586189E+02 -0.29497042976E+02  0.18939915798E+02  0.43400724373E+02  0.00000000000E+00 0.  1.
         11    1    3    3    0    0 -0.11145166530E+02  0.40634387919E+01 -0.57971319371E+01  0.13203522665E+02  0.51100000000E-03 0.  1.
        -11    1    3    3    0    0 -0.11406710655E+02  0.18023120857E+02 -0.28149146046E+01  0.21514406287E+02  0.51100000000E-03 0. -1.
         12    1    3    3    0    0 -0.30377090043E+01  0.74104833271E+01 -0.10327869256E+02  0.13069346675E+02  0.00000000000E+00 0. -1.
</event>
<event>
 7    1  0.2110035E-010  0.4778727E+02  0.7816164E-02  0.1312668E+00
        -11   -1    0    0    0    0  0.00000000000E+00  0.00000000000E+00  0.45593999997E+02  0.45594000000E+02  0.51100000000E-03 0.  1.
         11   -1    0    0    0    0 -0.00000000000E+00 -0.00000000000E+00 -0.45593999997E+02  0.45594000000E+02  0.51100000000E-03 0. -1.
    9900012    2    1    2    0    0  0.15353011715E+02 -0.25307077383E+02 -0.31740512337E+02  0.47787271230E+02  0.20000000844E+02 0.  0.
        -12    1    1    2    0    0 -0.15353011715E+02  0.25307077383E+02  0.31740512337E+02  0.43400728770E+02  0.00000000000E+00 0.  1.
         11    1    3    3    0    0  0.11483903947E+02 -0.11253991348E+02 -0.10119965778E+02  0.18998580967E+02  0.51100000000E-03 0. -1.
        -11    1    3    3    0    0 -0.24150972557E+01  0.86935094758E+00 -0.15398866171E+01  0.29932786171E+01  0.51100000000E-03 0.  1.
         12    1    3    3    0    0  0.62842050230E+01 -0.14922436983E+02 -0.20080659942E+02  0.25795411646E+02  0.00000000000E+00 0. -1.
</event>
<event>
 7    1  0.2110035E-010  0.4778727E+02  0.7816164E-02  0.1312668E+00
        -11   -1    0    0    0    0  0.00000000000E+00  0.00000000000E+00  0.45593999997E+02  0.45594000000E+02  0.51100000000E-03 0.  1.
         11   -1    0    0    0    0 -0.00000000000E+00 -0.00000000000E+00 -0.45593999997E+02  0.45594000000E+02  0.51100000000E-03 0. -1.
    9900012    2    1    2    0    0  0.38704062049E+01 -0.30629684213E+01 -0.43119151214E+02  0.47787273956E+02  0.20000013274E+02 0.  0.
        -12    1    1    2    0    0 -0.38704062049E+01  0.30629684213E+01  0.43119151214E+02  0.43400726044E+02  0.00000000000E+00 0.  1.
         11    1    3    3    0    0 -0.25834137795E+01  0.32445492925E+01 -0.16764569645E+02  0.17269971699E+02  0.51100000000E-03 0. -1.
        -11    1    3    3    0    0  0.53676692628E+00 -0.87139707269E+01 -0.17952437406E+02  0.19962750653E+02  0.51100000000E-03 0.  1.
         12    1    3    3    0    0  0.59170530582E+01  0.24064530130E+01 -0.84021441632E+01  0.10554551603E+02  0.00000000000E+00 0. -1.
</event>
<event>
 7    1  0.2110035E-010  0.4778728E+02  0.7816164E-02  0.1312668E+00
        -11   -1    0    0    0    0  0.00000000000E+00  0.00000000000E+00  0.45593999997E+02  0.45594000000E+02  0.51100000000E-03 0.  1.
         11   -1    0    0    0    0 -0.00000000000E+00 -0.00000000000E+00 -0.45593999997E+02  0.45594000000E+02  0.51100000000E-03 0. -1.
    9900012    2    1    2    0    0  0.36929475354E+02 -0.15949184237E+02 -0.16292946718E+02  0.47787277189E+02  0.20000028016E+02 0.  0.
        -12    1    1    2    0    0 -0.36929475354E+02  0.15949184237E+02  0.16292946718E+02  0.43400722811E+02  0.00000000000E+00 0.  1.
         11    1    3    3    0    0  0.31319016657E+02 -0.54929651549E+01 -0.13472291383E+02  0.34533405652E+02  0.51100000000E-03 0. -1.
        -11    1    3    3    0    0 -0.64128852741E+00 -0.33029617925E+01 -0.77321213831E-01  0.33655291425E+01  0.51100000000E-03 0.  1.
        -12    1    3    3    0    0  0.62517472246E+01 -0.71532572892E+01 -0.27433341203E+01  0.98883423940E+01  0.00000000000E+00 0.  1.
</event>
<event>
 7    1  0.2110035E-010  0.4778725E+02  0.7816164E-02  0.1312668E+00
        -11   -1    0    0    0    0  0.00000000000E+00  0.00000000000E+00  0.45593999997E+02  0.45594000000E+02  0.51100000000E-03 0. -1.
         11   -1    0    0    0    0 -0.00000000000E+00 -0.00000000000E+00 -0.45593999997E+02  0.45594000000E+02  0.51100000000E-03 0.  1.
    9900012    2    1    2    0    0  0.13010728645E+02  0.30346201492E+02  0.28168317222E+02  0.47787250007E+02  0.19999904081E+02 0.  0.
        -12    1    1    2    0    0 -0.13010728645E+02 -0.30346201492E+02 -0.28168317222E+02  0.43400749993E+02  0.00000000000E+00 0.  1.
         11    1    3    3    0    0  0.58648565532E+01  0.12327636081E+02  0.18419090862E+02  0.22926623436E+02  0.51100000000E-03 0. -1.
        -11    1    3    3    0    0 -0.24612174163E+01  0.14286934261E+01 -0.83014265941E+00  0.29644380870E+01  0.51100000000E-03 0.  1.
         12    1    3    3    0    0  0.96070895078E+01  0.16589871985E+02  0.10579369020E+02  0.21896188484E+02  0.00000000000E+00 0. -1.
</event>
<event>
 7    1  0.2110035E-010  0.4778727E+02  0.7816164E-02  0.1312668E+00
        -11   -1    0    0    0    0  0.00000000000E+00  0.00000000000E+00  0.45593999997E+02  0.45594000000E+02  0.51100000000E-03 0.  1.
         11   -1    0    0    0    0 -0.00000000000E+00 -0.00000000000E+00 -0.45593999997E+02  0.45594000000E+02  0.51100000000E-03 0. -1.
    9900012    2    1    2    0    0 -0.30852116395E+01  0.23537210451E+02 -0.36333240780E+02  0.47787271985E+02  0.20000004289E+02 0.  0.
        -12    1    1    2    0    0  0.30852116395E+01 -0.23537210451E+02  0.36333240780E+02  0.43400728015E+02  0.00000000000E+00 0.  1.
         11    1    3    3    0    0 -0.17512083324E+01 -0.10794577017E+01 -0.35254143917E+01  0.40817283652E+01  0.51100000000E-03 0. -1.
        -11    1    3    3    0    0  0.26925472884E+01  0.16389887911E+01 -0.12128725727E+02  0.12531643275E+02  0.51100000000E-03 0.  1.
         12    1    3    3    0    0 -0.40265505955E+01  0.22977679362E+02 -0.20679100661E+02  0.31173900345E+02  0.00000000000E+00 0. -1.
</event>
<event>
 7    1  0.2110035E-010  0.4778727E+02  0.7816164E-02  0.1312668E+00
        -11   -1    0    0    0    0  0.00000000000E+00  0.00000000000E+00  0.45593999997E+02  0.45594000000E+02  0.51100000000E-03 0.  1.
         11   -1    0    0    0    0 -0.00000000000E+00 -0.00000000000E+00 -0.45593999997E+02  0.45594000000E+02  0.51100000000E-03 0. -1.
    9900012    2    1    2    0    0 -0.36346313134E+01  0.42846844766E+02  0.58788332801E+01  0.47787270375E+02  0.19999996949E+02 0.  0.
        -12    1    1    2    0    0  0.36346313134E+01 -0.42846844766E+02 -0.58788332801E+01  0.43400729625E+02  0.00000000000E+00 0.  1.
         11    1    3    3    0    0 -0.61534423032E+01  0.10099071730E+02  0.22069895246E+01  0.12030249582E+02  0.51100000000E-03 0. -1.
        -11    1    3    3    0    0  0.24121117808E+01  0.31013488334E+02  0.71058652804E+01  0.31908432483E+02  0.51100000000E-03 0.  1.
         12    1    3    3    0    0  0.10669920899E+00  0.17342847030E+01 -0.34340215248E+01  0.38485883107E+01  0.00000000000E+00 0. -1.
</event>
<event>
 7    1  0.2110035E-010  0.4778727E+02  0.7816164E-02  0.1312668E+00
        -11   -1    0    0    0    0  0.00000000000E+00  0.00000000000E+00  0.45593999997E+02  0.45594000000E+02  0.51100000000E-03 0.  1.
         11   -1    0    0    0    0 -0.00000000000E+00 -0.00000000000E+00 -0.45593999997E+02  0.45594000000E+02  0.51100000000E-03 0. -1.
    9900012    2    1    2    0    0  0.31328718371E+02 -0.16011242486E+01 -0.29992847746E+02  0.47787272937E+02  0.20000008630E+02 0.  0.
        -12    1    1    2    0    0 -0.31328718371E+02  0.16011242486E+01  0.29992847746E+02  0.43400727063E+02  0.00000000000E+00 0.  1.
         11    1    3    3    0    0  0.28355905173E+01  0.62753732037E+01 -0.22621954525E+01  0.72483384961E+01  0.51100000000E-03 0. -1.
        -11    1    3    3    0    0  0.99908555503E+01 -0.24591748215E+01 -0.98977506649E+01  0.14276911568E+02  0.51100000000E-03 0.  1.
         12    1    3    3    0    0  0.18502272304E+02 -0.54173226309E+01 -0.17832901629E+02  0.26262022873E+02  0.00000000000E+00 0. -1.
</event>
<event>
 7    1  0.2110035E-010  0.4778727E+02  0.7816164E-02  0.1312668E+00
        -11   -1    0    0    0    0  0.00000000000E+00  0.00000000000E+00  0.45593999997E+02  0.45594000000E+02  0.51100000000E-03 0.  1.
         11   -1    0    0    0    0 -0.00000000000E+00 -0.00000000000E+00 -0.45593999997E+02  0.45594000000E+02  0.51100000000E-03 0. -1.
    9900012    2    1    2    0    0 -0.11896072472E+02 -0.16415363397E+01 -0.41706264595E+02  0.47787266271E+02  0.19999978234E+02 0.  0.
        -12    1    1    2    0    0  0.11896072472E+02  0.16415363397E+01  0.41706264595E+02  0.43400733729E+02  0.00000000000E+00 0.  1.
         11    1    3    3    0    0 -0.41922722404E+01  0.28604444512E+01 -0.13593540560E+02  0.14510052868E+02  0.51100000000E-03 0. -1.
        -11    1    3    3    0    0 -0.41588257075E+01 -0.78710795403E+01 -0.26761623370E+02  0.28203443230E+02  0.51100000000E-03 0.  1.
        -12    1    3    3    0    0 -0.35449745241E+01  0.33690987493E+01 -0.13511006645E+01  0.50737701727E+01  0.00000000000E+00 0.  1.
</event>
<event>
 7    1  0.2110035E-010  0.4778726E+02  0.7816164E-02  0.1312668E+00
        -11   -1    0    0    0    0  0.00000000000E+00  0.00000000000E+00  0.45593999997E+02  0.45594000000E+02  0.51100000000E-03 0.  1.
         11   -1    0    0    0    0 -0.00000000000E+00 -0.00000000000E+00 -0.45593999997E+02  0.45594000000E+02  0.51100000000E-03 0. -1.
    9900012    2    1    2    0    0  0.34608146459E+02  0.20579562889E+02 -0.16198200926E+02  0.47787263563E+02  0.19999965888E+02 0.  0.
        -12    1    1    2    0    0 -0.34608146459E+02 -0.20579562889E+02  0.16198200926E+02  0.43400736437E+02  0.00000000000E+00 0.  1.
         11    1    3    3    0    0  0.13134913358E+02  0.31488537255E+00 -0.52559068914E+01  0.14150959657E+02  0.51100000000E-03 0. -1.
        -11    1    3    3    0    0 -0.66240888181E+00  0.45201647523E+01 -0.78445851034E+00  0.46353047721E+01  0.51100000000E-03 0.  1.
        -12    1    3    3    0    0  0.22135641983E+02  0.15744512764E+02 -0.10157835525E+02  0.29000999133E+02  0.00000000000E+00 0.  1.
</event>
<event>
 7    1  0.2253213E-010  0.4778727E+02  0.7816164E-02  0.1312668E+00
        -11   -1    0    0    0    0  0.00000000000E+00  0.00000000000E+00  0.45593999997E+02  0.45594000000E+02  0.51100000000E-03 0.  1.
         11   -1    0    0    0    0 -0.00000000000E+00 -0.00000000000E+00 -0.45593999997E+02  0.45594000000E+02  0.51100000000E-03 0. -1.
    9900012    2    1    2    0    0 -0.15945697903E+02 -0.27677357093E+02 -0.29382341108E+02  0.47787270210E+02  0.19999996197E+02 0.  0.
        -12    1    1    2    0    0  0.15945697903E+02  0.27677357093E+02  0.29382341108E+02  0.43400729790E+02  0.00000000000E+00 0.  1.
         11    1    3    3    0    0 -0.11141659533E+02 -0.15559885567E+02 -0.92706447943E+01  0.21264794172E+02  0.51100000000E-03 0. -1.
        -11    1    3    3    0    0 -0.81541704101E+00 -0.13082084967E+02 -0.14184411495E+02  0.19313295466E+02  0.51100000000E-03 0.  1.
        -12    1    3    3    0    0 -0.39886213287E+01  0.96461344122E+00 -0.59272848188E+01  0.72091805719E+01  0.00000000000E+00 0.  1.
</event>
<event>
 7    1  0.2110035E-010  0.4778727E+02  0.7816164E-02  0.1312668E+00
        -11   -1    0    0    0    0  0.00000000000E+00  0.00000000000E+00  0.45593999997E+02  0.45594000000E+02  0.51100000000E-03 0. -1.
         11   -1    0    0    0    0 -0.00000000000E+00 -0.00000000000E+00 -0.45593999997E+02  0.45594000000E+02  0.51100000000E-03 0.  1.
    9900012    2    1    2    0    0  0.78885674693E+01 -0.42538558730E+02 -0.34445069532E+01  0.47787273005E+02  0.20000008940E+02 0.  0.
        -12    1    1    2    0    0 -0.78885674693E+01  0.42538558730E+02  0.34445069532E+01  0.43400726995E+02  0.00000000000E+00 0.  1.
         11    1    3    3    0    0  0.76393739095E+01 -0.32117172239E+02  0.17260092184E+01  0.33058310520E+02  0.51100000000E-03 0. -1.
        -11    1    3    3    0    0  0.98933121671E+00 -0.73292507579E+01  0.13096784195E+01  0.75107889568E+01  0.51100000000E-03 0.  1.
        -12    1    3    3    0    0 -0.74013765695E+00 -0.30921357326E+01 -0.64801945912E+01  0.72181735280E+01  0.00000000000E+00 0.  1.
</event>
<event>
 7    1  0.2110035E-010  0.4778727E+02  0.7816164E-02  0.1312668E+00
        -11   -1    0    0    0    0  0.00000000000E+00  0.00000000000E+00  0.45593999997E+02  0.45594000000E+02  0.51100000000E-03 0. -1.
         11   -1    0    0    0    0 -0.00000000000E+00 -0.00000000000E+00 -0.45593999997E+02  0.45594000000E+02  0.51100000000E-03 0.  1.
    9900012    2    1    2    0    0  0.15002994841E+02 -0.33776123142E+02  0.22753175135E+02  0.47787270427E+02  0.19999997186E+02 0.  0.
        -12    1    1    2    0    0 -0.15002994841E+02  0.33776123142E+02 -0.22753175135E+02  0.43400729573E+02  0.00000000000E+00 0.  1.
         11    1    3    3    0    0  0.98251682104E+01 -0.18474280542E+02  0.16899210811E+02  0.26896399354E+02  0.51100000000E-03 0. -1.
        -11    1    3    3    0    0 -0.20747651313E+01  0.84704972488E+00  0.13789515258E+01  0.26312831771E+01  0.51100000000E-03 0.  1.
         12    1    3    3    0    0  0.72525917624E+01 -0.16148892324E+02  0.44750127985E+01  0.18259587896E+02  0.00000000000E+00 0. -1.
</event>
<event>
 7    1  0.2110035E-010  0.4778727E+02  0.7816164E-02  0.1312668E+00
        -11   -1    0    0    0    0  0.00000000000E+00  0.00000000000E+00  0.45593999997E+02  0.45594000000E+02  0.51100000000E-03 0. -1.
         11   -1    0    0    0    0 -0.00000000000E+00 -0.00000000000E+00 -0.45593999997E+02  0.45594000000E+02  0.51100000000E-03 0.  1.
    9900012    2    1    2    0    0  0.79919859459E+00 -0.34691987552E+02  0.26066271885E+02  0.47787271334E+02  0.20000001322E+02 0.  0.
        -12    1    1    2    0    0 -0.79919859459E+00  0.34691987552E+02 -0.26066271885E+02  0.43400728666E+02  0.00000000000E+00 0.  1.
         11    1    3    3    0    0 -0.64401334855E+00 -0.84510211101E+00  0.52017992883E+01  0.53092058604E+01  0.51100000000E-03 0.  1.
        -11    1    3    3    0    0  0.21376576061E+01 -0.24300067395E+02  0.65498292522E+01  0.25257931802E+02  0.51100000000E-03 0. -1.
         12    1    3    3    0    0 -0.69444566294E+00 -0.95468180464E+01  0.14314643345E+02  0.17220133672E+02  0.00000000000E+00 0. -1.
</event>
<event>
 7    1  0.2110035E-010  0.4778727E+02  0.7816164E-02  0.1312668E+00
        -11   -1    0    0    0    0  0.00000000000E+00  0.00000000000E+00  0.45593999997E+02  0.45594000000E+02  0.51100000000E-03 0.  1.
         11   -1    0    0    0    0 -0.00000000000E+00 -0.00000000000E+00 -0.45593999997E+02  0.45594000000E+02  0.51100000000E-03 0. -1.
    9900012    2    1    2    0    0  0.31862560255E+02  0.13016066506E+02 -0.26438279396E+02  0.47787270159E+02  0.19999995964E+02 0.  0.
        -12    1    1    2    0    0 -0.31862560255E+02 -0.13016066506E+02  0.26438279396E+02  0.43400729841E+02  0.00000000000E+00 0.  1.
         11    1    3    3    0    0  0.24337133578E+02  0.62820053013E+01 -0.19683936190E+02  0.31925178238E+02  0.51100000000E-03 0. -1.
        -11    1    3    3    0    0  0.56559315012E+01  0.90703640671E+00  0.11734378287E+01  0.58471559573E+01  0.51100000000E-03 0.  1.
        -12    1    3    3    0    0  0.18694951761E+01  0.58270247975E+01 -0.79277810356E+01  0.10014935963E+02  0.00000000000E+00 0.  1.
</event>
<event>
 7    1  0.2110035E-010  0.4778727E+02  0.7816164E-02  0.1312668E+00
        -11   -1    0    0    0    0  0.00000000000E+00  0.00000000000E+00  0.45593999997E+02  0.45594000000E+02  0.51100000000E-03 0.  1.
         11   -1    0    0    0    0 -0.00000000000E+00 -0.00000000000E+00 -0.45593999997E+02  0.45594000000E+02  0.51100000000E-03 0. -1.
    9900012    2    1    2    0    0  0.19318897091E+02  0.35335216008E+02  0.16181031767E+02  0.47787273460E+02  0.20000011014E+02 0.  0.
        -12    1    1    2    0    0 -0.19318897091E+02 -0.35335216008E+02 -0.16181031767E+02  0.43400726540E+02  0.00000000000E+00 0.  1.
         11    1    3    3    0    0  0.90708561020E+01  0.24423014445E+02  0.12963774174E+02  0.29100232063E+02  0.51100000000E-03 0. -1.
        -11    1    3    3    0    0  0.12385425285E+02  0.93803731339E+01  0.37976449989E+01  0.15994132281E+02  0.51100000000E-03 0.  1.
        -12    1    3    3    0    0 -0.21373842964E+01  0.15318284297E+01 -0.58038740615E+00  0.26929091164E+01  0.00000000000E+00 0.  1.
</event>
<event>
 7    1  0.2110035E-010  0.4778728E+02  0.7816164E-02  0.1312668E+00
        -11   -1    0    0    0    0  0.00000000000E+00  0.00000000000E+00  0.45593999997E+02  0.45594000000E+02  0.51100000000E-03 0.  1.
         11   -1    0    0    0    0 -0.00000000000E+00 -0.00000000000E+00 -0.45593999997E+02  0.45594000000E+02  0.51100000000E-03 0. -1.
    9900012    2    1    2    0    0 -0.43011899828E+02  0.31555071392E+00 -0.57878923471E+01  0.47787276540E+02  0.20000025057E+02 0.  0.
        -12    1    1    2    0    0  0.43011899828E+02 -0.31555071392E+00  0.57878923471E+01  0.43400723460E+02  0.00000000000E+00 0.  1.
         11    1    3    3    0    0 -0.17380519261E+02 -0.24220269014E+01  0.35018393347E+01  0.17894455652E+02  0.51100000000E-03 0. -1.
        -11    1    3    3    0    0 -0.24143551007E+02 -0.11979668459E+01 -0.84101732572E+01  0.25594475854E+02  0.51100000000E-03 0.  1.
        -12    1    3    3    0    0 -0.14878295594E+01  0.39355444612E+01 -0.87955842454E+00  0.42983450334E+01  0.00000000000E+00 0.  1.
</event>
<event>
 7    1  0.2110035E-010  0.4778727E+02  0.7816164E-02  0.1312668E+00
        -11   -1    0    0    0    0  0.00000000000E+00  0.00000000000E+00  0.45593999997E+02  0.45594000000E+02  0.51100000000E-03 0.  1.
         11   -1    0    0    0    0 -0.00000000000E+00 -0.00000000000E+00 -0.45593999997E+02  0.45594000000E+02  0.51100000000E-03 0. -1.
    9900012    2    1    2    0    0  0.19108103362E+02  0.29565073171E+02 -0.25385232365E+02  0.47787272035E+02  0.20000004515E+02 0.  0.
        -12    1    1    2    0    0 -0.19108103362E+02 -0.29565073171E+02  0.25385232365E+02  0.43400727965E+02  0.00000000000E+00 0.  1.
         11    1    3    3    0    0 -0.27707154576E+01  0.26370629391E+01  0.42232101031E+00  0.38482879815E+01  0.51100000000E-03 0.  1.
        -11    1    3    3    0    0  0.78194311343E+01  0.15733898595E+02 -0.12022321002E+02  0.21289322930E+02  0.51100000000E-03 0. -1.
        -12    1    3    3    0    0  0.14059387685E+02  0.11194111636E+02 -0.13785232374E+02  0.22649661124E+02  0.00000000000E+00 0.  1.
</event>
<event>
 7    1  0.2110035E-010  0.4778728E+02  0.7816164E-02  0.1312668E+00
        -11   -1    0    0    0    0  0.00000000000E+00  0.00000000000E+00  0.45593999997E+02  0.45594000000E+02  0.51100000000E-03 0.  1.
         11   -1    0    0    0    0 -0.00000000000E+00 -0.00000000000E+00 -0.45593999997E+02  0.45594000000E+02  0.51100000000E-03 0. -1.
    9900012    2    1    2    0    0  0.81141722385E+01 -0.22898980771E+02 -0.35964137299E+02  0.47787282458E+02  0.20000052041E+02 0.  0.
        -12    1    1    2    0    0 -0.81141722385E+01  0.22898980771E+02  0.35964137299E+02  0.43400717542E+02  0.00000000000E+00 0.  1.
         11    1    3    3    0    0 -0.26021139065E+01 -0.70124992160E+01 -0.41829406818E+01  0.85698970265E+01  0.51100000000E-03 0. -1.
        -11    1    3    3    0    0 -0.28278867802E+01 -0.24012045570E+01 -0.69961278093E+01  0.79188718611E+01  0.51100000000E-03 0.  1.
        -12    1    3    3    0    0  0.13544172925E+02 -0.13485276998E+02 -0.24785068808E+02  0.31298513571E+02  0.00000000000E+00 0.  1.
</event>
<event>
 7    1  0.2110035E-010  0.4778727E+02  0.7816164E-02  0.1312668E+00
        -11   -1    0    0    0    0  0.00000000000E+00  0.00000000000E+00  0.45593999997E+02  0.45594000000E+02  0.51100000000E-03 0.  1.
         11   -1    0    0    0    0 -0.00000000000E+00 -0.00000000000E+00 -0.45593999997E+02  0.45594000000E+02  0.51100000000E-03 0. -1.
    9900012    2    1    2    0    0 -0.19734267003E+02 -0.76426200132E+01 -0.37891589821E+02  0.47787268278E+02  0.19999987387E+02 0.  0.
        -12    1    1    2    0    0  0.19734267003E+02  0.76426200132E+01  0.37891589821E+02  0.43400731722E+02  0.00000000000E+00 0.  1.
         11    1    3    3    0    0 -0.36548068320E+01  0.18895131655E+01 -0.44989899725E+01  0.60966207046E+01  0.51100000000E-03 0. -1.
        -11    1    3    3    0    0 -0.20359619419E+01  0.43693855554E+01 -0.97580961418E+01  0.10883800427E+02  0.51100000000E-03 0.  1.
         12    1    3    3    0    0 -0.14043498230E+02 -0.13901518734E+02 -0.23634503707E+02  0.30806847146E+02  0.00000000000E+00 0. -1.
</event>
<event>
 7    1  0.2110035E-010  0.4778727E+02  0.7816164E-02  0.1312668E+00
        -11   -1    0    0    0    0  0.00000000000E+00  0.00000000000E+00  0.45593999997E+02  0.45594000000E+02  0.51100000000E-03 0.  1.
         11   -1    0    0    0    0 -0.00000000000E+00 -0.00000000000E+00 -0.45593999997E+02  0.45594000000E+02  0.51100000000E-03 0. -1.
    9900012    2    1    2    0    0  0.20419012149E+02 -0.33940351984E+02 -0.17740901555E+02  0.47787272610E+02  0.20000007140E+02 0.  0.
        -12    1    1    2    0    0 -0.20419012149E+02  0.33940351984E+02  0.17740901555E+02  0.43400727390E+02  0.00000000000E+00 0.  1.
         11    1    3    3    0    0  0.66374011626E+01 -0.21273838355E+02 -0.86949698078E+01  0.23921408671E+02  0.51100000000E-03 0. -1.
        -11    1    3    3    0    0  0.34415340848E+01 -0.33217630264E+01  0.28279334974E+01  0.55565703979E+01  0.51100000000E-03 0.  1.
         12    1    3    3    0    0  0.10340076902E+02 -0.93447506023E+01 -0.11873865244E+02  0.18309293542E+02  0.00000000000E+00 0. -1.
</event>
<event>
 7    1  0.2110035E-010  0.4778727E+02  0.7816164E-02  0.1312668E+00
        -11   -1    0    0    0    0  0.00000000000E+00  0.00000000000E+00  0.45593999997E+02  0.45594000000E+02  0.51100000000E-03 0.  1.
         11   -1    0    0    0    0 -0.00000000000E+00 -0.00000000000E+00 -0.45593999997E+02  0.45594000000E+02  0.51100000000E-03 0. -1.
    9900012    2    1    2    0    0 -0.29351251269E+02 -0.14418875570E+02 -0.28534603558E+02  0.47787268163E+02  0.19999986863E+02 0.  0.
        -12    1    1    2    0    0  0.29351251269E+02  0.14418875570E+02  0.28534603558E+02  0.43400731837E+02  0.00000000000E+00 0.  1.
         11    1    3    3    0    0 -0.92677639113E+01 -0.44492885687E+01 -0.15939074811E+02  0.18966858538E+02  0.51100000000E-03 0. -1.
        -11    1    3    3    0    0 -0.10427204007E+02  0.18839673479E+01 -0.43980534504E+01  0.11472523296E+02  0.51100000000E-03 0.  1.
        -12    1    3    3    0    0 -0.96562833507E+01 -0.11853554349E+02 -0.81974752968E+01  0.17347886329E+02  0.00000000000E+00 0.  1.
</event>
<event>
 7    1  0.2110035E-010  0.4778725E+02  0.7816164E-02  0.1312668E+00
        -11   -1    0    0    0    0  0.00000000000E+00  0.00000000000E+00  0.45593999997E+02  0.45594000000E+02  0.51100000000E-03 0.  1.
         11   -1    0    0    0    0 -0.00000000000E+00 -0.00000000000E+00 -0.45593999997E+02  0.45594000000E+02  0.51100000000E-03 0. -1.
    9900012    2    1    2    0    0  0.19050992724E+02  0.39479317323E+01 -0.38795595397E+02  0.47787254489E+02  0.19999924516E+02 0.  0.
        -12    1    1    2    0    0 -0.19050992724E+02 -0.39479317323E+01  0.38795595397E+02  0.43400745511E+02  0.00000000000E+00 0.  1.
         11    1    3    3    0    0  0.19176362604E+02  0.63174294255E+01 -0.32318790385E+02  0.38107046716E+02  0.51100000000E-03 0. -1.
        -11    1    3    3    0    0  0.27043102645E+01 -0.32486819854E+01 -0.36445204211E+01  0.55811968260E+01  0.51100000000E-03 0.  1.
         12    1    3    3    0    0 -0.28296801438E+01  0.87918429216E+00 -0.28322845908E+01  0.40990109465E+01  0.00000000000E+00 0. -1.
</event>
<event>
 7    1  0.2110035E-010  0.4778727E+02  0.7816164E-02  0.1312668E+00
        -11   -1    0    0    0    0  0.00000000000E+00  0.00000000000E+00  0.45593999997E+02  0.45594000000E+02  0.51100000000E-03 0. -1.
         11   -1    0    0    0    0 -0.00000000000E+00 -0.00000000000E+00 -0.45593999997E+02  0.45594000000E+02  0.51100000000E-03 0.  1.
    9900012    2    1    2    0    0  0.38272227306E+02 -0.18298286776E+02 -0.91669115669E+01  0.47787274780E+02  0.20000017034E+02 0.  0.
        -12    1    1    2    0    0 -0.38272227306E+02  0.18298286776E+02  0.91669115669E+01  0.43400725220E+02  0.00000000000E+00 0.  1.
         11    1    3    3    0    0  0.15743256348E+02 -0.75560548011E+01  0.19622886838E+01  0.17572554218E+02  0.51100000000E-03 0. -1.
        -11    1    3    3    0    0  0.15549423908E+02 -0.58490214300E+01 -0.54116851527E+00  0.16621928263E+02  0.51100000000E-03 0.  1.
        -12    1    3    3    0    0  0.69795470496E+01 -0.48932105450E+01 -0.10588031735E+02  0.13592792299E+02  0.00000000000E+00 0.  1.
</event>
<event>
 7    1  0.2110035E-010  0.4778727E+02  0.7816164E-02  0.1312668E+00
        -11   -1    0    0    0    0  0.00000000000E+00  0.00000000000E+00  0.45593999997E+02  0.45594000000E+02  0.51100000000E-03 0. -1.
         11   -1    0    0    0    0 -0.00000000000E+00 -0.00000000000E+00 -0.45593999997E+02  0.45594000000E+02  0.51100000000E-03 0.  1.
    9900012    2    1    2    0    0 -0.22563489192E+02 -0.53493686974E+01  0.36686458405E+02  0.47787273966E+02  0.20000013321E+02 0.  0.
        -12    1    1    2    0    0  0.22563489192E+02  0.53493686974E+01 -0.36686458405E+02  0.43400726034E+02  0.00000000000E+00 0.  1.
         11    1    3    3    0    0 -0.18955603006E+02 -0.91341932323E+00  0.22085720718E+02  0.29119208095E+02  0.51100000000E-03 0.  1.
        -11    1    3    3    0    0 -0.45067333940E+01 -0.54635062265E+01  0.43176215828E+01  0.82947213675E+01  0.51100000000E-03 0. -1.
         12    1    3    3    0    0  0.89884720730E+00  0.10275568522E+01  0.10283116104E+02  0.10373344504E+02  0.00000000000E+00 0. -1.
</event>
<event>
 7    1  0.2110035E-010  0.4778726E+02  0.7816164E-02  0.1312668E+00
        -11   -1    0    0    0    0  0.00000000000E+00  0.00000000000E+00  0.45593999997E+02  0.45594000000E+02  0.51100000000E-03 0.  1.
         11   -1    0    0    0    0 -0.00000000000E+00 -0.00000000000E+00 -0.45593999997E+02  0.45594000000E+02  0.51100000000E-03 0. -1.
    9900012    2    1    2    0    0  0.28452068146E+02 -0.65188009330E+01 -0.32118671207E+02  0.47787262823E+02  0.19999962516E+02 0.  0.
        -12    1    1    2    0    0 -0.28452068146E+02  0.65188009330E+01  0.32118671207E+02  0.43400737177E+02  0.00000000000E+00 0.  1.
         11    1    3    3    0    0 -0.76162707364E+00  0.28093884666E+01 -0.16279185664E+01  0.33350949724E+01  0.51100000000E-03 0.  1.
        -11    1    3    3    0    0  0.15327583282E+02 -0.82143853556E+00 -0.10177037398E+02  0.18416885214E+02  0.51100000000E-03 0. -1.
         12    1    3    3    0    0  0.13886111938E+02 -0.85067508640E+01 -0.20313715243E+02  0.26035282637E+02  0.00000000000E+00 0. -1.
</event>
<event>
 7    1  0.2110035E-010  0.4778728E+02  0.7816164E-02  0.1312668E+00
        -11   -1    0    0    0    0  0.00000000000E+00  0.00000000000E+00  0.45593999997E+02  0.45594000000E+02  0.51100000000E-03 0.  1.
         11   -1    0    0    0    0 -0.00000000000E+00 -0.00000000000E+00 -0.45593999997E+02  0.45594000000E+02  0.51100000000E-03 0. -1.
    9900012    2    1    2    0    0 -0.23474228471E+02 -0.27961196619E+02 -0.23468165530E+02  0.47787277517E+02  0.20000029511E+02 0.  0.
        -12    1    1    2    0    0  0.23474228471E+02  0.27961196619E+02  0.23468165530E+02  0.43400722483E+02  0.00000000000E+00 0.  1.
         11    1    3    3    0    0  0.21849249385E+00 -0.76429313746E+00  0.17397995983E+01  0.19127953036E+01  0.51100000000E-03 0. -1.
        -11    1    3    3    0    0 -0.59561430644E+01 -0.12916987949E+02 -0.15737203758E+02  0.21212821601E+02  0.51100000000E-03 0.  1.
         12    1    3    3    0    0 -0.17736577901E+02 -0.14279915533E+02 -0.94707613707E+01  0.24661660613E+02  0.00000000000E+00 0. -1.
</event>
<event>
 7    1  0.2110035E-010  0.4778727E+02  0.7816164E-02  0.1312668E+00
        -11   -1    0    0    0    0  0.00000000000E+00  0.00000000000E+00  0.45593999997E+02  0.45594000000E+02  0.51100000000E-03 0.  1.
         11   -1    0    0    0    0 -0.00000000000E+00 -0.00000000000E+00 -0.45593999997E+02  0.45594000000E+02  0.51100000000E-03 0. -1.
    9900012    2    1    2    0    0  0.31618656187E+02 -0.20003750251E+02  0.21993952799E+02  0.47787269559E+02  0.19999993225E+02 0.  0.
        -12    1    1    2    0    0 -0.31618656187E+02  0.20003750251E+02 -0.21993952799E+02  0.43400730441E+02  0.00000000000E+00 0.  1.
         11    1    3    3    0    0  0.14771439281E+02 -0.11449524686E+02  0.13997686943E+02  0.23349995160E+02  0.51100000000E-03 0. -1.
        -11    1    3    3    0    0  0.20667834042E+01 -0.65779948316E+01 -0.10817874670E+01  0.69793892304E+01  0.51100000000E-03 0.  1.
         12    1    3    3    0    0  0.14780433502E+02 -0.19762307325E+01  0.90780533230E+01  0.17457885168E+02  0.00000000000E+00 0. -1.
</event>
<event>
 7    1  0.2110035E-010  0.4778728E+02  0.7816164E-02  0.1312668E+00
        -11   -1    0    0    0    0  0.00000000000E+00  0.00000000000E+00  0.45593999997E+02  0.45594000000E+02  0.51100000000E-03 0.  1.
         11   -1    0    0    0    0 -0.00000000000E+00 -0.00000000000E+00 -0.45593999997E+02  0.45594000000E+02  0.51100000000E-03 0. -1.
    9900012    2    1    2    0    0 -0.13200237026E+02  0.21574121372E+02 -0.35269445107E+02  0.47787277326E+02  0.20000028639E+02 0.  0.
        -12    1    1    2    0    0  0.13200237026E+02 -0.21574121372E+02  0.35269445107E+02  0.43400722674E+02  0.00000000000E+00 0.  1.
         11    1    3    3    0    0 -0.14450792068E+02  0.20246078438E+02 -0.19125170937E+02  0.31376762853E+02  0.51100000000E-03 0. -1.
        -11    1    3    3    0    0  0.97136040226E-01  0.17176912362E+01 -0.89259822605E+01  0.90902727225E+01  0.51100000000E-03 0.  1.
        -12    1    3    3    0    0  0.11534190017E+01 -0.38964830244E+00 -0.72182919095E+01  0.73202417503E+01  0.00000000000E+00 0.  1.
</event>
<event>
 7    1  0.2110035E-010  0.4778727E+02  0.7816164E-02  0.1312668E+00
        -11   -1    0    0    0    0  0.00000000000E+00  0.00000000000E+00  0.45593999997E+02  0.45594000000E+02  0.51100000000E-03 0. -1.
         11   -1    0    0    0    0 -0.00000000000E+00 -0.00000000000E+00 -0.45593999997E+02  0.45594000000E+02  0.51100000000E-03 0.  1.
    9900012    2    1    2    0    0 -0.11289551280E+01 -0.39546280235E+02  0.17844898504E+02  0.47787271634E+02  0.20000002689E+02 0.  0.
        -12    1    1    2    0    0  0.11289551280E+01  0.39546280235E+02 -0.17844898504E+02  0.43400728366E+02  0.00000000000E+00 0.  1.
         11    1    3    3    0    0  0.61227651183E+01 -0.27412056757E+02  0.89663115656E+01  0.29483959227E+02  0.51100000000E-03 0. -1.
        -11    1    3    3    0    0  0.13020951534E+01 -0.21310075267E+01  0.13300550483E+00  0.25008669683E+01  0.51100000000E-03 0.  1.
         12    1    3    3    0    0 -0.85538153998E+01 -0.10003215951E+02  0.87455814331E+01  0.15802445439E+02  0.00000000000E+00 0. -1.
</event>
<event>
 7    1  0.2110035E-010  0.4778727E+02  0.7816164E-02  0.1312668E+00
        -11   -1    0    0    0    0  0.00000000000E+00  0.00000000000E+00  0.45593999997E+02  0.45594000000E+02  0.51100000000E-03 0.  1.
         11   -1    0    0    0    0 -0.00000000000E+00 -0.00000000000E+00 -0.45593999997E+02  0.45594000000E+02  0.51100000000E-03 0. -1.
    9900012    2    1    2    0    0  0.32463377711E+02 -0.27118992818E+02 -0.97114715396E+01  0.47787270245E+02  0.19999996354E+02 0.  0.
        -12    1    1    2    0    0 -0.32463377711E+02  0.27118992818E+02  0.97114715396E+01  0.43400729755E+02  0.00000000000E+00 0.  1.
         11    1    3    3    0    0 -0.15020949895E+01 -0.17446183356E+00 -0.26589925969E+01  0.30589161774E+01  0.51100000000E-03 0.  1.
        -11    1    3    3    0    0  0.98767624549E+01 -0.11125632114E+02  0.67292578608E+00  0.14892379122E+02  0.51100000000E-03 0. -1.
         12    1    3    3    0    0  0.24088710245E+02 -0.15818898870E+02 -0.77254047288E+01  0.29835974946E+02  0.00000000000E+00 0. -1.
</event>
<event>
 7    1  0.2110035E-010  0.4778727E+02  0.7816164E-02  0.1312668E+00
        -11   -1    0    0    0    0  0.00000000000E+00  0.00000000000E+00  0.45593999997E+02  0.45594000000E+02  0.51100000000E-03 0.  1.
         11   -1    0    0    0    0 -0.00000000000E+00 -0.00000000000E+00 -0.45593999997E+02  0.45594000000E+02  0.51100000000E-03 0. -1.
    9900012    2    1    2    0    0 -0.11363668532E+02 -0.39967523924E+02 -0.12533450009E+02  0.47787270741E+02  0.19999998616E+02 0.  0.
        -12    1    1    2    0    0  0.11363668532E+02  0.39967523924E+02  0.12533450009E+02  0.43400729259E+02  0.00000000000E+00 0.  1.
         11    1    3    3    0    0 -0.78928575015E+01 -0.20300411632E+02 -0.60346231356E+01  0.22601340416E+02  0.51100000000E-03 0. -1.
        -11    1    3    3    0    0 -0.50558171838E+01 -0.22131162679E+01  0.17857104732E+01  0.58006838534E+01  0.51100000000E-03 0.  1.
        -12    1    3    3    0    0  0.15850061533E+01 -0.17453996024E+02 -0.82845373467E+01  0.19385246471E+02  0.00000000000E+00 0.  1.
</event>
<event>
 7    1  0.2110035E-010  0.4778727E+02  0.7816164E-02  0.1312668E+00
        -11   -1    0    0    0    0  0.00000000000E+00  0.00000000000E+00  0.45593999997E+02  0.45594000000E+02  0.51100000000E-03 0.  1.
         11   -1    0    0    0    0 -0.00000000000E+00 -0.00000000000E+00 -0.45593999997E+02  0.45594000000E+02  0.51100000000E-03 0. -1.
    9900012    2    1    2    0    0 -0.11508943330E+01 -0.34794264669E+00 -0.43384075103E+02  0.47787267352E+02  0.19999983164E+02 0.  0.
        -12    1    1    2    0    0  0.11508943330E+01  0.34794264669E+00  0.43384075103E+02  0.43400732648E+02  0.00000000000E+00 0.  1.
         11    1    3    3    0    0 -0.50988770516E+01 -0.19344664933E+01 -0.23917681694E+02  0.24531534923E+02  0.51100000000E-03 0. -1.
        -11    1    3    3    0    0 -0.57118352543E+00  0.61715120639E+01 -0.81869089531E+01  0.10268363562E+02  0.51100000000E-03 0.  1.
        -12    1    3    3    0    0  0.45191662440E+01 -0.45849882172E+01 -0.11279484455E+02  0.12987368866E+02  0.00000000000E+00 0.  1.
</event>
<event>
 7    1  0.2110035E-010  0.4778727E+02  0.7816164E-02  0.1312668E+00
        -11   -1    0    0    0    0  0.00000000000E+00  0.00000000000E+00  0.45593999997E+02  0.45594000000E+02  0.51100000000E-03 0.  1.
         11   -1    0    0    0    0 -0.00000000000E+00 -0.00000000000E+00 -0.45593999997E+02  0.45594000000E+02  0.51100000000E-03 0. -1.
    9900012    2    1    2    0    0 -0.36620029320E+02  0.11363910439E+02 -0.20333676555E+02  0.47787269474E+02  0.19999992842E+02 0.  0.
        -12    1    1    2    0    0  0.36620029320E+02 -0.11363910439E+02  0.20333676555E+02  0.43400730526E+02  0.00000000000E+00 0.  1.
         11    1    3    3    0    0 -0.30470273444E+02  0.64565912972E+01 -0.13390315136E+02  0.33903180893E+02  0.51100000000E-03 0. -1.
        -11    1    3    3    0    0 -0.46689622651E+00 -0.25795887448E+01 -0.16274234792E+01  0.30855757356E+01  0.51100000000E-03 0.  1.
        -12    1    3    3    0    0 -0.56828596497E+01  0.74869078869E+01 -0.53159379397E+01  0.10798512846E+02  0.00000000000E+00 0.  1.
</event>
<event>
 7    1  0.2110035E-010  0.4778728E+02  0.7816164E-02  0.1312668E+00
        -11   -1    0    0    0    0  0.00000000000E+00  0.00000000000E+00  0.45593999997E+02  0.45594000000E+02  0.51100000000E-03 0.  1.
         11   -1    0    0    0    0 -0.00000000000E+00 -0.00000000000E+00 -0.45593999997E+02  0.45594000000E+02  0.51100000000E-03 0. -1.
    9900012    2    1    2    0    0  0.58568727585E+01  0.41847183439E+02 -0.99062021017E+01  0.47787279265E+02  0.20000037479E+02 0.  0.
        -12    1    1    2    0    0 -0.58568727585E+01 -0.41847183439E+02  0.99062021017E+01  0.43400720735E+02  0.00000000000E+00 0.  1.
         11    1    3    3    0    0 -0.42002209344E+01  0.50609064834E+01 -0.38005046852E+01  0.75959506617E+01  0.51100000000E-03 0. -1.
        -11    1    3    3    0    0  0.76683999946E+01  0.15884588905E+02 -0.73680069403E+01  0.19115753966E+02  0.51100000000E-03 0.  1.
         12    1    3    3    0    0  0.23886936984E+01  0.20901688050E+02  0.12623095238E+01  0.21075574637E+02  0.00000000000E+00 0. -1.
</event>
<event>
 7    1  0.2110035E-010  0.4778727E+02  0.7816164E-02  0.1312668E+00
        -11   -1    0    0    0    0  0.00000000000E+00  0.00000000000E+00  0.45593999997E+02  0.45594000000E+02  0.51100000000E-03 0.  1.
         11   -1    0    0    0    0 -0.00000000000E+00 -0.00000000000E+00 -0.45593999997E+02  0.45594000000E+02  0.51100000000E-03 0. -1.
    9900012    2    1    2    0    0 -0.35628886991E+02  0.23020738508E+02 -0.91788511256E+01  0.47787270771E+02  0.19999998752E+02 0.  0.
        -12    1    1    2    0    0  0.35628886991E+02 -0.23020738508E+02  0.91788511256E+01  0.43400729229E+02  0.00000000000E+00 0.  1.
         11    1    3    3    0    0 -0.95631660715E+00  0.13078712498E+01  0.20466987830E+01  0.26103725460E+01  0.51100000000E-03 0. -1.
        -11    1    3    3    0    0 -0.58505018679E+01 -0.21694526401E+01 -0.26317643950E+01  0.67720809916E+01  0.51100000000E-03 0.  1.
         12    1    3    3    0    0 -0.28822068516E+02  0.23882319898E+02 -0.85937855136E+01  0.38404817233E+02  0.00000000000E+00 0. -1.
</event>
<event>
 7    1  0.2110035E-010  0.4778723E+02  0.7816164E-02  0.1312668E+00
        -11   -1    0    0    0    0  0.00000000000E+00  0.00000000000E+00  0.45593999997E+02  0.45594000000E+02  0.51100000000E-03 0. -1.
         11   -1    0    0    0    0 -0.00000000000E+00 -0.00000000000E+00 -0.45593999997E+02  0.45594000000E+02  0.51100000000E-03 0.  1.
    9900012    2    1    2    0    0 -0.37369492326E+02 -0.86916321844E+01  0.20288014429E+02  0.47787228622E+02  0.19999806580E+02 0.  0.
        -12    1    1    2    0    0  0.37369492326E+02  0.86916321844E+01 -0.20288014429E+02  0.43400771378E+02  0.00000000000E+00 0.  1.
         11    1    3    3    0    0 -0.30908646380E+02 -0.92836092168E+01  0.19277866672E+02  0.37592099766E+02  0.51100000000E-03 0. -1.
        -11    1    3    3    0    0 -0.17180854111E+01 -0.33616252917E+01 -0.57903286888E+00  0.38193744784E+01  0.51100000000E-03 0.  1.
        -12    1    3    3    0    0 -0.47427605347E+01  0.39536023241E+01  0.15891806260E+01  0.63757543780E+01  0.00000000000E+00 0.  1.
</event>
<event>
 7    1  0.2110035E-010  0.4778727E+02  0.7816164E-02  0.1312668E+00
        -11   -1    0    0    0    0  0.00000000000E+00  0.00000000000E+00  0.45593999997E+02  0.45594000000E+02  0.51100000000E-03 0.  1.
         11   -1    0    0    0    0 -0.00000000000E+00 -0.00000000000E+00 -0.45593999997E+02  0.45594000000E+02  0.51100000000E-03 0. -1.
    9900012    2    1    2    0    0 -0.42420650510E+02 -0.89315642421E+01 -0.20829913113E+01  0.47787270947E+02  0.19999999557E+02 0.  0.
        -12    1    1    2    0    0  0.42420650510E+02  0.89315642421E+01  0.20829913113E+01  0.43400729053E+02  0.00000000000E+00 0.  1.
         11    1    3    3    0    0 -0.26142169353E+02 -0.41055928578E+01 -0.11613951906E+01  0.26488068073E+02  0.51100000000E-03 0. -1.
        -11    1    3    3    0    0 -0.10179600934E+02 -0.74795866211E+01 -0.48998647422E+01  0.13549065132E+02  0.51100000000E-03 0.  1.
         12    1    3    3    0    0 -0.60988802227E+01  0.26536152368E+01  0.39782686215E+01  0.77501377420E+01  0.00000000000E+00 0. -1.
</event>
<event>
 7    1  0.2110035E-010  0.4778727E+02  0.7816164E-02  0.1312668E+00
        -11   -1    0    0    0    0  0.00000000000E+00  0.00000000000E+00  0.45593999997E+02  0.45594000000E+02  0.51100000000E-03 0. -1.
         11   -1    0    0    0    0 -0.00000000000E+00 -0.00000000000E+00 -0.45593999997E+02  0.45594000000E+02  0.51100000000E-03 0.  1.
    9900012    2    1    2    0    0 -0.21579924839E+02  0.29567335487E+02  0.23317435812E+02  0.47787270782E+02  0.19999998802E+02 0.  0.
        -12    1    1    2    0    0  0.21579924839E+02 -0.29567335487E+02 -0.23317435812E+02  0.43400729218E+02  0.00000000000E+00 0.  1.
         11    1    3    3    0    0 -0.70125113128E+01  0.77719834315E+01  0.11636042789E+01  0.10532474379E+02  0.51100000000E-03 0. -1.
        -11    1    3    3    0    0 -0.10966772203E+02  0.17151009940E+02  0.78991678754E+01  0.21836302065E+02  0.51100000000E-03 0.  1.
        -12    1    3    3    0    0 -0.36006413227E+01  0.46443421157E+01  0.14254663658E+02  0.15418494337E+02  0.00000000000E+00 0.  1.
</event>
<event>
 7    1  0.2110035E-010  0.4778727E+02  0.7816164E-02  0.1312668E+00
        -11   -1    0    0    0    0  0.00000000000E+00  0.00000000000E+00  0.45593999997E+02  0.45594000000E+02  0.51100000000E-03 0. -1.
         11   -1    0    0    0    0 -0.00000000000E+00 -0.00000000000E+00 -0.45593999997E+02  0.45594000000E+02  0.51100000000E-03 0.  1.
    9900012    2    1    2    0    0 -0.77947743589E+01 -0.40435689737E+02  0.13704736292E+02  0.47787270644E+02  0.19999998175E+02 0.  0.
        -12    1    1    2    0    0  0.77947743589E+01  0.40435689737E+02 -0.13704736292E+02  0.43400729356E+02  0.00000000000E+00 0.  1.
         11    1    3    3    0    0 -0.89957651987E+01 -0.25962936917E+02  0.16469924020E+02  0.32035235013E+02  0.51100000000E-03 0. -1.
        -11    1    3    3    0    0 -0.16629890996E+01 -0.89461613663E+01 -0.28227126538E+01  0.95271739211E+01  0.51100000000E-03 0.  1.
        -12    1    3    3    0    0  0.28639799394E+01 -0.55265914534E+01  0.57524925760E-01  0.62248617095E+01  0.00000000000E+00 0.  1.
</event>
<event>
 7    1  0.2110035E-010  0.4778728E+02  0.7816164E-02  0.1312668E+00
        -11   -1    0    0    0    0  0.00000000000E+00  0.00000000000E+00  0.45593999997E+02  0.45594000000E+02  0.51100000000E-03 0.  1.
         11   -1    0    0    0    0 -0.00000000000E+00 -0.00000000000E+00 -0.45593999997E+02  0.45594000000E+02  0.51100000000E-03 0. -1.
    9900012    2    1    2    0    0  0.30262534063E+02  0.11863564317E+02 -0.28758604700E+02  0.47787280300E+02  0.20000042198E+02 0.  0.
        -12    1    1    2    0    0 -0.30262534063E+02 -0.11863564317E+02  0.28758604700E+02  0.43400719700E+02  0.00000000000E+00 0.  1.
         11    1    3    3    0    0  0.19813255045E+01  0.32598198668E+01 -0.26512196988E+01  0.46455400624E+01  0.51100000000E-03 0.  1.
        -11    1    3    3    0    0 -0.72120113690E+00  0.21317146580E+01 -0.80748630884E+01  0.83825862727E+01  0.51100000000E-03 0. -1.
         12    1    3    3    0    0  0.29002409696E+02  0.64720297926E+01 -0.18032521913E+02  0.34759153964E+02  0.00000000000E+00 0. -1.
</event>
<event>
 7    1  0.2110035E-010  0.4778727E+02  0.7816164E-02  0.1312668E+00
        -11   -1    0    0    0    0  0.00000000000E+00  0.00000000000E+00  0.45593999997E+02  0.45594000000E+02  0.51100000000E-03 0.  1.
         11   -1    0    0    0    0 -0.00000000000E+00 -0.00000000000E+00 -0.45593999997E+02  0.45594000000E+02  0.51100000000E-03 0. -1.
    9900012    2    1    2    0    0 -0.15645377652E+02  0.32634009173E+02  0.23955521702E+02  0.47787269400E+02  0.19999992503E+02 0.  0.
        -12    1    1    2    0    0  0.15645377652E+02 -0.32634009173E+02 -0.23955521702E+02  0.43400730600E+02  0.00000000000E+00 0.  1.
         11    1    3    3    0    0 -0.43084791404E+01  0.79370998263E+01 -0.18453506716E+00  0.90329729108E+01  0.51100000000E-03 0. -1.
        -11    1    3    3    0    0 -0.16926145344E+01  0.29625171775E+01 -0.15512313373E+01  0.37480356071E+01  0.51100000000E-03 0.  1.
        -12    1    3    3    0    0 -0.96442839769E+01  0.21734392170E+02  0.25691288106E+02  0.35006260882E+02  0.00000000000E+00 0.  1.
</event>
<event>
 7    1  0.2110035E-010  0.4778726E+02  0.7816164E-02  0.1312668E+00
        -11   -1    0    0    0    0  0.00000000000E+00  0.00000000000E+00  0.45593999997E+02  0.45594000000E+02  0.51100000000E-03 0.  1.
         11   -1    0    0    0    0 -0.00000000000E+00 -0.00000000000E+00 -0.45593999997E+02  0.45594000000E+02  0.51100000000E-03 0. -1.
    9900012    2    1    2    0    0  0.16000216485E+02 -0.40340807929E+02  0.48598618977E+00  0.47787263894E+02  0.19999967400E+02 0.  0.
        -12    1    1    2    0    0 -0.16000216485E+02  0.40340807929E+02 -0.48598618977E+00  0.43400736106E+02  0.00000000000E+00 0.  1.
         11    1    3    3    0    0  0.16321404006E+02 -0.19674332191E+02  0.52964242514E+01  0.26105932008E+02  0.51100000000E-03 0. -1.
        -11    1    3    3    0    0 -0.18237385797E+00 -0.10069601615E+01 -0.13898863282E+01  0.17259818242E+01  0.51100000000E-03 0.  1.
         12    1    3    3    0    0 -0.13881366387E+00 -0.19659515576E+02 -0.34205517334E+01  0.19955350062E+02  0.00000000000E+00 0. -1.
</event>
<event>
 7    1  0.2110035E-010  0.4778728E+02  0.7816164E-02  0.1312668E+00
        -11   -1    0    0    0    0  0.00000000000E+00  0.00000000000E+00  0.45593999997E+02  0.45594000000E+02  0.51100000000E-03 0.  1.
         11   -1    0    0    0    0 -0.00000000000E+00 -0.00000000000E+00 -0.45593999997E+02  0.45594000000E+02  0.51100000000E-03 0. -1.
    9900012    2    1    2    0    0  0.20444817761E+02  0.23297146019E+02 -0.30378855711E+02  0.47787280418E+02  0.20000042738E+02 0.  0.
        -12    1    1    2    0    0 -0.20444817761E+02 -0.23297146019E+02  0.30378855711E+02  0.43400719582E+02  0.00000000000E+00 0.  1.
         11    1    3    3    0    0  0.14795545306E+02  0.10992031168E+02 -0.12881417051E+02  0.22486969907E+02  0.51100000000E-03 0. -1.
        -11    1    3    3    0    0 -0.36497986326E+00  0.41915317361E+01  0.90959166228E+00  0.43045912522E+01  0.51100000000E-03 0.  1.
         12    1    3    3    0    0  0.60142523182E+01  0.81135831150E+01 -0.18407030322E+02  0.20995719259E+02  0.00000000000E+00 0. -1.
</event>
<event>
 7    1  0.2110035E-010  0.4778727E+02  0.7816164E-02  0.1312668E+00
        -11   -1    0    0    0    0  0.00000000000E+00  0.00000000000E+00  0.45593999997E+02  0.45594000000E+02  0.51100000000E-03 0.  1.
         11   -1    0    0    0    0 -0.00000000000E+00 -0.00000000000E+00 -0.45593999997E+02  0.45594000000E+02  0.51100000000E-03 0. -1.
    9900012    2    1    2    0    0 -0.22348206183E+02  0.37196791529E+02 -0.76158917167E+00  0.47787266853E+02  0.19999980890E+02 0.  0.
        -12    1    1    2    0    0  0.22348206183E+02 -0.37196791529E+02  0.76158917167E+00  0.43400733147E+02  0.00000000000E+00 0.  1.
         11    1    3    3    0    0 -0.73515452580E+01  0.15629835848E+02  0.40644236786E+01  0.17744196979E+02  0.51100000000E-03 0. -1.
        -11    1    3    3    0    0 -0.10641860164E+01  0.11798613737E+02  0.13894377727E+01  0.11927712084E+02  0.51100000000E-03 0.  1.
         12    1    3    3    0    0 -0.13932474908E+02  0.97683419437E+01 -0.62154506231E+01  0.18115357790E+02  0.00000000000E+00 0. -1.
</event>
<event>
 7    1  0.2110035E-010  0.4778727E+02  0.7816164E-02  0.1312668E+00
        -11   -1    0    0    0    0  0.00000000000E+00  0.00000000000E+00  0.45593999997E+02  0.45594000000E+02  0.51100000000E-03 0.  1.
         11   -1    0    0    0    0 -0.00000000000E+00 -0.00000000000E+00 -0.45593999997E+02  0.45594000000E+02  0.51100000000E-03 0. -1.
    9900012    2    1    2    0    0  0.17804584935E+01 -0.28314222917E+02 -0.32844451714E+02  0.47787271202E+02  0.20000000717E+02 0.  0.
        -12    1    1    2    0    0 -0.17804584935E+01  0.28314222917E+02  0.32844451714E+02  0.43400728798E+02  0.00000000000E+00 0.  1.
         11    1    3    3    0    0  0.23711039589E+01  0.12517742608E+00 -0.68833616268E+01  0.72813783667E+01  0.51100000000E-03 0. -1.
        -11    1    3    3    0    0  0.49171125680E+01 -0.50081756201E+01 -0.61414682398E+01  0.93261702456E+01  0.51100000000E-03 0.  1.
        -12    1    3    3    0    0 -0.55077580334E+01 -0.23431224723E+02 -0.19819621847E+02  0.31179722589E+02  0.00000000000E+00 0.  1.
</event>
<event>
 7    1  0.2110035E-010  0.4778727E+02  0.7816164E-02  0.1312668E+00
        -11   -1    0    0    0    0  0.00000000000E+00  0.00000000000E+00  0.45593999997E+02  0.45594000000E+02  0.51100000000E-03 0.  1.
         11   -1    0    0    0    0 -0.00000000000E+00 -0.00000000000E+00 -0.45593999997E+02  0.45594000000E+02  0.51100000000E-03 0. -1.
    9900012    2    1    2    0    0 -0.80870362968E+01  0.64384693482E+01 -0.42151741342E+02  0.47787270262E+02  0.19999996431E+02 0.  0.
        -12    1    1    2    0    0  0.80870362968E+01 -0.64384693482E+01  0.42151741342E+02  0.43400729738E+02  0.00000000000E+00 0.  1.
         11    1    3    3    0    0  0.30103068247E+01 -0.29129015327E+00 -0.13971059800E+02  0.14294660169E+02  0.51100000000E-03 0. -1.
        -11    1    3    3    0    0 -0.75754724671E+01  0.89381343670E+01 -0.26562494447E+02  0.29031778116E+02  0.51100000000E-03 0.  1.
        -12    1    3    3    0    0 -0.35218706544E+01 -0.22083748655E+01 -0.16181870951E+01  0.44608319771E+01  0.00000000000E+00 0.  1.
</event>
<event>
 7    1  0.2110035E-010  0.4778727E+02  0.7816164E-02  0.1312668E+00
        -11   -1    0    0    0    0  0.00000000000E+00  0.00000000000E+00  0.45593999997E+02  0.45594000000E+02  0.51100000000E-03 0.  1.
         11   -1    0    0    0    0 -0.00000000000E+00 -0.00000000000E+00 -0.45593999997E+02  0.45594000000E+02  0.51100000000E-03 0. -1.
    9900012    2    1    2    0    0 -0.33450889429E+00 -0.12719424151E+02 -0.41493701920E+02  0.47787274822E+02  0.20000017222E+02 0.  0.
        -12    1    1    2    0    0  0.33450889429E+00  0.12719424151E+02  0.41493701920E+02  0.43400725178E+02  0.00000000000E+00 0.  1.
         11    1    3    3    0    0  0.14072320415E+00 -0.73003773114E+00  0.13631666756E+01  0.15527336397E+01  0.51100000000E-03 0. -1.
        -11    1    3    3    0    0 -0.14072903311E+01  0.17211443847E+00 -0.22201549531E+02  0.22246772604E+02  0.51100000000E-03 0.  1.
         12    1    3    3    0    0  0.93205823267E+00 -0.12161500859E+02 -0.20655319065E+02  0.23987768578E+02  0.00000000000E+00 0. -1.
</event>
<event>
 7    1  0.2110035E-010  0.4778727E+02  0.7816164E-02  0.1312668E+00
        -11   -1    0    0    0    0  0.00000000000E+00  0.00000000000E+00  0.45593999997E+02  0.45594000000E+02  0.51100000000E-03 0.  1.
         11   -1    0    0    0    0 -0.00000000000E+00 -0.00000000000E+00 -0.45593999997E+02  0.45594000000E+02  0.51100000000E-03 0. -1.
    9900012    2    1    2    0    0 -0.79434171924E+01  0.23938728071E+02 -0.35319443797E+02  0.47787266268E+02  0.19999978223E+02 0.  0.
        -12    1    1    2    0    0  0.79434171924E+01 -0.23938728071E+02  0.35319443797E+02  0.43400733732E+02  0.00000000000E+00 0.  1.
         11    1    3    3    0    0  0.15909286959E+01  0.64248315021E+01 -0.18572137545E+01  0.68745005009E+01  0.51100000000E-03 0. -1.
        -11    1    3    3    0    0  0.91373550546E+00  0.47562798377E+01 -0.17141672291E+01  0.51376531626E+01  0.51100000000E-03 0.  1.
         12    1    3    3    0    0 -0.10448081394E+02  0.12757616731E+02 -0.31748062814E+02  0.35775112605E+02  0.00000000000E+00 0. -1.
</event>
<event>
 7    1  0.2110035E-010  0.4778726E+02  0.7816164E-02  0.1312668E+00
        -11   -1    0    0    0    0  0.00000000000E+00  0.00000000000E+00  0.45593999997E+02  0.45594000000E+02  0.51100000000E-03 0.  1.
         11   -1    0    0    0    0 -0.00000000000E+00 -0.00000000000E+00 -0.45593999997E+02  0.45594000000E+02  0.51100000000E-03 0. -1.
    9900012    2    1    2    0    0  0.36775138038E+02  0.20013862015E+02  0.11430608151E+02  0.47787259762E+02  0.19999948561E+02 0.  0.
        -12    1    1    2    0    0 -0.36775138038E+02 -0.20013862015E+02 -0.11430608151E+02  0.43400740238E+02  0.00000000000E+00 0.  1.
         11    1    3    3    0    0  0.93433103831E+01 -0.10988893854E+01  0.36719629355E+01  0.10098926619E+02  0.51100000000E-03 0. -1.
        -11    1    3    3    0    0  0.61893647524E+01 -0.51690449783E+00 -0.60252046836E+00  0.62400687075E+01  0.51100000000E-03 0.  1.
         12    1    3    3    0    0  0.21242462902E+02  0.21629655899E+02  0.83611656836E+01  0.31448264436E+02  0.00000000000E+00 0. -1.
</event>
<event>
 7    1  0.2110035E-010  0.4778726E+02  0.7816164E-02  0.1312668E+00
        -11   -1    0    0    0    0  0.00000000000E+00  0.00000000000E+00  0.45593999997E+02  0.45594000000E+02  0.51100000000E-03 0.  1.
         11   -1    0    0    0    0 -0.00000000000E+00 -0.00000000000E+00 -0.45593999997E+02  0.45594000000E+02  0.51100000000E-03 0. -1.
    9900012    2    1    2    0    0  0.27117236489E+01  0.25946769323E+02 -0.34684804354E+02  0.47787263410E+02  0.19999965191E+02 0.  0.
        -12    1    1    2    0    0 -0.27117236489E+01 -0.25946769323E+02  0.34684804354E+02  0.43400736590E+02  0.00000000000E+00 0.  1.
         11    1    3    3    0    0  0.46870792634E+01  0.63025153822E+01 -0.34231438048E+01  0.85678658915E+01  0.51100000000E-03 0. -1.
        -11    1    3    3    0    0  0.33462697338E+01  0.91936487328E+01 -0.22640533433E+02  0.24664031555E+02  0.51100000000E-03 0.  1.
         12    1    3    3    0    0 -0.53216253483E+01  0.10450605208E+02 -0.86211271159E+01  0.14555365963E+02  0.00000000000E+00 0. -1.
</event>
<event>
 7    1  0.2340069E-010  0.4778727E+02  0.7816164E-02  0.1312668E+00
        -11   -1    0    0    0    0  0.00000000000E+00  0.00000000000E+00  0.45593999997E+02  0.45594000000E+02  0.51100000000E-03 0.  1.
         11   -1    0    0    0    0 -0.00000000000E+00 -0.00000000000E+00 -0.45593999997E+02  0.45594000000E+02  0.51100000000E-03 0. -1.
    9900012    2    1    2    0    0 -0.34260083734E+02 -0.25319816692E+02  0.82931871240E+01  0.47787269506E+02  0.19999992985E+02 0.  0.
        -12    1    1    2    0    0  0.34260083734E+02  0.25319816692E+02 -0.82931871240E+01  0.43400730494E+02  0.00000000000E+00 0.  1.
         11    1    3    3    0    0 -0.25273521707E+02 -0.13231178668E+02  0.15816647917E+01  0.28571255699E+02  0.51100000000E-03 0. -1.
        -11    1    3    3    0    0  0.21119842156E+00 -0.80217697703E+00 -0.20583019704E+01  0.22191664962E+01  0.51100000000E-03 0.  1.
        -12    1    3    3    0    0 -0.91977604483E+01 -0.11286461046E+02  0.87698243027E+01  0.16996847311E+02  0.00000000000E+00 0.  1.
</event>
<event>
 7    1  0.2110035E-010  0.4778727E+02  0.7816164E-02  0.1312668E+00
        -11   -1    0    0    0    0  0.00000000000E+00  0.00000000000E+00  0.45593999997E+02  0.45594000000E+02  0.51100000000E-03 0.  1.
         11   -1    0    0    0    0 -0.00000000000E+00 -0.00000000000E+00 -0.45593999997E+02  0.45594000000E+02  0.51100000000E-03 0. -1.
    9900012    2    1    2    0    0 -0.12681062718E+02  0.10414907631E+02 -0.40178898370E+02  0.47787268130E+02  0.19999986713E+02 0.  0.
        -12    1    1    2    0    0  0.12681062718E+02 -0.10414907631E+02  0.40178898370E+02  0.43400731870E+02  0.00000000000E+00 0.  1.
         11    1    3    3    0    0 -0.78193022664E+01 -0.16640142464E+01 -0.16595114344E+02  0.18420321704E+02  0.51100000000E-03 0. -1.
        -11    1    3    3    0    0 -0.65167957875E+01  0.20218660084E+01 -0.12948547063E+02  0.14636305572E+02  0.51100000000E-03 0.  1.
        -12    1    3    3    0    0  0.16550353361E+01  0.10057055869E+02 -0.10635236963E+02  0.14730640854E+02  0.00000000000E+00 0.  1.
</event>
<event>
 7    1  0.2110035E-010  0.4778725E+02  0.7816164E-02  0.1312668E+00
        -11   -1    0    0    0    0  0.00000000000E+00  0.00000000000E+00  0.45593999997E+02  0.45594000000E+02  0.51100000000E-03 0.  1.
         11   -1    0    0    0    0 -0.00000000000E+00 -0.00000000000E+00 -0.45593999997E+02  0.45594000000E+02  0.51100000000E-03 0. -1.
    9900012    2    1    2    0    0 -0.31722210763E+02  0.65092096361E+01 -0.28895617908E+02  0.47787248854E+02  0.19999898823E+02 0.  0.
        -12    1    1    2    0    0  0.31722210763E+02 -0.65092096361E+01  0.28895617908E+02  0.43400751146E+02  0.00000000000E+00 0.  1.
         11    1    3    3    0    0 -0.10230865270E+02 -0.47716795459E+00 -0.21024261070E+01  0.10455548251E+02  0.51100000000E-03 0. -1.
        -11    1    3    3    0    0 -0.22402334615E+02  0.41367335624E+01 -0.21925305493E+02  0.31617972452E+02  0.51100000000E-03 0.  1.
        -12    1    3    3    0    0  0.91098912227E+00  0.28496440283E+01 -0.48678863080E+01  0.57137281504E+01  0.00000000000E+00 0.  1.
</event>
<event>
 7    1  0.2110035E-010  0.4778726E+02  0.7816164E-02  0.1312668E+00
        -11   -1    0    0    0    0  0.00000000000E+00  0.00000000000E+00  0.45593999997E+02  0.45594000000E+02  0.51100000000E-03 0.  1.
         11   -1    0    0    0    0 -0.00000000000E+00 -0.00000000000E+00 -0.45593999997E+02  0.45594000000E+02  0.51100000000E-03 0. -1.
    9900012    2    1    2    0    0 -0.24945598460E+02 -0.32531733595E+02 -0.14248777873E+02  0.47787259867E+02  0.19999949037E+02 0.  0.
        -12    1    1    2    0    0  0.24945598460E+02  0.32531733595E+02  0.14248777873E+02  0.43400740133E+02  0.00000000000E+00 0.  1.
         11    1    3    3    0    0 -0.86557453018E+01 -0.18302511136E+02 -0.46900593431E+01  0.20782215896E+02  0.51100000000E-03 0. -1.
        -11    1    3    3    0    0 -0.19277635994E+00 -0.51140574638E+01  0.16480467634E+01  0.53765048929E+01  0.51100000000E-03 0.  1.
         12    1    3    3    0    0 -0.16097076798E+02 -0.91151649953E+01 -0.11206765293E+02  0.21628539078E+02  0.00000000000E+00 0. -1.
</event>
<event>
 7    1  0.2110035E-010  0.4778727E+02  0.7816164E-02  0.1312668E+00
        -11   -1    0    0    0    0  0.00000000000E+00  0.00000000000E+00  0.45593999997E+02  0.45594000000E+02  0.51100000000E-03 0.  1.
         11   -1    0    0    0    0 -0.00000000000E+00 -0.00000000000E+00 -0.45593999997E+02  0.45594000000E+02  0.51100000000E-03 0. -1.
    9900012    2    1    2    0    0  0.71051189295E+01  0.42784968563E+02  0.16084215964E+01  0.47787271090E+02  0.20000000206E+02 0.  0.
        -12    1    1    2    0    0 -0.71051189295E+01 -0.42784968563E+02 -0.16084215964E+01  0.43400728910E+02  0.00000000000E+00 0.  1.
         11    1    3    3    0    0  0.61368883586E+01  0.15316075611E+02 -0.68963266733E+01  0.17883033655E+02  0.51100000000E-03 0. -1.
        -11    1    3    3    0    0  0.43051918784E+01  0.12483773618E+02  0.52513879636E+01  0.14211134954E+02  0.51100000000E-03 0.  1.
        -12    1    3    3    0    0 -0.33369613075E+01  0.14985119334E+02  0.32533603062E+01  0.15693102481E+02  0.00000000000E+00 0.  1.
</event>
<event>
 7    1  0.2110035E-010  0.4778727E+02  0.7816164E-02  0.1312668E+00
        -11   -1    0    0    0    0  0.00000000000E+00  0.00000000000E+00  0.45593999997E+02  0.45594000000E+02  0.51100000000E-03 0. -1.
         11   -1    0    0    0    0 -0.00000000000E+00 -0.00000000000E+00 -0.45593999997E+02  0.45594000000E+02  0.51100000000E-03 0.  1.
    9900012    2    1    2    0    0  0.24877765952E+02 -0.15343471408E+02  0.32082674596E+02  0.47787270019E+02  0.19999995326E+02 0.  0.
        -12    1    1    2    0    0 -0.24877765952E+02  0.15343471408E+02 -0.32082674596E+02  0.43400729981E+02  0.00000000000E+00 0.  1.
         11    1    3    3    0    0  0.92051013764E+01  0.87168334991E+00  0.95460569322E+01  0.13289880602E+02  0.51100000000E-03 0. -1.
        -11    1    3    3    0    0  0.65736059128E-02 -0.87743821643E+01  0.74545897430E+01  0.11513502251E+02  0.51100000000E-03 0.  1.
         12    1    3    3    0    0  0.15666090969E+02 -0.74407725940E+01  0.15082027921E+02  0.22983887166E+02  0.00000000000E+00 0. -1.
</event>
<event>
 7    1  0.2110035E-010  0.4778728E+02  0.7816164E-02  0.1312668E+00
        -11   -1    0    0    0    0  0.00000000000E+00  0.00000000000E+00  0.45593999997E+02  0.45594000000E+02  0.51100000000E-03 0.  1.
         11   -1    0    0    0    0 -0.00000000000E+00 -0.00000000000E+00 -0.45593999997E+02  0.45594000000E+02  0.51100000000E-03 0. -1.
    9900012    2    1    2    0    0  0.26971208915E+01  0.27736458857E+02 -0.33272168416E+02  0.47787276479E+02  0.20000024778E+02 0.  0.
        -12    1    1    2    0    0 -0.26971208915E+01 -0.27736458857E+02  0.33272168416E+02  0.43400723521E+02  0.00000000000E+00 0.  1.
         11    1    3    3    0    0  0.49075898818E+01  0.20158151982E+01 -0.27090208034E+01  0.59570750655E+01  0.51100000000E-03 0.  1.
        -11    1    3    3    0    0  0.21843544639E+01  0.22142771118E+02 -0.27546603137E+02  0.35410295987E+02  0.51100000000E-03 0. -1.
         12    1    3    3    0    0 -0.43948234542E+01  0.35778725409E+01 -0.30165444755E+01  0.64199054265E+01  0.00000000000E+00 0. -1.
</event>
